      -----------------------------------------------------------      
     |                   =====================                   |     
     |                           x T B                           |     
     |                   =====================                   |     
     |                         S. Grimme                         |     
     |          Mulliken Center for Theoretical Chemistry        |     
     |                    University of Bonn                     |     
      -----------------------------------------------------------      

   * xtb version 6.7.1pre (5071a88) compiled by 'Marcel@Raven' on 2024-07-23

   xtb is free software: you can redistribute it and/or modify it under
   the terms of the GNU Lesser General Public License as published by
   the Free Software Foundation, either version 3 of the License, or
   (at your option) any later version.
   
   xtb is distributed in the hope that it will be useful,
   but WITHOUT ANY WARRANTY; without even the implied warranty of
   MERCHANTABILITY or FITNESS FOR A PARTICULAR PURPOSE.  See the
   GNU Lesser General Public License for more details.
   
   Cite this work as:
   * C. Bannwarth, E. Caldeweyher, S. Ehlert, A. Hansen, P. Pracht,
     J. Seibert, S. Spicher, S. Grimme, WIREs Comput. Mol. Sci., 2020, 11,
     e01493. DOI: 10.1002/wcms.1493
   
   for GFN2-xTB:
   * C. Bannwarth, S. Ehlert and S. Grimme., J. Chem. Theory Comput., 2019,
     15, 1652-1671. DOI: 10.1021/acs.jctc.8b01176
   for GFN1-xTB:
   * S. Grimme, C. Bannwarth, P. Shushkov, J. Chem. Theory Comput., 2017,
     13, 1989-2009. DOI: 10.1021/acs.jctc.7b00118
   for GFN0-xTB:
   * P. Pracht, E. Caldeweyher, S. Ehlert, S. Grimme, ChemRxiv, 2019, preprint.
     DOI: 10.26434/chemrxiv.8326202.v1
   for GFN-FF:
   * S. Spicher and S. Grimme, Angew. Chem. Int. Ed., 2020, 59, 15665-15673.
     DOI: 10.1002/anie.202004239
   
   for ALPB and GBSA implicit solvation:
   * S. Ehlert, M. Stahn, S. Spicher, S. Grimme, J. Chem. Theory Comput.,
     2021, 17, 4250-4261. DOI: 10.1021/acs.jctc.1c00471
   
   for ddCOSMO and CPCM-X implicit solvation:
   * M. Stahn, S. Ehlert, S. Grimme, J. Phys. Chem. A,
     2023, XX, XXXX-XXXX. DOI: 10.1021/acs.jpca.3c04382
   
   for DFT-D4:
   * E. Caldeweyher, C. Bannwarth and S. Grimme, J. Chem. Phys., 2017,
     147, 034112. DOI: 10.1063/1.4993215
   * E. Caldeweyher, S. Ehlert, A. Hansen, H. Neugebauer, S. Spicher,
     C. Bannwarth and S. Grimme, J. Chem. Phys., 2019, 150, 154122.
     DOI: 10.1063/1.5090222
   * E. Caldeweyher, J.-M. Mewes, S. Ehlert and S. Grimme, Phys. Chem. Chem. Phys.
     2020, 22, 8499-8512. DOI: 10.1039/D0CP00502A
   
   for sTDA-xTB:
   * S. Grimme and C. Bannwarth, J. Chem. Phys., 2016, 145, 054103.
     DOI: 10.1063/1.4959605
   
   in the mass-spec context:
   * V. Asgeirsson, C. Bauer and S. Grimme, Chem. Sci., 2017, 8, 4879.
     DOI: 10.1039/c7sc00601b
   * J. Koopman and S. Grimme, ACS Omega 2019, 4, 12, 15120-15133.
     DOI: 10.1021/acsomega.9b02011
   
   for metadynamics refer to:
   * S. Grimme, J. Chem. Theory Comput., 2019, 155, 2847-2862
     DOI: 10.1021/acs.jctc.9b00143
   
   for SPH calculations refer to:
   * S. Spicher and S. Grimme, J. Chem. Theory Comput., 2021, 17, 1701-1714
     DOI: 10.1021/acs.jctc.0c01306
   
   for ONIOM refer to:
   * C. Plett, A. Katbashev, S. Ehlert, S. Grimme, M. Bursch,
     Phys. Chem. Chem. Phys., 2023, 25, 17860-17868. DOI: 10.1039/D3CP02178E
   
   for DIPRO refer to:
   * J. Kohn, N. Gildemeister, S. Grimme, D. Fazzi, A. Hansen,
     J. Chem. Phys., 2023, just accepted.
   
   for PTB refer to:
   * S. Grimme, M. Mueller, A. Hansen, J. Chem. Phys., 2023, 158, 124111.
     DOI: 10.1063/5.0137838
   
   with help from (in alphabetical order)
   P. Atkinson, C. Bannwarth, F. Bohle, G. Brandenburg, E. Caldeweyher
   M. Checinski, S. Dohm, S. Ehlert, S. Ehrlich, I. Gerasimov, C. Hölzer
   A. Katbashev, J. Kohn, J. Koopman, C. Lavigne, S. Lehtola, F. März, M. Müller,
   F. Musil, H. Neugebauer, J. Pisarek, C. Plett, P. Pracht, F. Pultar,
   J. Seibert, P. Shushkov, S. Spicher, M. Stahn, M. Steiner, T. Strunk,
   J. Stückrath, T. Rose, and J. Unsleber
   
 * started run on 2025/12/08 at 00:30:02.925     
   ID    Z sym.   atoms
    1    6 C      1-104
    2    1 H      105-132

           -------------------------------------------------
          |                Calculation Setup                |
           -------------------------------------------------

          program call               : xtb "C:\Users\LENOVO GAMING\Documents\GitHub\molecular-conductivity-sim\results\1.5nm-0pure-0percent\xtbopt.xyz" --sp
          coordinate file            : C:\Users\LENOVO GAMING\Documents\GitHub\molecular-conductivity-sim\results\1.5nm-0pure-0percent\xtbopt.xyz
          omp threads                :                    16


           -------------------------------------------------
          |                 G F N 2 - x T B                 |
           -------------------------------------------------

        Reference                      10.1021/acs.jctc.8b01176
      * Hamiltonian:
        H0-scaling (s, p, d)           1.850000    2.230000    2.230000
        zeta-weighting                 0.500000
      * Dispersion:
        s8                             2.700000
        a1                             0.520000
        a2                             5.000000
        s9                             5.000000
      * Repulsion:
        kExp                           1.500000    1.000000
        rExp                           1.000000
      * Coulomb:
        alpha                          2.000000
        third order                    shell-resolved
        anisotropic                    true
        a3                             3.000000
        a5                             4.000000
        cn-shift                       1.200000
        cn-exp                         4.000000
        max-rad                        5.000000

q/qsh data taken from xtbrestart
CAMM data taken from xtbrestart

          ...................................................
          :                      SETUP                      :
          :.................................................:
          :  # basis functions                 444          :
          :  # atomic orbitals                 444          :
          :  # shells                          236          :
          :  # electrons                       444          :
          :  max. iterations                   250          :
          :  Hamiltonian                  GFN2-xTB          :
          :  restarted?                       true          :
          :  GBSA solvation                  false          :
          :  PC potential                    false          :
          :  electronic temp.          300.0000000     K    :
          :  accuracy                    1.0000000          :
          :  -> integral cutoff          0.2500000E+02      :
          :  -> integral neglect         0.1000000E-07      :
          :  -> SCF convergence          0.1000000E-05 Eh   :
          :  -> wf. convergence          0.1000000E-03 e    :
          :  Broyden damping             0.4000000          :
          :  net charge                          0          :
          :  unpaired electrons                  0          :
          ...................................................

 iter      E             dE          RMSdq      gap      omega  full diag
   1   -242.4536491 -0.242454E+03  0.197E-05    0.00       0.0  T
   2   -242.4536491  0.723468E-07  0.497E-04    0.00      17.5  T
   3   -242.4536491 -0.722769E-07  0.284E-05    0.00     306.8  T

   *** convergence criteria satisfied after 3 iterations ***

         #    Occupation            Energy/Eh            Energy/eV
      -------------------------------------------------------------
         1        2.0000           -0.6619046             -18.0113
       ...           ...                  ...                  ...
       216        2.0000           -0.3828600             -10.4182
       217        2.0000           -0.3794916             -10.3265
       218        2.0000           -0.3748123             -10.1992
       219        2.0000           -0.3657376              -9.9522
       220        2.0000           -0.3574129              -9.7257
       221        1.9998           -0.3330063              -9.0616
       222        1.0243           -0.3244973              -8.8300 (HOMO)
       223        0.9759           -0.3244052              -8.8275 (LUMO)
       224        0.0000           -0.3142839              -8.5521
       225                         -0.2872793              -7.8173
       226                         -0.2778059              -7.5595
       227                         -0.2666621              -7.2562
       ...                                ...                  ...
       444                          0.7854026              21.3719
      -------------------------------------------------------------
                  HL-Gap            0.0000921 Eh            0.0025 eV
             Fermi-level           -0.3244511 Eh           -8.8288 eV

 SCC (total)                   0 d,  0 h,  0 min,  0.215 sec
 SCC setup                      ...        0 min,  0.002 sec (  0.930%)
 Dispersion                     ...        0 min,  0.009 sec (  4.186%)
 classical contributions        ...        0 min,  0.000 sec (  0.000%)
 integral evaluation            ...        0 min,  0.022 sec ( 10.232%)
 iterations                     ...        0 min,  0.123 sec ( 57.209%)
 molecular gradient             ...        0 min,  0.055 sec ( 25.581%)
 printout                       ...        0 min,  0.004 sec (  1.861%)

         :::::::::::::::::::::::::::::::::::::::::::::::::::::
         ::                     SUMMARY                     ::
         :::::::::::::::::::::::::::::::::::::::::::::::::::::
         :: total energy            -237.748218429501 Eh    ::
         :: gradient norm              0.000350175268 Eh/a0 ::
         :: HOMO-LUMO gap              0.002505264597 eV    ::
         ::.................................................::
         :: SCC energy              -242.461730694710 Eh    ::
         :: -> isotropic ES            0.002446904346 Eh    ::
         :: -> anisotropic ES          0.012953445194 Eh    ::
         :: -> anisotropic XC          0.091090922177 Eh    ::
         :: -> dispersion             -0.290172121105 Eh    ::
         :: repulsion energy           4.713512265209 Eh    ::
         :: add. restraining           0.000000000000 Eh    ::
         :: total charge               0.000000000005 e     ::
         :::::::::::::::::::::::::::::::::::::::::::::::::::::

           -------------------------------------------------
          |                Property Printout                |
           -------------------------------------------------

    * Orbital Energies and Occupations

         #    Occupation            Energy/Eh            Energy/eV
      -------------------------------------------------------------
         1        2.0000           -0.6619046             -18.0113
       ...           ...                  ...                  ...
       210        2.0000           -0.3958207             -10.7708
       211        2.0000           -0.3947122             -10.7407
       212        2.0000           -0.3904920             -10.6258
       213        2.0000           -0.3849705             -10.4756
       214        2.0000           -0.3842634             -10.4563
       215        2.0000           -0.3839126             -10.4468
       216        2.0000           -0.3828600             -10.4182
       217        2.0000           -0.3794916             -10.3265
       218        2.0000           -0.3748123             -10.1992
       219        2.0000           -0.3657376              -9.9522
       220        2.0000           -0.3574129              -9.7257
       221        1.9998           -0.3330063              -9.0616
       222        1.0243           -0.3244973              -8.8300 (HOMO)
       223        0.9759           -0.3244052              -8.8275 (LUMO)
       224        0.0000           -0.3142839              -8.5521
       225                         -0.2872793              -7.8173
       226                         -0.2778059              -7.5595
       227                         -0.2666621              -7.2562
       228                         -0.2606890              -7.0937
       229                         -0.2561079              -6.9691
       230                         -0.2539317              -6.9098
       231                         -0.2466287              -6.7111
       232                         -0.2397135              -6.5229
       233                         -0.2379566              -6.4751
       ...                                ...                  ...
       444                          0.7854026              21.3719
      -------------------------------------------------------------
                  HL-Gap            0.0000921 Eh            0.0025 eV
             Fermi-level           -0.3244511 Eh           -8.8288 eV

     #   Z          covCN         q      C6AA      α(0)
     1   6 C        2.919    -0.037    28.918     8.818
     2   6 C        2.920    -0.037    28.929     8.820
     3   6 C        2.980     0.004    27.918     8.667
     4   6 C        2.922    -0.036    28.908     8.817
     5   6 C        2.979     0.004    27.930     8.669
     6   6 C        2.990     0.001    27.997     8.680
     7   6 C        2.922    -0.036    28.908     8.817
     8   6 C        2.920    -0.037    28.929     8.820
     9   6 C        2.979     0.004    27.930     8.669
    10   6 C        2.919    -0.037    28.918     8.818
    11   6 C        2.980     0.004    27.918     8.667
    12   6 C        2.990     0.001    27.997     8.680
    13   6 C        2.922    -0.037    28.923     8.819
    14   6 C        2.994     0.002    27.979     8.677
    15   6 C        2.987    -0.001    28.038     8.686
    16   6 C        2.926    -0.045    29.114     8.849
    17   6 C        2.993    -0.000    28.025     8.684
    18   6 C        2.926    -0.045    29.116     8.849
    19   6 C        2.912    -0.030    28.745     8.791
    20   6 C        2.976     0.006    27.874     8.660
    21   6 C        2.989     0.001    27.991     8.679
    22   6 C        2.985    -0.000    28.031     8.685
    23   6 C        2.980     0.012    27.732     8.638
    24   6 C        2.986     0.001    28.000     8.680
    25   6 C        2.987    -0.001    28.036     8.685
    26   6 C        2.975     0.012    27.747     8.640
    27   6 C        2.988     0.001    28.005     8.681
    28   6 C        2.974     0.012    27.735     8.639
    29   6 C        2.912    -0.030    28.745     8.791
    30   6 C        2.976     0.006    27.874     8.660
    31   6 C        2.980     0.012    27.732     8.638
    32   6 C        2.989     0.001    27.991     8.679
    33   6 C        2.986     0.001    28.000     8.680
    34   6 C        2.975     0.012    27.747     8.640
    35   6 C        2.985    -0.000    28.031     8.685
    36   6 C        2.987    -0.001    28.036     8.685
    37   6 C        2.988     0.001    28.005     8.681
    38   6 C        2.974     0.012    27.735     8.639
    39   6 C        2.922    -0.037    28.923     8.819
    40   6 C        2.994     0.002    27.979     8.677
    41   6 C        2.926    -0.045    29.114     8.849
    42   6 C        2.987    -0.001    28.038     8.686
    43   6 C        2.993    -0.000    28.025     8.684
    44   6 C        2.926    -0.045    29.116     8.849
    45   6 C        2.987    -0.001    28.036     8.686
    46   6 C        2.975     0.012    27.747     8.640
    47   6 C        2.920    -0.037    28.929     8.820
    48   6 C        2.988    -0.001    28.037     8.686
    49   6 C        2.926    -0.045    29.114     8.849
    50   6 C        2.988    -0.000    28.029     8.684
    51   6 C        2.994     0.002    27.979     8.677
    52   6 C        2.988     0.001    28.005     8.681
    53   6 C        2.979     0.004    27.930     8.669
    54   6 C        2.989    -0.001    28.047     8.687
    55   6 C        2.986     0.001    28.000     8.680
    56   6 C        2.988    -0.000    28.031     8.685
    57   6 C        2.980     0.012    27.732     8.638
    58   6 C        2.988    -0.001    28.037     8.686
    59   6 C        2.922    -0.037    28.923     8.819
    60   6 C        2.987    -0.001    28.036     8.685
    61   6 C        2.922    -0.036    28.908     8.817
    62   6 C        2.993    -0.000    28.021     8.683
    63   6 C        2.989     0.001    27.991     8.679
    64   6 C        2.989    -0.001    28.047     8.687
    65   6 C        2.976     0.006    27.874     8.660
    66   6 C        2.987    -0.001    28.036     8.686
    67   6 C        2.912    -0.030    28.745     8.791
    68   6 C        2.985    -0.000    28.031     8.685
    69   6 C        2.926    -0.045    29.116     8.849
    70   6 C        2.980     0.004    27.918     8.667
    71   6 C        2.993    -0.000    28.025     8.684
    72   6 C        2.919    -0.037    28.918     8.818
    73   6 C        2.987    -0.001    28.038     8.686
    74   6 C        2.990     0.001    27.997     8.680
    75   6 C        2.987    -0.001    28.036     8.686
    76   6 C        2.975     0.012    27.747     8.640
    77   6 C        2.920    -0.037    28.929     8.820
    78   6 C        2.989    -0.001    28.047     8.687
    79   6 C        2.986     0.001    28.000     8.680
    80   6 C        2.993    -0.000    28.021     8.683
    81   6 C        2.989     0.001    27.991     8.679
    82   6 C        2.926    -0.045    29.116     8.849
    83   6 C        2.980     0.004    27.918     8.667
    84   6 C        2.988    -0.001    28.037     8.686
    85   6 C        2.926    -0.045    29.114     8.849
    86   6 C        2.988    -0.000    28.031     8.685
    87   6 C        2.980     0.012    27.732     8.638
    88   6 C        2.989    -0.001    28.047     8.687
    89   6 C        2.976     0.006    27.874     8.660
    90   6 C        2.993    -0.000    28.025     8.684
    91   6 C        2.919    -0.037    28.918     8.818
    92   6 C        2.988    -0.000    28.029     8.684
    93   6 C        2.994     0.002    27.979     8.677
    94   6 C        2.988    -0.001    28.037     8.686
    95   6 C        2.922    -0.037    28.923     8.819
    96   6 C        2.987    -0.001    28.036     8.686
    97   6 C        2.912    -0.030    28.745     8.791
    98   6 C        2.987    -0.001    28.038     8.686
    99   6 C        2.988     0.001    28.005     8.681
   100   6 C        2.979     0.004    27.930     8.669
   101   6 C        2.987    -0.001    28.036     8.685
   102   6 C        2.922    -0.036    28.908     8.817
   103   6 C        2.985    -0.000    28.031     8.685
   104   6 C        2.990     0.001    27.997     8.680
   105   1 H        0.926     0.033     2.548     2.496
   106   1 H        0.926     0.033     2.544     2.494
   107   1 H        0.926     0.032     2.552     2.498
   108   1 H        0.926     0.032     2.552     2.498
   109   1 H        0.926     0.033     2.544     2.494
   110   1 H        0.926     0.033     2.548     2.496
   111   1 H        0.926     0.031     2.572     2.508
   112   1 H        0.926     0.032     2.563     2.503
   113   1 H        0.926     0.032     2.565     2.504
   114   1 H        0.926     0.029     2.594     2.519
   115   1 H        0.926     0.029     2.594     2.519
   116   1 H        0.926     0.031     2.572     2.508
   117   1 H        0.926     0.032     2.563     2.503
   118   1 H        0.926     0.032     2.565     2.504
   119   1 H        0.926     0.033     2.544     2.494
   120   1 H        0.926     0.032     2.563     2.503
   121   1 H        0.926     0.031     2.572     2.508
   122   1 H        0.926     0.032     2.552     2.498
   123   1 H        0.926     0.029     2.594     2.519
   124   1 H        0.926     0.032     2.565     2.504
   125   1 H        0.926     0.033     2.548     2.496
   126   1 H        0.926     0.033     2.544     2.494
   127   1 H        0.926     0.032     2.565     2.504
   128   1 H        0.926     0.032     2.563     2.503
   129   1 H        0.926     0.033     2.548     2.496
   130   1 H        0.926     0.031     2.572     2.508
   131   1 H        0.926     0.029     2.594     2.519
   132   1 H        0.926     0.032     2.552     2.498

 Mol. C6AA /au·bohr⁶  :     356793.248717
 Mol. C8AA /au·bohr⁸  :    9779530.203048
 Mol. α(0) /au        :        976.406612


Wiberg/Mayer (AO) data.
largest (>0.10) Wiberg bond orders for each atom

 ---------------------------------------------------------------------------
     #   Z sym  total        # sym  WBO       # sym  WBO       # sym  WBO
 ---------------------------------------------------------------------------
     1   6 C    3.969 --     8 C    1.482     9 C    1.351   105 H    0.961
     2   6 C    3.956 --    10 C    1.482    11 C    1.342   106 H    0.960
     3   6 C    3.965 --     8 C    1.342    12 C    1.277    11 C    1.147
     4   6 C    3.893 --    19 C    1.386    20 C    1.385   107 H    0.962
     5   6 C    3.952 --    10 C    1.351    21 C    1.275    20 C    1.133
     6   6 C    3.976 --    11 C    1.277    21 C    1.250    22 C    1.226
     7   6 C    3.893 --    29 C    1.386    30 C    1.385   108 H    0.962
     8   6 C    3.956 --     1 C    1.482     3 C    1.342   109 H    0.960
     9   6 C    3.952 --     1 C    1.351    32 C    1.275    30 C    1.133
    10   6 C    3.969 --     2 C    1.482     5 C    1.351   110 H    0.961
    11   6 C    3.965 --     2 C    1.342     6 C    1.277     3 C    1.147
    12   6 C    3.976 --     3 C    1.277    32 C    1.250    35 C    1.226
    13   6 C    3.899 --    19 C    1.504    23 C    1.273   111 H    0.969
    14   6 C    3.944 --    20 C    1.271    24 C    1.241    23 C    1.217
    15   6 C    3.941 --    25 C    1.286    21 C    1.230    24 C    1.217
    16   6 C    3.793 --    26 C    1.335    23 C    1.333   112 H    0.966
    17   6 C    3.944 --    24 C    1.298    27 C    1.253    26 C    1.175
    18   6 C    3.753 --    28 C    1.331    26 C    1.319   113 H    0.966
    19   6 C    3.983 --    13 C    1.504     4 C    1.386   114 H    0.970
    20   6 C    3.980 --     4 C    1.385    14 C    1.271     5 C    1.133
    21   6 C    3.980 --     5 C    1.275     6 C    1.250    15 C    1.230
    22   6 C    3.959 --    45 C    1.281    35 C    1.233     6 C    1.226
    23   6 C    3.985 --    16 C    1.333    13 C    1.273    14 C    1.217
    24   6 C    3.975 --    17 C    1.298    14 C    1.241    15 C    1.217
    25   6 C    3.970 --    15 C    1.286    54 C    1.248    45 C    1.215
    26   6 C    3.985 --    16 C    1.335    18 C    1.319    17 C    1.175
    27   6 C    3.973 --    62 C    1.276    17 C    1.253    54 C    1.229
    28   6 C    3.980 --    69 C    1.331    18 C    1.331    62 C    1.168
    29   6 C    3.983 --    39 C    1.504     7 C    1.386   115 H    0.970
    30   6 C    3.980 --     7 C    1.385    40 C    1.271     9 C    1.133
    31   6 C    3.985 --    41 C    1.333    39 C    1.273    40 C    1.217
    32   6 C    3.980 --     9 C    1.275    12 C    1.250    42 C    1.230
    33   6 C    3.975 --    43 C    1.298    40 C    1.241    42 C    1.217
    34   6 C    3.985 --    41 C    1.335    44 C    1.319    43 C    1.175
    35   6 C    3.959 --    75 C    1.281    22 C    1.233    12 C    1.226
    36   6 C    3.970 --    42 C    1.286    78 C    1.248    75 C    1.215
    37   6 C    3.973 --    80 C    1.276    43 C    1.253    78 C    1.229
    38   6 C    3.980 --    82 C    1.331    44 C    1.331    80 C    1.168
    39   6 C    3.899 --    29 C    1.504    31 C    1.273   116 H    0.969
    40   6 C    3.944 --    30 C    1.271    33 C    1.241    31 C    1.217
    41   6 C    3.793 --    34 C    1.335    31 C    1.333   117 H    0.966
    42   6 C    3.941 --    36 C    1.286    32 C    1.230    33 C    1.217
    43   6 C    3.944 --    33 C    1.298    37 C    1.253    34 C    1.175
    44   6 C    3.753 --    38 C    1.331    34 C    1.319   118 H    0.966
    45   6 C    3.960 --    22 C    1.281    84 C    1.247    25 C    1.215
    46   6 C    3.985 --    85 C    1.335    82 C    1.319    90 C    1.175
    47   6 C    3.956 --    91 C    1.482    83 C    1.342   119 H    0.960
    48   6 C    3.963 --    86 C    1.260    75 C    1.247    84 C    1.240
    49   6 C    3.793 --    76 C    1.335    87 C    1.333   120 H    0.966
    50   6 C    3.966 --    88 C    1.263    78 C    1.263    86 C    1.221
    51   6 C    3.944 --    89 C    1.271    79 C    1.241    87 C    1.217
    52   6 C    3.973 --    80 C    1.276    90 C    1.253    88 C    1.229
    53   6 C    3.952 --    91 C    1.351    81 C    1.275    89 C    1.133
    54   6 C    3.952 --    92 C    1.263    25 C    1.248    27 C    1.229
    55   6 C    3.975 --    90 C    1.298    93 C    1.241    98 C    1.217
    56   6 C    3.952 --    94 C    1.260    84 C    1.260    92 C    1.221
    57   6 C    3.985 --    85 C    1.333    95 C    1.273    93 C    1.217
    58   6 C    3.963 --    86 C    1.260    96 C    1.247    94 C    1.240
    59   6 C    3.899 --    97 C    1.504    87 C    1.273   121 H    0.969
    60   6 C    3.970 --    98 C    1.286    88 C    1.248    96 C    1.215
    61   6 C    3.893 --    97 C    1.386    89 C    1.385   122 H    0.962
    62   6 C    3.931 --    99 C    1.276    27 C    1.276    28 C    1.168
    63   6 C    3.980 --   100 C    1.275   104 C    1.250    98 C    1.230
    64   6 C    3.952 --    92 C    1.263   101 C    1.248    99 C    1.229
    65   6 C    3.980 --   102 C    1.385    93 C    1.271   100 C    1.133
    66   6 C    3.960 --   103 C    1.281    94 C    1.247   101 C    1.215
    67   6 C    3.983 --    95 C    1.504   102 C    1.386   123 H    0.970
    68   6 C    3.959 --    96 C    1.281   103 C    1.233   104 C    1.226
    69   6 C    3.753 --    28 C    1.331    76 C    1.319   124 H    0.966
    70   6 C    3.965 --    77 C    1.342   104 C    1.277    83 C    1.147
    71   6 C    3.944 --    79 C    1.298    99 C    1.253    76 C    1.175
    72   6 C    3.969 --    77 C    1.482   100 C    1.351   125 H    0.961
    73   6 C    3.941 --   101 C    1.286    81 C    1.230    79 C    1.217
    74   6 C    3.976 --    83 C    1.277    81 C    1.250   103 C    1.226
    75   6 C    3.960 --    35 C    1.281    48 C    1.247    36 C    1.215
    76   6 C    3.985 --    49 C    1.335    69 C    1.319    71 C    1.175
    77   6 C    3.956 --    72 C    1.482    70 C    1.342   126 H    0.960
    78   6 C    3.952 --    50 C    1.263    36 C    1.248    37 C    1.229
    79   6 C    3.975 --    71 C    1.298    51 C    1.241    73 C    1.217
    80   6 C    3.931 --    37 C    1.276    52 C    1.276    38 C    1.168
    81   6 C    3.980 --    53 C    1.275    74 C    1.250    73 C    1.230
    82   6 C    3.753 --    38 C    1.331    46 C    1.319   127 H    0.966
    83   6 C    3.965 --    47 C    1.342    74 C    1.277    70 C    1.147
    84   6 C    3.963 --    56 C    1.260    45 C    1.247    48 C    1.240
    85   6 C    3.793 --    46 C    1.335    57 C    1.333   128 H    0.966
    86   6 C    3.952 --    48 C    1.260    58 C    1.260    50 C    1.221
    87   6 C    3.985 --    49 C    1.333    59 C    1.273    51 C    1.217
    88   6 C    3.952 --    50 C    1.263    60 C    1.248    52 C    1.229
    89   6 C    3.980 --    61 C    1.385    51 C    1.271    53 C    1.133
    90   6 C    3.944 --    55 C    1.298    52 C    1.253    46 C    1.175
    91   6 C    3.969 --    47 C    1.482    53 C    1.351   129 H    0.961
    92   6 C    3.966 --    54 C    1.263    64 C    1.263    56 C    1.221
    93   6 C    3.944 --    65 C    1.271    55 C    1.241    57 C    1.217
    94   6 C    3.963 --    56 C    1.260    66 C    1.247    58 C    1.240
    95   6 C    3.899 --    67 C    1.504    57 C    1.273   130 H    0.969
    96   6 C    3.960 --    68 C    1.281    58 C    1.247    60 C    1.215
    97   6 C    3.983 --    59 C    1.504    61 C    1.386   131 H    0.970
    98   6 C    3.941 --    60 C    1.286    63 C    1.230    55 C    1.217
    99   6 C    3.973 --    62 C    1.276    71 C    1.253    64 C    1.229
   100   6 C    3.952 --    72 C    1.351    63 C    1.275    65 C    1.133
   101   6 C    3.970 --    73 C    1.286    64 C    1.248    66 C    1.215
   102   6 C    3.893 --    67 C    1.386    65 C    1.385   132 H    0.962
   103   6 C    3.959 --    66 C    1.281    68 C    1.233    74 C    1.226
   104   6 C    3.976 --    70 C    1.277    63 C    1.250    68 C    1.226
   105   1 H    0.998 --     1 C    0.961
   106   1 H    0.998 --     2 C    0.960
   107   1 H    0.998 --     4 C    0.962
   108   1 H    0.998 --     7 C    0.962
   109   1 H    0.998 --     8 C    0.960
   110   1 H    0.998 --    10 C    0.961
   111   1 H    0.998 --    13 C    0.969
   112   1 H    0.998 --    16 C    0.966
   113   1 H    0.998 --    18 C    0.966
   114   1 H    0.998 --    19 C    0.970
   115   1 H    0.998 --    29 C    0.970
   116   1 H    0.998 --    39 C    0.969
   117   1 H    0.998 --    41 C    0.966
   118   1 H    0.998 --    44 C    0.966
   119   1 H    0.998 --    47 C    0.960
   120   1 H    0.998 --    49 C    0.966
   121   1 H    0.998 --    59 C    0.969
   122   1 H    0.998 --    61 C    0.962
   123   1 H    0.998 --    67 C    0.970
   124   1 H    0.998 --    69 C    0.966
   125   1 H    0.998 --    72 C    0.961
   126   1 H    0.998 --    77 C    0.960
   127   1 H    0.998 --    82 C    0.966
   128   1 H    0.998 --    85 C    0.966
   129   1 H    0.998 --    91 C    0.961
   130   1 H    0.998 --    95 C    0.969
   131   1 H    0.998 --    97 C    0.970
   132   1 H    0.998 --   102 C    0.962
 ---------------------------------------------------------------------------

Topologies differ in total number of bonds
Writing topology from bond orders to xtbtopo.mol

molecular dipole:
                 x           y           z       tot (Debye)
 q only:        0.000       0.000       0.000
   full:        0.000       0.000       0.000       0.000
molecular quadrupole (traceless):
                xx          xy          yy          xz          yz          zz
 q only:        8.132      -0.000      14.799       0.003      -0.000     -22.932
  q+dip:       35.634      -0.000      43.351       0.005      -0.000     -78.985
   full:       16.194      -0.000      21.988       0.011      -0.000     -38.182


           -------------------------------------------------
          | TOTAL ENERGY             -237.748218429501 Eh   |
          | GRADIENT NORM               0.000350175268 Eh/α |
          | HOMO-LUMO GAP               0.002505264597 eV   |
           -------------------------------------------------

------------------------------------------------------------------------
 * finished run on 2025/12/08 at 00:30:03.204     
------------------------------------------------------------------------
 total:
 * wall-time:     0 d,  0 h,  0 min,  0.277 sec
 *  cpu-time:     0 d,  0 h,  0 min,  3.703 sec
 * ratio c/w:    13.369 speedup
 SCF:
 * wall-time:     0 d,  0 h,  0 min,  0.218 sec
 *  cpu-time:     0 d,  0 h,  0 min,  2.984 sec
 * ratio c/w:    13.690 speedup

normal termination of xtb
