      -----------------------------------------------------------      
     |                   =====================                   |     
     |                           x T B                           |     
     |                   =====================                   |     
     |                         S. Grimme                         |     
     |          Mulliken Center for Theoretical Chemistry        |     
     |                    University of Bonn                     |     
      -----------------------------------------------------------      

   * xtb version 6.7.1pre (5071a88) compiled by 'Marcel@Raven' on 2024-07-23

   xtb is free software: you can redistribute it and/or modify it under
   the terms of the GNU Lesser General Public License as published by
   the Free Software Foundation, either version 3 of the License, or
   (at your option) any later version.
   
   xtb is distributed in the hope that it will be useful,
   but WITHOUT ANY WARRANTY; without even the implied warranty of
   MERCHANTABILITY or FITNESS FOR A PARTICULAR PURPOSE.  See the
   GNU Lesser General Public License for more details.
   
   Cite this work as:
   * C. Bannwarth, E. Caldeweyher, S. Ehlert, A. Hansen, P. Pracht,
     J. Seibert, S. Spicher, S. Grimme, WIREs Comput. Mol. Sci., 2020, 11,
     e01493. DOI: 10.1002/wcms.1493
   
   for GFN2-xTB:
   * C. Bannwarth, S. Ehlert and S. Grimme., J. Chem. Theory Comput., 2019,
     15, 1652-1671. DOI: 10.1021/acs.jctc.8b01176
   for GFN1-xTB:
   * S. Grimme, C. Bannwarth, P. Shushkov, J. Chem. Theory Comput., 2017,
     13, 1989-2009. DOI: 10.1021/acs.jctc.7b00118
   for GFN0-xTB:
   * P. Pracht, E. Caldeweyher, S. Ehlert, S. Grimme, ChemRxiv, 2019, preprint.
     DOI: 10.26434/chemrxiv.8326202.v1
   for GFN-FF:
   * S. Spicher and S. Grimme, Angew. Chem. Int. Ed., 2020, 59, 15665-15673.
     DOI: 10.1002/anie.202004239
   
   for ALPB and GBSA implicit solvation:
   * S. Ehlert, M. Stahn, S. Spicher, S. Grimme, J. Chem. Theory Comput.,
     2021, 17, 4250-4261. DOI: 10.1021/acs.jctc.1c00471
   
   for ddCOSMO and CPCM-X implicit solvation:
   * M. Stahn, S. Ehlert, S. Grimme, J. Phys. Chem. A,
     2023, XX, XXXX-XXXX. DOI: 10.1021/acs.jpca.3c04382
   
   for DFT-D4:
   * E. Caldeweyher, C. Bannwarth and S. Grimme, J. Chem. Phys., 2017,
     147, 034112. DOI: 10.1063/1.4993215
   * E. Caldeweyher, S. Ehlert, A. Hansen, H. Neugebauer, S. Spicher,
     C. Bannwarth and S. Grimme, J. Chem. Phys., 2019, 150, 154122.
     DOI: 10.1063/1.5090222
   * E. Caldeweyher, J.-M. Mewes, S. Ehlert and S. Grimme, Phys. Chem. Chem. Phys.
     2020, 22, 8499-8512. DOI: 10.1039/D0CP00502A
   
   for sTDA-xTB:
   * S. Grimme and C. Bannwarth, J. Chem. Phys., 2016, 145, 054103.
     DOI: 10.1063/1.4959605
   
   in the mass-spec context:
   * V. Asgeirsson, C. Bauer and S. Grimme, Chem. Sci., 2017, 8, 4879.
     DOI: 10.1039/c7sc00601b
   * J. Koopman and S. Grimme, ACS Omega 2019, 4, 12, 15120-15133.
     DOI: 10.1021/acsomega.9b02011
   
   for metadynamics refer to:
   * S. Grimme, J. Chem. Theory Comput., 2019, 155, 2847-2862
     DOI: 10.1021/acs.jctc.9b00143
   
   for SPH calculations refer to:
   * S. Spicher and S. Grimme, J. Chem. Theory Comput., 2021, 17, 1701-1714
     DOI: 10.1021/acs.jctc.0c01306
   
   for ONIOM refer to:
   * C. Plett, A. Katbashev, S. Ehlert, S. Grimme, M. Bursch,
     Phys. Chem. Chem. Phys., 2023, 25, 17860-17868. DOI: 10.1039/D3CP02178E
   
   for DIPRO refer to:
   * J. Kohn, N. Gildemeister, S. Grimme, D. Fazzi, A. Hansen,
     J. Chem. Phys., 2023, just accepted.
   
   for PTB refer to:
   * S. Grimme, M. Mueller, A. Hansen, J. Chem. Phys., 2023, 158, 124111.
     DOI: 10.1063/5.0137838
   
   with help from (in alphabetical order)
   P. Atkinson, C. Bannwarth, F. Bohle, G. Brandenburg, E. Caldeweyher
   M. Checinski, S. Dohm, S. Ehlert, S. Ehrlich, I. Gerasimov, C. Hölzer
   A. Katbashev, J. Kohn, J. Koopman, C. Lavigne, S. Lehtola, F. März, M. Müller,
   F. Musil, H. Neugebauer, J. Pisarek, C. Plett, P. Pracht, F. Pultar,
   J. Seibert, P. Shushkov, S. Spicher, M. Stahn, M. Steiner, T. Strunk,
   J. Stückrath, T. Rose, and J. Unsleber
   
 * started run on 2025/12/08 at 00:29:58.662     
   ID    Z sym.   atoms
    1    6 C      1-104
    2    1 H      105-132

           -------------------------------------------------
          |                Calculation Setup                |
           -------------------------------------------------

          program call               : xtb "C:\Users\LENOVO GAMING\Documents\GitHub\molecular-conductivity-sim\dataset\1.5nm-0pure-0percent.xyz" --opt --parallel 4
          coordinate file            : C:\Users\LENOVO GAMING\Documents\GitHub\molecular-conductivity-sim\dataset\1.5nm-0pure-0percent.xyz
          omp threads                :                     4


           -------------------------------------------------
          |                 G F N 2 - x T B                 |
           -------------------------------------------------

        Reference                      10.1021/acs.jctc.8b01176
      * Hamiltonian:
        H0-scaling (s, p, d)           1.850000    2.230000    2.230000
        zeta-weighting                 0.500000
      * Dispersion:
        s8                             2.700000
        a1                             0.520000
        a2                             5.000000
        s9                             5.000000
      * Repulsion:
        kExp                           1.500000    1.000000
        rExp                           1.000000
      * Coulomb:
        alpha                          2.000000
        third order                    shell-resolved
        anisotropic                    true
        a3                             3.000000
        a5                             4.000000
        cn-shift                       1.200000
        cn-exp                         4.000000
        max-rad                        5.000000


          ...................................................
          :                      SETUP                      :
          :.................................................:
          :  # basis functions                 444          :
          :  # atomic orbitals                 444          :
          :  # shells                          236          :
          :  # electrons                       444          :
          :  max. iterations                   250          :
          :  Hamiltonian                  GFN2-xTB          :
          :  restarted?                      false          :
          :  GBSA solvation                  false          :
          :  PC potential                    false          :
          :  electronic temp.          300.0000000     K    :
          :  accuracy                    1.0000000          :
          :  -> integral cutoff          0.2500000E+02      :
          :  -> integral neglect         0.1000000E-07      :
          :  -> SCF convergence          0.1000000E-05 Eh   :
          :  -> wf. convergence          0.1000000E-03 e    :
          :  Broyden damping             0.4000000          :
          :  net charge                          0          :
          :  unpaired electrons                  0          :
          ...................................................

 iter      E             dE          RMSdq      gap      omega  full diag
   1   -242.0920702 -0.242092E+03  0.497E+00    0.00       0.0  T
   2   -242.1259232 -0.338529E-01  0.296E+00    0.00       1.0  T
   3   -241.9593032  0.166620E+00  0.914E-01    0.02       1.0  T
   4   -242.1381972 -0.178894E+00  0.226E-01    0.01       1.0  T
   5   -241.9581122  0.180085E+00  0.803E-01    0.21       1.0  T
   6   -241.9823231 -0.242109E-01  0.749E-01    0.16       1.0  T
   7   -242.1434626 -0.161139E+00  0.986E-02    0.01       1.0  T
   8   -242.1459378 -0.247524E-02  0.243E-02    0.00       1.0  T
   9   -242.1436592  0.227866E-02  0.886E-02    0.01       1.0  T
  10   -242.1455293 -0.187014E-02  0.421E-02    0.01       1.0  T
  11   -242.1459629 -0.433630E-03  0.176E-02    0.00       1.0  T
  12   -242.1460414 -0.784861E-04  0.700E-03    0.00       1.2  T
  13   -242.1460536 -0.122153E-04  0.244E-03    0.00       3.6  T
  14   -242.1460545 -0.835050E-06  0.177E-03    0.00       4.9  T
  15   -242.1460554 -0.887279E-06  0.388E-04    0.00      22.4  T
  16   -242.1460554  0.212700E-08  0.385E-04    0.00      22.6  T

   *** convergence criteria satisfied after 16 iterations ***

         #    Occupation            Energy/Eh            Energy/eV
      -------------------------------------------------------------
         1        2.0000           -0.6582011             -17.9106
       ...           ...                  ...                  ...
       216        2.0000           -0.3818788             -10.3915
       217        2.0000           -0.3787797             -10.3071
       218        2.0000           -0.3735593             -10.1651
       219        2.0000           -0.3648864              -9.9291
       220        2.0000           -0.3571895              -9.7196
       221        1.9998           -0.3332445              -9.0680
       222        1.0250           -0.3245315              -8.8310 (HOMO)
       223        0.9751           -0.3244367              -8.8284 (LUMO)
       224        0.0000           -0.3140164              -8.5448
       225                         -0.2874865              -7.8229
       226                         -0.2787673              -7.5856
       227                         -0.2680254              -7.2933
       ...                                ...                  ...
       444                          0.7510830              20.4380
      -------------------------------------------------------------
                  HL-Gap            0.0000948 Eh            0.0026 eV
             Fermi-level           -0.3244840 Eh           -8.8297 eV

 SCC (total)                   0 d,  0 h,  0 min,  0.802 sec
 SCC setup                      ...        0 min,  0.002 sec (  0.249%)
 Dispersion                     ...        0 min,  0.008 sec (  0.998%)
 classical contributions        ...        0 min,  0.000 sec (  0.000%)
 integral evaluation            ...        0 min,  0.035 sec (  4.364%)
 iterations                     ...        0 min,  0.635 sec ( 79.177%)
 molecular gradient             ...        0 min,  0.119 sec ( 14.838%)
 printout                       ...        0 min,  0.003 sec (  0.374%)

         :::::::::::::::::::::::::::::::::::::::::::::::::::::
         ::                     SUMMARY                     ::
         :::::::::::::::::::::::::::::::::::::::::::::::::::::
         :: total energy            -237.732592763087 Eh    ::
         :: gradient norm              0.041101589148 Eh/a0 ::
         :: HOMO-LUMO gap              0.002579785774 eV    ::
         ::.................................................::
         :: SCC energy              -242.153976895274 Eh    ::
         :: -> isotropic ES            0.001814884770 Eh    ::
         :: -> anisotropic ES          0.013410626598 Eh    ::
         :: -> anisotropic XC          0.097452832956 Eh    ::
         :: -> dispersion             -0.286295384560 Eh    ::
         :: repulsion energy           4.421384132187 Eh    ::
         :: add. restraining           0.000000000000 Eh    ::
         :: total charge               0.000000000002 e     ::
         :::::::::::::::::::::::::::::::::::::::::::::::::::::

      ----------------------------------------------------------- 
     |                   =====================                   |
     |                        A N C O P T                        |
     |                   =====================                   |
     |               Approximate Normal Coordinate               |
     |                Rational Function Optimizer                |
      ----------------------------------------------------------- 
      ----------------------------------------------------------- 
     |                   =====================                   |
     |                        A N C O P T                        |
     |                   =====================                   |
     |               Approximate Normal Coordinate               |
     |                Rational Function Optimizer                |
      ----------------------------------------------------------- 

          ...................................................
          :                      SETUP                      :
          :.................................................:
          :   optimization level            normal          :
          :   max. optcycles                   396          :
          :   ANC micro-cycles                  20          :
          :   degrees of freedom               390          :
          :.................................................:
          :   RF solver                   davidson          :
          :   write xtbopt.log                true          :
          :   linear?                        false          :
          :   energy convergence         0.5000000E-05 Eh   :
          :   grad. convergence          0.1000000E-02 Eh/α :
          :   maxmium RF displ.          1.0000000          :
          :   Hlow (freq-cutoff)         0.1000000E-01      :
          :   Hmax (freq-cutoff)         5.0000000          :
          :   S6 in model hess.         20.0000000          :
          ...................................................

generating ANC from exact Hessian ...
Using Lindh-Hessian (1995)
 Shifting diagonal of input Hessian by   9.883585462790782E-003
 Lowest  eigenvalues of input Hessian
    0.000000    0.000000    0.000000    0.000000    0.000000    0.000000
    0.010000    0.010142    0.010221    0.010413    0.010493    0.011287
    0.011371    0.011536    0.011818    0.012230    0.012948    0.013152
 Highest eigenvalues
    2.081276    2.085010    2.085037    2.118590    2.127806    2.143566
 

........................................................................
.............................. CYCLE    1 ..............................
........................................................................

 iter      E             dE          RMSdq      gap      omega  full diag
   1   -242.1460554 -0.242146E+03  0.356E-04    0.00       0.0  T
   2   -242.1460141  0.412182E-04  0.119E-02    0.00       1.0  T
   3   -242.1460554 -0.412542E-04  0.558E-05    0.00     155.9  T
   4   -242.1460554  0.228994E-09  0.629E-05    0.00     138.4  T
   5   -242.1460554 -0.392333E-09  0.481E-05    0.00     180.8  T
     SCC iter.                  ...        0 min,  0.211 sec
     gradient                   ...        0 min,  0.129 sec
 * total energy  :  -237.7325928 Eh     change       -0.4213064E-07 Eh
   gradient norm :     0.0411017 Eh/α   predicted     0.0000000E+00 (-100.00%)
   displ. norm   :     0.4984620 α      lambda       -0.1461415E-01
   maximum displ.:     0.4388196 α      in ANC's #46, #70, #31, ...

........................................................................
.............................. CYCLE    2 ..............................
........................................................................

 iter      E             dE          RMSdq      gap      omega  full diag
   1   -242.2957490 -0.242296E+03  0.102E-01    0.00       0.0  T
   2   -242.2957551 -0.612196E-05  0.618E-02    0.00       1.0  T
   3   -242.2936894  0.206571E-02  0.848E-02    0.01       1.0  T
   4   -242.2716070  0.220825E-01  0.287E-01    0.04       1.0  T
   5   -242.2957605 -0.241535E-01  0.344E-03    0.00       2.5  T
   6   -242.2957619 -0.135781E-05  0.164E-03    0.00       5.3  T
   7   -242.2957621 -0.260165E-06  0.840E-04    0.00      10.4  T
   8   -242.2957619  0.198834E-06  0.122E-03    0.00       7.1  T
   9   -242.2957622 -0.247864E-06  0.433E-04    0.00      20.1  T
     SCC iter.                  ...        0 min,  0.373 sec
     gradient                   ...        0 min,  0.116 sec
 * total energy  :  -237.7435163 Eh     change       -0.1092346E-01 Eh
   gradient norm :     0.0173297 Eh/α   predicted    -0.9122698E-02 ( -16.49%)
   displ. norm   :     0.4902418 α      lambda       -0.6745759E-02
   maximum displ.:     0.4502009 α      in ANC's #46, #22, #31, ...

........................................................................
.............................. CYCLE    3 ..............................
........................................................................

 iter      E             dE          RMSdq      gap      omega  full diag
   1   -242.4167472 -0.242417E+03  0.865E-02    0.00       0.0  T
   2   -242.4167472  0.166295E-09  0.529E-02    0.00       1.0  T
   3   -242.3989685  0.177787E-01  0.247E-01    0.03       1.0  T
   4   -242.4139650 -0.149965E-01  0.983E-02    0.01       1.0  T
   5   -242.4167536 -0.278858E-02  0.277E-03    0.00       3.1  T
   6   -242.4167545 -0.876124E-06  0.166E-03    0.00       5.3  T
   7   -242.4167544  0.790235E-07  0.177E-03    0.00       4.9  T
   8   -242.4167549 -0.514567E-06  0.698E-04    0.00      12.5  T
   9   -242.4167550 -0.429730E-07  0.404E-04    0.00      21.5  T
     SCC iter.                  ...        0 min,  0.385 sec
     gradient                   ...        0 min,  0.107 sec
 * total energy  :  -237.7477655 Eh     change       -0.4249283E-02 Eh
   gradient norm :     0.0059891 Eh/α   predicted    -0.4183905E-02 (  -1.54%)
   displ. norm   :     0.2005889 α      lambda       -0.7924126E-03
   maximum displ.:     0.1782980 α      in ANC's #46, #22, #31, ...

........................................................................
.............................. CYCLE    4 ..............................
........................................................................

 iter      E             dE          RMSdq      gap      omega  full diag
   1   -242.4536182 -0.242454E+03  0.367E-02    0.00       0.0  T
   2   -242.4536043  0.138573E-04  0.241E-02    0.00       1.0  T
   3   -242.4055319  0.480725E-01  0.405E-01    0.06       1.0  T
   4   -242.4535079 -0.479760E-01  0.202E-02    0.00       1.0  T
   5   -242.4536193 -0.111436E-03  0.300E-03    0.00       2.9  T
   6   -242.4536183  0.102916E-05  0.370E-03    0.00       2.4  T
   7   -242.4536210 -0.274785E-05  0.771E-04    0.00      11.3  T
   8   -242.4536211 -0.123116E-06  0.259E-04    0.00      33.6  T
   9   -242.4536211  0.814421E-07  0.559E-04    0.00      15.6  T
     SCC iter.                  ...        0 min,  0.398 sec
     gradient                   ...        0 min,  0.103 sec
 * total energy  :  -237.7482006 Eh     change       -0.4350175E-03 Eh
   gradient norm :     0.0022447 Eh/α   predicted    -0.4124379E-03 (  -5.19%)
   displ. norm   :     0.0295181 α      lambda       -0.2512578E-04
   maximum displ.:     0.0193959 α      in ANC's #22, #46, #31, ...

........................................................................
.............................. CYCLE    5 ..............................
........................................................................

 iter      E             dE          RMSdq      gap      omega  full diag
   1   -242.4547834 -0.242455E+03  0.755E-03    0.00       0.0  T
   2   -242.4547661  0.173367E-04  0.901E-03    0.00       1.0  T
   3   -242.4528481  0.191800E-02  0.815E-02    0.01       1.0  T
   4   -242.4547798 -0.193172E-02  0.412E-03    0.00       2.1  T
   5   -242.4547825 -0.274290E-05  0.221E-03    0.00       3.9  T
   6   -242.4547835 -0.100110E-05  0.316E-04    0.00      27.5  T
   7   -242.4547835 -0.174412E-07  0.110E-04    0.00      79.2  T
   8   -242.4547835  0.126718E-08  0.124E-04    0.00      70.0  T
     SCC iter.                  ...        0 min,  0.350 sec
     gradient                   ...        0 min,  0.134 sec
 * total energy  :  -237.7482164 Eh     change       -0.1582247E-04 Eh
   gradient norm :     0.0010056 Eh/α   predicted    -0.1277385E-04 ( -19.27%)
   displ. norm   :     0.0166244 α      lambda       -0.3635931E-05
   maximum displ.:     0.0127580 α      in ANC's #22, #31, #114, ...

........................................................................
.............................. CYCLE    6 ..............................
........................................................................

 iter      E             dE          RMSdq      gap      omega  full diag
   1   -242.4536491 -0.242454E+03  0.455E-03    0.00       0.0  T
   2   -242.4536477  0.142762E-05  0.352E-03    0.00       2.5  T
   3   -242.4521296  0.151805E-02  0.721E-02    0.01       1.0  T
   4   -242.4536487 -0.151905E-02  0.144E-03    0.00       6.0  T
   5   -242.4536488 -0.138166E-06  0.127E-03    0.00       6.9  T
   6   -242.4536491 -0.316858E-06  0.225E-04    0.00      38.6  T
   7   -242.4536491 -0.106790E-07  0.536E-05    0.00     162.2  T
     SCC iter.                  ...        0 min,  0.303 sec
     gradient                   ...        0 min,  0.114 sec
 * total energy  :  -237.7482184 Eh     change       -0.2043260E-05 Eh
   gradient norm :     0.0003504 Eh/α   predicted    -0.1825979E-05 ( -10.63%)
   displ. norm   :     0.0039020 α      lambda       -0.3823218E-06
   maximum displ.:     0.0021405 α      in ANC's #22, #31, #46, ...

   *** GEOMETRY OPTIMIZATION CONVERGED AFTER 6 ITERATIONS ***

------------------------------------------------------------------------
 total energy gain   :        -0.0156257 Eh       -9.8053 kcal/mol
 total RMSD          :         0.1039557 a0        0.0550 Å
 total power (kW/mol):        -6.8375301 (step)  -13.4157 (real)
------------------------------------------------------------------------

 ANCopt (total)                0 d,  0 h,  0 min,  3.058 sec
 optimizer setup                ...        0 min,  0.001 sec (  0.033%)
 model hessian                  ...        0 min,  0.066 sec (  2.158%)
 ANC generation                 ...        0 min,  0.017 sec (  0.556%)
 coordinate transformation      ...        0 min,  0.000 sec (  0.000%)
 single point calculation       ...        0 min,  2.957 sec ( 96.697%)
 optimization log               ...        0 min,  0.012 sec (  0.392%)
 hessian update                 ...        0 min,  0.001 sec (  0.033%)
 rational function              ...        0 min,  0.001 sec (  0.033%)

================
 final structure:
================
132
 xtb: 6.7.1pre (5071a88)
C           -2.82654460027723        7.31944661039772       -0.00089960310139
C            1.45524254224454        7.32061150482075        0.00049316865972
C           -0.72016444503483        6.13289565303908       -0.00018133553186
C            5.75473468329830        7.30719867970748        0.00264815071101
C            3.55788579247454        6.13151182741029        0.00095033271748
C            1.42452359559521        4.90836856075790        0.00021135575991
C           -5.75473641252956        7.30719830381650       -0.00269100674514
C           -1.45524422232652        7.32061138091922       -0.00047206881815
C           -3.55788683197674        6.13151175334538       -0.00095856678559
C            2.82654294148388        7.31944675277723        0.00091063103137
C            0.72016346413262        6.13289560307776        0.00019312058346
C           -1.42452382260136        4.90836843188178       -0.00021092826707
C            7.82064908501363        6.09252447822532        0.00104967287044
C            5.68622935130979        4.89382256440871        0.00027294047181
C            3.54550587690781        3.67344696354332       -0.00001501650855
C            7.78379388433243        3.65147761353523       -0.00119347608031
C            5.66277860460120        2.44788808215372       -0.00107724146134
C            7.77290857974513        1.21694088954869       -0.00243713101226
C            7.14482491822153        7.28451466609696        0.00252747772336
C            5.00448051993107        6.13243752991036        0.00131162581368
C            2.84543820526300        4.90864320403335        0.00040969617618
C            0.71051887179995        3.67833114395109        0.00000676411977
C            7.11169517241898        4.87449967524714       -0.00000265179367
C            4.96848961103185        3.67032745702929       -0.00033383230011
C            2.83659323239842        2.45550864794095       -0.00027894782101
C            7.09488413372019        2.43896077914685       -0.00165901168857
C            4.95618743477904        1.22285093066559       -0.00113897980724
C            7.09041381154315       -0.00000173596289       -0.00221451463806
C           -7.14482687278935        7.28451344636598       -0.00258503748566
C           -5.00448147251825        6.13243771161650       -0.00133786608579
C           -7.11169542804473        4.87449924865203       -0.00003890599273
C           -2.84543844518459        4.90864338728580       -0.00041748836046
C           -4.96848929624458        3.67032829100889        0.00031288912548
C           -7.09488376901002        2.43896196076530        0.00162908700052
C           -0.71051846335795        3.67833120180849       -0.00000888828355
C           -2.83659252759388        2.45550886402377        0.00026978300231
C           -4.95618685442007        1.22285202566512        0.00112541765840
C           -7.09041411405453        0.00000014765962        0.00219779359433
C           -7.82065030291705        6.09252285142643       -0.00110508003175
C           -5.68622974140515        4.89382286747031       -0.00030205420565
C           -7.78379370907820        3.65147772212217        0.00115245561333
C           -3.54550564259860        3.67344716123812        0.00000122294088
C           -5.66277830775334        2.44788927056707        0.00105574015150
C           -7.77290861552376        1.21694284435007        0.00240971255753
C            1.41340967121053        2.45605189472307       -0.00007105338522
C           -7.09488330615290       -2.43896212445889        0.00158488941498
C            1.45524408103145       -7.32061176178164        0.00053949750136
C           -0.70878651547915        1.22673112355750        0.00011164664278
C            7.78379172616442       -3.65147654590686       -0.00107361107796
C           -2.83267513700657       -0.00000013974000        0.00053831059604
C            5.68622972926788       -4.89382104077557        0.00039811189217
C           -4.95618658052876       -1.22285193063635        0.00110922375525
C            3.55788716402331       -6.13151191334023        0.00105246071695
C            3.53702614204617        1.22475208883047       -0.00063020741282
C           -4.96848865343245       -3.67032874966641        0.00026403129741
C            1.41190267813747       -0.00000031612948       -0.00017937300874
C           -7.11169484628555       -4.87450036238632       -0.00012854810123
C           -0.70878640412874       -1.22673156129651        0.00011211554093
C            7.82064995179138       -6.09251950866815        0.00125672136843
C           -2.83659214676494       -2.45550930194843        0.00025167571858
C            5.75473824445918       -7.30719404688901        0.00285569848029
C            5.65711148182797       -0.00000121018696       -0.00151312461417
C           -2.84543766272581       -4.90864414520990       -0.00045610133087
C            3.53702578296532       -1.22475293985778       -0.00060818365780
C           -5.00448053819794       -6.13243880419011       -0.00142465470308
C            1.41340964919557       -2.45605256797177       -0.00004926971497
C           -7.14482644603499       -7.28451504651641       -0.00272405343494
C           -0.71051803237783       -3.67833185697502       -0.00000921055577
C            7.77290710409816       -1.21694421120577       -0.00239749311905
C           -0.72016355797971       -6.13289649183958       -0.00018828570873
C            5.66277754718458       -2.44788925094355       -0.00101552989390
C           -2.82654386396512       -7.31944754395033       -0.00095719824203
C            3.54550570112458       -3.67344767683604        0.00005050090428
C            1.42452421012365       -4.90836919330137        0.00025016290897
C           -1.41340885282508        2.45605187377061        0.00006620027458
C            7.09488240077421       -2.43896207318135       -0.00158544922670
C           -1.45524338463064       -7.32061217843278       -0.00050183749438
C           -3.53702538855242        1.22475236836662        0.00062181646570
C            4.96848876586617       -3.67032772732866       -0.00025043417561
C           -5.65711145450653        0.00000005598930        0.00150252181669
C            2.84543871842049       -4.90864390945939        0.00048034054231
C           -7.77290835893855       -1.21694274384371        0.00238585909482
C            0.72016440750528       -6.13289625233486        0.00021948011871
C            0.70878770413389        1.22673102640480       -0.00011407302971
C           -7.78379318895390       -3.65147839049316        0.00108053607817
C           -1.41190148760531       -0.00000020781341        0.00017965311856
C            7.11169477132274       -4.87449697521102        0.00014786755211
C           -3.53702509220882       -1.22475271278517        0.00061035490152
C            5.00448193571903       -6.13243556969772        0.00145714337417
C           -5.66277773875344       -2.44788946025281        0.00101936005886
C            2.82654450460118       -7.31944682443849        0.00099534727443
C            2.83267608640315       -0.00000035124174       -0.00054027507874
C           -5.68622894058612       -4.89382368500071       -0.00037652717442
C            0.70878773178585       -1.22673164638047       -0.00010662856920
C           -7.82064988697765       -6.09252411706815       -0.00122684393610
C           -1.41340848098974       -2.45605243791451        0.00006025043994
C            7.14482773251761       -7.28450991811980        0.00276640200609
C           -3.54550491472320       -3.67344778359488       -0.00003448870876
C            4.95618668524957       -1.22285240159451       -0.00111047522094
C           -3.55788595832704       -6.13151270316155       -0.00102050919856
C            2.83659307657717       -2.45550944855494       -0.00024194480439
C           -5.75473559368736       -7.30719944318762       -0.00281226400082
C            0.71051919146178       -3.67833186667755        0.00002677671558
C           -1.42452307474927       -4.90836921321955       -0.00022582174833
H           -3.33206701527796        8.27108401590856       -0.00106666138222
H            0.95429050904242        8.27434992567004        0.00041984211170
H            5.26886783999806        8.26896846263406        0.00388869990893
H           -5.26886983150406        8.26896844089958       -0.00393499944737
H           -0.95429259623679        8.27435000943312       -0.00038424161264
H            3.33206483225738        8.27108439003050        0.00108591632734
H            8.90041683087736        6.06631504788901        0.00081441542629
H            8.86447836072437        3.64326501859196       -0.00156133880849
H            8.85349721788101        1.21512790789815       -0.00298025336775
H            7.68836615242658        8.21826685696881        0.00357654460386
H           -7.68836891093323        8.21826526631853       -0.00364710294960
H           -8.90041832745122        6.06631212033127       -0.00087995790619
H           -8.86447843753718        3.64326401401045        0.00151179598633
H           -8.85349721336508        1.21512911019654        0.00294689379383
H            0.95429212068446       -8.27435041153863        0.00045316538162
H            8.86447687688150       -3.64326329587199       -0.00142654315267
H            8.90041819931242       -6.06630959443650        0.00104190108048
H            5.26887240623336       -8.26896491270314        0.00412433969543
H           -7.68836800926828       -8.21826682859448       -0.00381292063339
H            8.85349607230912       -1.21513085572009       -0.00293592647411
H           -3.33206651119077       -8.27108495189841       -0.00114047658624
H           -0.95429169254248       -8.27435072409642       -0.00041071965758
H           -8.85349696248862       -1.21512952458645        0.00292015967321
H           -8.86447791582524       -3.64326459650322        0.00143130518225
H            3.33206627196194       -8.27108449071827        0.00118351328881
H           -8.90041789286161       -6.06631265145101       -0.00101345681315
H            7.68836958351700       -8.21826244380131        0.00386410002048
H           -5.26886846154453       -8.26896940635653       -0.00407088540843
 
 Bond Distances (Angstroems)
 ---------------------------
C1-C8=1.3713         C1-C9=1.3950         C1-H105=1.0776       C2-C10=1.3713        C2-C11=1.3968        C2-H106=1.0773       
C3-C8=1.3968         C3-C11=1.4403        C3-C12=1.4127        C4-C19=1.3903        C4-C20=1.3939        C4-H107=1.0775       
C5-C10=1.3950        C5-C20=1.4466        C5-C21=1.4153        C6-C11=1.4127        C6-C21=1.4209        C6-C22=1.4223        
C7-C29=1.3903        C7-C30=1.3939        C7-H108=1.0775       C8-C1=1.3713         C8-C3=1.3968         C8-H109=1.0773       
C9-C1=1.3950         C9-C30=1.4466        C9-C32=1.4153        C10-C2=1.3713        C10-C5=1.3950        C10-H110=1.0776      
C11-C2=1.3968        C11-C3=1.4403        C11-C6=1.4127        C12-C3=1.4127        C12-C32=1.4209       C12-C35=1.4223       
C13-C19=1.3702       C13-C23=1.4093       C13-H111=1.0801      C14-C20=1.4138       C14-C23=1.4256       C14-C24=1.4185       
C15-C21=1.4198       C15-C24=1.4230       C15-C25=1.4092       C16-C23=1.3955       C16-C26=1.3946       C16-H112=1.0807      
C17-C24=1.4058       C17-C26=1.4321       C17-C27=1.4142       C18-C26=1.3975       C18-C28=1.3953       C18-H113=1.0806      
C19-C4=1.3903        C19-C13=1.3702       C19-H114=1.0804      C20-C4=1.3939        C20-C5=1.4466        C20-C14=1.4138       
C21-C5=1.4153        C21-C6=1.4209        C21-C15=1.4198       C22-C6=1.4223        C22-C35=1.4210       C22-C45=1.4100       
C23-C13=1.4093       C23-C14=1.4256       C23-C16=1.3955       C24-C14=1.4185       C24-C15=1.4230       C24-C17=1.4058       
C25-C15=1.4092       C25-C45=1.4232       C25-C54=1.4161       C26-C16=1.3946       C26-C17=1.4321       C26-C18=1.3975       
C27-C17=1.4142       C27-C54=1.4192       C27-C62=1.4095       C28-C18=1.3953       C28-C62=1.4333       C28-C69=1.3953       
C29-C7=1.3903        C29-C39=1.3702       C29-H115=1.0804      C30-C7=1.3939        C30-C9=1.4466        C30-C40=1.4138       
C31-C39=1.4093       C31-C40=1.4256       C31-C41=1.3955       C32-C9=1.4153        C32-C12=1.4209       C32-C42=1.4198       
C33-C40=1.4185       C33-C42=1.4230       C33-C43=1.4058       C34-C41=1.3946       C34-C43=1.4321       C34-C44=1.3975       
C35-C12=1.4223       C35-C22=1.4210       C35-C75=1.4100       C36-C42=1.4092       C36-C75=1.4232       C36-C78=1.4161       
C37-C43=1.4142       C37-C78=1.4192       C37-C80=1.4095       C38-C44=1.3953       C38-C80=1.4333       C38-C82=1.3953       
C39-C29=1.3702       C39-C31=1.4093       C39-H116=1.0801      C40-C30=1.4138       C40-C31=1.4256       C40-C33=1.4185       
C41-C31=1.3955       C41-C34=1.3946       C41-H117=1.0807      C42-C32=1.4198       C42-C33=1.4230       C42-C36=1.4092       
C43-C33=1.4058       C43-C34=1.4321       C43-C37=1.4142       C44-C34=1.3975       C44-C38=1.3953       C44-H118=1.0806      
C45-C22=1.4100       C45-C25=1.4232       C45-C84=1.4169       C46-C82=1.3975       C46-C85=1.3946       C46-C90=1.4321       
C47-C83=1.3968       C47-C91=1.3713       C47-H119=1.0773      C48-C75=1.4169       C48-C84=1.4176       C48-C86=1.4139       
C49-C76=1.3946       C49-C87=1.3955       C49-H120=1.0807      C50-C78=1.4128       C50-C86=1.4208       C50-C88=1.4128       
C51-C79=1.4185       C51-C87=1.4256       C51-C89=1.4138       C52-C80=1.4095       C52-C88=1.4192       C52-C90=1.4142       
C53-C81=1.4153       C53-C89=1.4466       C53-C91=1.3950       C54-C25=1.4161       C54-C27=1.4192       C54-C92=1.4128       
C55-C90=1.4058       C55-C93=1.4185       C55-C98=1.4230       C56-C84=1.4139       C56-C92=1.4208       C56-C94=1.4139       
C57-C85=1.3955       C57-C93=1.4256       C57-C95=1.4093       C58-C86=1.4139       C58-C94=1.4176       C58-C96=1.4169       
C59-C87=1.4093       C59-C97=1.3702       C59-H121=1.0801      C60-C88=1.4161       C60-C96=1.4232       C60-C98=1.4092       
C61-C89=1.3939       C61-C97=1.3903       C61-H122=1.0775      C62-C27=1.4095       C62-C28=1.4333       C62-C99=1.4095       
C63-C98=1.4198       C63-C100=1.4153      C63-C104=1.4209      C64-C92=1.4128       C64-C99=1.4192       C64-C101=1.4161      
C65-C93=1.4138       C65-C100=1.4466      C65-C102=1.3939      C66-C94=1.4169       C66-C101=1.4232      C66-C103=1.4100      
C67-C95=1.3702       C67-C102=1.3903      C67-H123=1.0804      C68-C96=1.4100       C68-C103=1.4210      C68-C104=1.4223      
C69-C28=1.3953       C69-C76=1.3975       C69-H124=1.0806      C70-C77=1.3968       C70-C83=1.4403       C70-C104=1.4127      
C71-C76=1.4321       C71-C79=1.4058       C71-C99=1.4142       C72-C77=1.3713       C72-C100=1.3950      C72-H125=1.0776      
C73-C79=1.4230       C73-C81=1.4198       C73-C101=1.4092      C74-C81=1.4209       C74-C83=1.4127       C74-C103=1.4223      
C75-C35=1.4100       C75-C36=1.4232       C75-C48=1.4169       C76-C49=1.3946       C76-C69=1.3975       C76-C71=1.4321       
C77-C70=1.3968       C77-C72=1.3713       C77-H126=1.0773      C78-C36=1.4161       C78-C37=1.4192       C78-C50=1.4128       
C79-C51=1.4185       C79-C71=1.4058       C79-C73=1.4230       C80-C37=1.4095       C80-C38=1.4333       C80-C52=1.4095       
C81-C53=1.4153       C81-C73=1.4198       C81-C74=1.4209       C82-C38=1.3953       C82-C46=1.3975       C82-H127=1.0806      
C83-C47=1.3968       C83-C70=1.4403       C83-C74=1.4127       C84-C45=1.4169       C84-C48=1.4176       C84-C56=1.4139       
C85-C46=1.3946       C85-C57=1.3955       C85-H128=1.0807      C86-C48=1.4139       C86-C50=1.4208       C86-C58=1.4139       
C87-C49=1.3955       C87-C51=1.4256       C87-C59=1.4093       C88-C50=1.4128       C88-C52=1.4192       C88-C60=1.4161       
C89-C51=1.4138       C89-C53=1.4466       C89-C61=1.3939       C90-C46=1.4321       C90-C52=1.4142       C90-C55=1.4058       
C91-C47=1.3713       C91-C53=1.3950       C91-H129=1.0776      C92-C54=1.4128       C92-C56=1.4208       C92-C64=1.4128       
C93-C55=1.4185       C93-C57=1.4256       C93-C65=1.4138       C94-C56=1.4139       C94-C58=1.4176       C94-C66=1.4169       
C95-C57=1.4093       C95-C67=1.3702       C95-H130=1.0801      C96-C58=1.4169       C96-C60=1.4232       C96-C68=1.4100       
C97-C59=1.3702       C97-C61=1.3903       C97-H131=1.0804      C98-C55=1.4230       C98-C60=1.4092       C98-C63=1.4198       
C99-C62=1.4095       C99-C64=1.4192       C99-C71=1.4142       C100-C63=1.4153      C100-C65=1.4466      C100-C72=1.3950      
C101-C64=1.4161      C101-C66=1.4232      C101-C73=1.4092      C102-C65=1.3939      C102-C67=1.3903      C102-H132=1.0775     
C103-C66=1.4100      C103-C68=1.4210      C103-C74=1.4223      C104-C63=1.4209      C104-C68=1.4223      C104-C70=1.4127      
H105-C1=1.0776       H106-C2=1.0773       H107-C4=1.0775       H108-C7=1.0775       H109-C8=1.0773       H110-C10=1.0776      
H111-C13=1.0801      H112-C16=1.0807      H113-C18=1.0806      H114-C19=1.0804      H115-C29=1.0804      H116-C39=1.0801      
H117-C41=1.0807      H118-C44=1.0806      H119-C47=1.0773      H120-C49=1.0807      H121-C59=1.0801      H122-C61=1.0775      
H123-C67=1.0804      H124-C69=1.0806      H125-C72=1.0776      H126-C77=1.0773      H127-C82=1.0806      H128-C85=1.0807      
H129-C91=1.0776      H130-C95=1.0801      H131-C97=1.0804      H132-C102=1.0775     
 C  H  Rav=1.0792 sigma=0.0015  Rmin=1.0773  Rmax=1.0807    28
 C  C  Rav=1.4106 sigma=0.0159  Rmin=1.3702  Rmax=1.4466   142
 
 selected bond angles (degree)
 --------------------
C9-C1-C8=121.67                H105-C1-C8=117.93              H105-C1-C9=120.40              C11-C2-C10=121.70              
H106-C2-C10=117.76             H106-C2-C11=120.54             C11-C3-C8=121.75               C12-C3-C8=118.34               
C12-C3-C11=119.91              C20-C4-C19=121.63              H107-C4-C19=117.74             H107-C4-C20=120.63             
C20-C5-C10=121.58              C21-C5-C10=118.16              C21-C5-C20=120.26              C21-C6-C11=119.90              
C22-C6-C11=119.96              C22-C6-C21=120.15              C30-C7-C29=121.63              H108-C7-C29=117.74             
H108-C7-C30=120.63             C3-C8-C1=121.70                H109-C8-C1=117.76              H109-C8-C3=120.54              
C30-C9-C1=121.58               C32-C9-C1=118.16               C32-C9-C30=120.26              C5-C10-C2=121.67               
H110-C10-C2=117.93             H110-C10-C5=120.40             
 
 selected dihedral angles (degree)
 ---------------------------------
C3-C8-C1-C9=  0.00            C3-C8-C1-H105=180.00          H109-C8-C1-C9=180.00          H109-C8-C1-H105=  0.00        
C1-C8-C3-C11=180.00           C1-C8-C3-C12=  0.00           H109-C8-C3-C11=  0.00         H109-C8-C3-C12=180.00         
C30-C9-C1-C8=180.00           C30-C9-C1-H105=  0.00         C32-C9-C1-C8=  0.00           C32-C9-C1-H105=180.01         
C5-C10-C2-C11=  0.00          C5-C10-C2-H106=180.00         H110-C10-C2-C11=180.00        H110-C10-C2-H106=  0.00       
C2-C10-C5-C20=180.00          C2-C10-C5-C21=  0.00          H110-C10-C5-C20=  0.00        H110-C10-C5-C21=180.01        
           -------------------------------------------------
          |                Final Singlepoint                |
           -------------------------------------------------

          ...................................................
          :                      SETUP                      :
          :.................................................:
          :  # basis functions                 444          :
          :  # atomic orbitals                 444          :
          :  # shells                          236          :
          :  # electrons                       444          :
          :  max. iterations                   250          :
          :  Hamiltonian                  GFN2-xTB          :
          :  restarted?                      false          :
          :  GBSA solvation                  false          :
          :  PC potential                    false          :
          :  electronic temp.          300.0000000     K    :
          :  accuracy                    1.0000000          :
          :  -> integral cutoff          0.2500000E+02      :
          :  -> integral neglect         0.1000000E-07      :
          :  -> SCF convergence          0.1000000E-05 Eh   :
          :  -> wf. convergence          0.1000000E-03 e    :
          :  Broyden damping             0.4000000          :
          :  net charge                          0          :
          :  unpaired electrons                  0          :
          ...................................................

 iter      E             dE          RMSdq      gap      omega  full diag
   1   -242.4536491 -0.242454E+03  0.401E-05    0.00       0.0  T
   2   -242.4536489  0.206895E-06  0.841E-04    0.00      10.3  T
   3   -242.4536491 -0.205003E-06  0.974E-05    0.00      89.4  T

   *** convergence criteria satisfied after 3 iterations ***

         #    Occupation            Energy/Eh            Energy/eV
      -------------------------------------------------------------
         1        2.0000           -0.6619042             -18.0113
       ...           ...                  ...                  ...
       216        2.0000           -0.3828599             -10.4181
       217        2.0000           -0.3794914             -10.3265
       218        2.0000           -0.3748121             -10.1992
       219        2.0000           -0.3657375              -9.9522
       220        2.0000           -0.3574128              -9.7257
       221        1.9998           -0.3330063              -9.0616
       222        1.0243           -0.3244975              -8.8300 (HOMO)
       223        0.9759           -0.3244054              -8.8275 (LUMO)
       224        0.0000           -0.3142838              -8.5521
       225                         -0.2872792              -7.8173
       226                         -0.2778057              -7.5595
       227                         -0.2666619              -7.2562
       ...                                ...                  ...
       444                          0.7854028              21.3719
      -------------------------------------------------------------
                  HL-Gap            0.0000921 Eh            0.0025 eV
             Fermi-level           -0.3244512 Eh           -8.8288 eV

 SCC (total)                   0 d,  0 h,  0 min,  0.279 sec
 SCC setup                      ...        0 min,  0.002 sec (  0.717%)
 Dispersion                     ...        0 min,  0.003 sec (  1.075%)
 classical contributions        ...        0 min,  0.000 sec (  0.000%)
 integral evaluation            ...        0 min,  0.027 sec (  9.677%)
 iterations                     ...        0 min,  0.124 sec ( 44.444%)
 molecular gradient             ...        0 min,  0.119 sec ( 42.652%)
 printout                       ...        0 min,  0.004 sec (  1.434%)

         :::::::::::::::::::::::::::::::::::::::::::::::::::::
         ::                     SUMMARY                     ::
         :::::::::::::::::::::::::::::::::::::::::::::::::::::
         :: total energy            -237.748218427441 Eh    ::
         :: gradient norm              0.000350126346 Eh/a0 ::
         :: HOMO-LUMO gap              0.002505280183 eV    ::
         ::.................................................::
         :: SCC energy              -242.461730692649 Eh    ::
         :: -> isotropic ES            0.002447143177 Eh    ::
         :: -> anisotropic ES          0.012953323154 Eh    ::
         :: -> anisotropic XC          0.091090914460 Eh    ::
         :: -> dispersion             -0.290172103327 Eh    ::
         :: repulsion energy           4.713512265209 Eh    ::
         :: add. restraining           0.000000000000 Eh    ::
         :: total charge               0.000000000005 e     ::
         :::::::::::::::::::::::::::::::::::::::::::::::::::::

           -------------------------------------------------
          |                Property Printout                |
           -------------------------------------------------

    * Orbital Energies and Occupations

         #    Occupation            Energy/Eh            Energy/eV
      -------------------------------------------------------------
         1        2.0000           -0.6619042             -18.0113
       ...           ...                  ...                  ...
       210        2.0000           -0.3958205             -10.7708
       211        2.0000           -0.3947121             -10.7407
       212        2.0000           -0.3904919             -10.6258
       213        2.0000           -0.3849705             -10.4756
       214        2.0000           -0.3842632             -10.4563
       215        2.0000           -0.3839125             -10.4468
       216        2.0000           -0.3828599             -10.4181
       217        2.0000           -0.3794914             -10.3265
       218        2.0000           -0.3748121             -10.1992
       219        2.0000           -0.3657375              -9.9522
       220        2.0000           -0.3574128              -9.7257
       221        1.9998           -0.3330063              -9.0616
       222        1.0243           -0.3244975              -8.8300 (HOMO)
       223        0.9759           -0.3244054              -8.8275 (LUMO)
       224        0.0000           -0.3142838              -8.5521
       225                         -0.2872792              -7.8173
       226                         -0.2778057              -7.5595
       227                         -0.2666619              -7.2562
       228                         -0.2606888              -7.0937
       229                         -0.2561079              -6.9690
       230                         -0.2539316              -6.9098
       231                         -0.2466286              -6.7111
       232                         -0.2397133              -6.5229
       233                         -0.2379565              -6.4751
       ...                                ...                  ...
       444                          0.7854028              21.3719
      -------------------------------------------------------------
                  HL-Gap            0.0000921 Eh            0.0025 eV
             Fermi-level           -0.3244512 Eh           -8.8288 eV

     #   Z          covCN         q      C6AA      α(0)
     1   6 C        2.919    -0.037    28.918     8.818
     2   6 C        2.920    -0.037    28.929     8.820
     3   6 C        2.980     0.004    27.918     8.667
     4   6 C        2.922    -0.036    28.908     8.817
     5   6 C        2.979     0.004    27.930     8.669
     6   6 C        2.990     0.001    27.997     8.680
     7   6 C        2.922    -0.036    28.908     8.817
     8   6 C        2.920    -0.037    28.929     8.820
     9   6 C        2.979     0.004    27.930     8.669
    10   6 C        2.919    -0.037    28.918     8.818
    11   6 C        2.980     0.004    27.918     8.667
    12   6 C        2.990     0.001    27.997     8.680
    13   6 C        2.922    -0.037    28.923     8.819
    14   6 C        2.994     0.002    27.979     8.677
    15   6 C        2.987    -0.001    28.038     8.686
    16   6 C        2.926    -0.045    29.114     8.849
    17   6 C        2.993    -0.000    28.025     8.684
    18   6 C        2.926    -0.045    29.116     8.849
    19   6 C        2.912    -0.030    28.745     8.791
    20   6 C        2.976     0.006    27.874     8.660
    21   6 C        2.989     0.001    27.991     8.679
    22   6 C        2.985    -0.000    28.031     8.685
    23   6 C        2.980     0.012    27.732     8.638
    24   6 C        2.986     0.001    28.000     8.680
    25   6 C        2.987    -0.001    28.036     8.685
    26   6 C        2.975     0.012    27.747     8.640
    27   6 C        2.988     0.001    28.005     8.681
    28   6 C        2.974     0.012    27.735     8.639
    29   6 C        2.912    -0.030    28.745     8.791
    30   6 C        2.976     0.006    27.874     8.660
    31   6 C        2.980     0.012    27.732     8.638
    32   6 C        2.989     0.001    27.991     8.679
    33   6 C        2.986     0.001    28.000     8.680
    34   6 C        2.975     0.012    27.747     8.640
    35   6 C        2.985    -0.000    28.031     8.685
    36   6 C        2.987    -0.001    28.036     8.685
    37   6 C        2.988     0.001    28.005     8.681
    38   6 C        2.974     0.012    27.735     8.639
    39   6 C        2.922    -0.037    28.923     8.819
    40   6 C        2.994     0.002    27.979     8.677
    41   6 C        2.926    -0.045    29.114     8.849
    42   6 C        2.987    -0.001    28.038     8.686
    43   6 C        2.993    -0.000    28.025     8.684
    44   6 C        2.926    -0.045    29.116     8.849
    45   6 C        2.987    -0.001    28.036     8.686
    46   6 C        2.975     0.012    27.747     8.640
    47   6 C        2.920    -0.037    28.929     8.820
    48   6 C        2.988    -0.001    28.037     8.686
    49   6 C        2.926    -0.045    29.114     8.849
    50   6 C        2.988    -0.000    28.029     8.684
    51   6 C        2.994     0.002    27.979     8.677
    52   6 C        2.988     0.001    28.005     8.681
    53   6 C        2.979     0.004    27.930     8.669
    54   6 C        2.989    -0.001    28.047     8.687
    55   6 C        2.986     0.001    28.000     8.680
    56   6 C        2.988    -0.000    28.031     8.685
    57   6 C        2.980     0.012    27.732     8.638
    58   6 C        2.988    -0.001    28.037     8.686
    59   6 C        2.922    -0.037    28.923     8.819
    60   6 C        2.987    -0.001    28.036     8.685
    61   6 C        2.922    -0.036    28.908     8.817
    62   6 C        2.993    -0.000    28.021     8.683
    63   6 C        2.989     0.001    27.991     8.679
    64   6 C        2.989    -0.001    28.047     8.687
    65   6 C        2.976     0.006    27.874     8.660
    66   6 C        2.987    -0.001    28.036     8.686
    67   6 C        2.912    -0.030    28.745     8.791
    68   6 C        2.985    -0.000    28.031     8.685
    69   6 C        2.926    -0.045    29.116     8.849
    70   6 C        2.980     0.004    27.918     8.667
    71   6 C        2.993    -0.000    28.025     8.684
    72   6 C        2.919    -0.037    28.918     8.818
    73   6 C        2.987    -0.001    28.038     8.686
    74   6 C        2.990     0.001    27.997     8.680
    75   6 C        2.987    -0.001    28.036     8.686
    76   6 C        2.975     0.012    27.747     8.640
    77   6 C        2.920    -0.037    28.929     8.820
    78   6 C        2.989    -0.001    28.047     8.687
    79   6 C        2.986     0.001    28.000     8.680
    80   6 C        2.993    -0.000    28.021     8.683
    81   6 C        2.989     0.001    27.991     8.679
    82   6 C        2.926    -0.045    29.116     8.849
    83   6 C        2.980     0.004    27.918     8.667
    84   6 C        2.988    -0.001    28.037     8.686
    85   6 C        2.926    -0.045    29.114     8.849
    86   6 C        2.988    -0.000    28.031     8.685
    87   6 C        2.980     0.012    27.732     8.638
    88   6 C        2.989    -0.001    28.047     8.687
    89   6 C        2.976     0.006    27.874     8.660
    90   6 C        2.993    -0.000    28.025     8.684
    91   6 C        2.919    -0.037    28.918     8.818
    92   6 C        2.988    -0.000    28.029     8.684
    93   6 C        2.994     0.002    27.979     8.677
    94   6 C        2.988    -0.001    28.037     8.686
    95   6 C        2.922    -0.037    28.923     8.819
    96   6 C        2.987    -0.001    28.036     8.686
    97   6 C        2.912    -0.030    28.745     8.791
    98   6 C        2.987    -0.001    28.038     8.686
    99   6 C        2.988     0.001    28.005     8.681
   100   6 C        2.979     0.004    27.930     8.669
   101   6 C        2.987    -0.001    28.036     8.685
   102   6 C        2.922    -0.036    28.908     8.817
   103   6 C        2.985    -0.000    28.031     8.685
   104   6 C        2.990     0.001    27.997     8.680
   105   1 H        0.926     0.033     2.548     2.496
   106   1 H        0.926     0.033     2.544     2.494
   107   1 H        0.926     0.032     2.552     2.498
   108   1 H        0.926     0.032     2.552     2.498
   109   1 H        0.926     0.033     2.544     2.494
   110   1 H        0.926     0.033     2.548     2.496
   111   1 H        0.926     0.031     2.572     2.508
   112   1 H        0.926     0.032     2.563     2.503
   113   1 H        0.926     0.032     2.565     2.504
   114   1 H        0.926     0.029     2.594     2.519
   115   1 H        0.926     0.029     2.594     2.519
   116   1 H        0.926     0.031     2.572     2.508
   117   1 H        0.926     0.032     2.563     2.503
   118   1 H        0.926     0.032     2.565     2.504
   119   1 H        0.926     0.033     2.544     2.494
   120   1 H        0.926     0.032     2.563     2.503
   121   1 H        0.926     0.031     2.572     2.508
   122   1 H        0.926     0.032     2.552     2.498
   123   1 H        0.926     0.029     2.594     2.519
   124   1 H        0.926     0.032     2.565     2.504
   125   1 H        0.926     0.033     2.548     2.496
   126   1 H        0.926     0.033     2.544     2.494
   127   1 H        0.926     0.032     2.565     2.504
   128   1 H        0.926     0.032     2.563     2.503
   129   1 H        0.926     0.033     2.548     2.496
   130   1 H        0.926     0.031     2.572     2.508
   131   1 H        0.926     0.029     2.594     2.519
   132   1 H        0.926     0.032     2.552     2.498

 Mol. C6AA /au·bohr⁶  :     356793.247713
 Mol. C8AA /au·bohr⁸  :    9779530.193208
 Mol. α(0) /au        :        976.406611


Wiberg/Mayer (AO) data.
largest (>0.10) Wiberg bond orders for each atom

 ---------------------------------------------------------------------------
     #   Z sym  total        # sym  WBO       # sym  WBO       # sym  WBO
 ---------------------------------------------------------------------------
     1   6 C    3.969 --     8 C    1.482     9 C    1.351   105 H    0.961
     2   6 C    3.956 --    10 C    1.482    11 C    1.342   106 H    0.960
     3   6 C    3.965 --     8 C    1.342    12 C    1.277    11 C    1.147
     4   6 C    3.893 --    19 C    1.386    20 C    1.385   107 H    0.962
     5   6 C    3.952 --    10 C    1.351    21 C    1.275    20 C    1.133
     6   6 C    3.976 --    11 C    1.277    21 C    1.250    22 C    1.226
     7   6 C    3.893 --    29 C    1.386    30 C    1.385   108 H    0.962
     8   6 C    3.956 --     1 C    1.482     3 C    1.342   109 H    0.960
     9   6 C    3.952 --     1 C    1.351    32 C    1.275    30 C    1.133
    10   6 C    3.969 --     2 C    1.482     5 C    1.351   110 H    0.961
    11   6 C    3.965 --     2 C    1.342     6 C    1.277     3 C    1.147
    12   6 C    3.976 --     3 C    1.277    32 C    1.250    35 C    1.226
    13   6 C    3.899 --    19 C    1.504    23 C    1.273   111 H    0.969
    14   6 C    3.944 --    20 C    1.271    24 C    1.241    23 C    1.217
    15   6 C    3.941 --    25 C    1.286    21 C    1.230    24 C    1.217
    16   6 C    3.793 --    26 C    1.335    23 C    1.333   112 H    0.966
    17   6 C    3.944 --    24 C    1.298    27 C    1.253    26 C    1.175
    18   6 C    3.753 --    28 C    1.331    26 C    1.319   113 H    0.966
    19   6 C    3.983 --    13 C    1.504     4 C    1.386   114 H    0.970
    20   6 C    3.980 --     4 C    1.385    14 C    1.271     5 C    1.133
    21   6 C    3.980 --     5 C    1.275     6 C    1.250    15 C    1.230
    22   6 C    3.959 --    45 C    1.281    35 C    1.233     6 C    1.226
    23   6 C    3.985 --    16 C    1.333    13 C    1.273    14 C    1.217
    24   6 C    3.975 --    17 C    1.298    14 C    1.241    15 C    1.217
    25   6 C    3.970 --    15 C    1.286    54 C    1.248    45 C    1.215
    26   6 C    3.985 --    16 C    1.335    18 C    1.319    17 C    1.175
    27   6 C    3.973 --    62 C    1.276    17 C    1.253    54 C    1.229
    28   6 C    3.980 --    69 C    1.331    18 C    1.331    62 C    1.168
    29   6 C    3.983 --    39 C    1.504     7 C    1.386   115 H    0.970
    30   6 C    3.980 --     7 C    1.385    40 C    1.271     9 C    1.133
    31   6 C    3.985 --    41 C    1.333    39 C    1.273    40 C    1.217
    32   6 C    3.980 --     9 C    1.275    12 C    1.250    42 C    1.230
    33   6 C    3.975 --    43 C    1.298    40 C    1.241    42 C    1.217
    34   6 C    3.985 --    41 C    1.335    44 C    1.319    43 C    1.175
    35   6 C    3.959 --    75 C    1.281    22 C    1.233    12 C    1.226
    36   6 C    3.970 --    42 C    1.286    78 C    1.248    75 C    1.215
    37   6 C    3.973 --    80 C    1.276    43 C    1.253    78 C    1.229
    38   6 C    3.980 --    82 C    1.331    44 C    1.331    80 C    1.168
    39   6 C    3.899 --    29 C    1.504    31 C    1.273   116 H    0.969
    40   6 C    3.944 --    30 C    1.271    33 C    1.241    31 C    1.217
    41   6 C    3.793 --    34 C    1.335    31 C    1.333   117 H    0.966
    42   6 C    3.941 --    36 C    1.286    32 C    1.230    33 C    1.217
    43   6 C    3.944 --    33 C    1.298    37 C    1.253    34 C    1.175
    44   6 C    3.753 --    38 C    1.331    34 C    1.319   118 H    0.966
    45   6 C    3.960 --    22 C    1.281    84 C    1.247    25 C    1.215
    46   6 C    3.985 --    85 C    1.335    82 C    1.319    90 C    1.175
    47   6 C    3.956 --    91 C    1.482    83 C    1.342   119 H    0.960
    48   6 C    3.963 --    86 C    1.260    75 C    1.247    84 C    1.240
    49   6 C    3.793 --    76 C    1.335    87 C    1.333   120 H    0.966
    50   6 C    3.966 --    88 C    1.263    78 C    1.263    86 C    1.221
    51   6 C    3.944 --    89 C    1.271    79 C    1.241    87 C    1.217
    52   6 C    3.973 --    80 C    1.276    90 C    1.253    88 C    1.229
    53   6 C    3.952 --    91 C    1.351    81 C    1.275    89 C    1.133
    54   6 C    3.952 --    92 C    1.263    25 C    1.248    27 C    1.229
    55   6 C    3.975 --    90 C    1.298    93 C    1.241    98 C    1.217
    56   6 C    3.952 --    94 C    1.260    84 C    1.260    92 C    1.221
    57   6 C    3.985 --    85 C    1.333    95 C    1.273    93 C    1.217
    58   6 C    3.963 --    86 C    1.260    96 C    1.247    94 C    1.240
    59   6 C    3.899 --    97 C    1.504    87 C    1.273   121 H    0.969
    60   6 C    3.970 --    98 C    1.286    88 C    1.248    96 C    1.215
    61   6 C    3.893 --    97 C    1.386    89 C    1.385   122 H    0.962
    62   6 C    3.931 --    99 C    1.276    27 C    1.276    28 C    1.168
    63   6 C    3.980 --   100 C    1.275   104 C    1.250    98 C    1.230
    64   6 C    3.952 --    92 C    1.263   101 C    1.248    99 C    1.229
    65   6 C    3.980 --   102 C    1.385    93 C    1.271   100 C    1.133
    66   6 C    3.960 --   103 C    1.281    94 C    1.247   101 C    1.215
    67   6 C    3.983 --    95 C    1.504   102 C    1.386   123 H    0.970
    68   6 C    3.959 --    96 C    1.281   103 C    1.233   104 C    1.226
    69   6 C    3.753 --    28 C    1.331    76 C    1.319   124 H    0.966
    70   6 C    3.965 --    77 C    1.342   104 C    1.277    83 C    1.147
    71   6 C    3.944 --    79 C    1.298    99 C    1.253    76 C    1.175
    72   6 C    3.969 --    77 C    1.482   100 C    1.351   125 H    0.961
    73   6 C    3.941 --   101 C    1.286    81 C    1.230    79 C    1.217
    74   6 C    3.976 --    83 C    1.277    81 C    1.250   103 C    1.226
    75   6 C    3.960 --    35 C    1.281    48 C    1.247    36 C    1.215
    76   6 C    3.985 --    49 C    1.335    69 C    1.319    71 C    1.175
    77   6 C    3.956 --    72 C    1.482    70 C    1.342   126 H    0.960
    78   6 C    3.952 --    50 C    1.263    36 C    1.248    37 C    1.229
    79   6 C    3.975 --    71 C    1.298    51 C    1.241    73 C    1.217
    80   6 C    3.931 --    37 C    1.276    52 C    1.276    38 C    1.168
    81   6 C    3.980 --    53 C    1.275    74 C    1.250    73 C    1.230
    82   6 C    3.753 --    38 C    1.331    46 C    1.319   127 H    0.966
    83   6 C    3.965 --    47 C    1.342    74 C    1.277    70 C    1.147
    84   6 C    3.963 --    56 C    1.260    45 C    1.247    48 C    1.240
    85   6 C    3.793 --    46 C    1.335    57 C    1.333   128 H    0.966
    86   6 C    3.952 --    48 C    1.260    58 C    1.260    50 C    1.221
    87   6 C    3.985 --    49 C    1.333    59 C    1.273    51 C    1.217
    88   6 C    3.952 --    50 C    1.263    60 C    1.248    52 C    1.229
    89   6 C    3.980 --    61 C    1.385    51 C    1.271    53 C    1.133
    90   6 C    3.944 --    55 C    1.298    52 C    1.253    46 C    1.175
    91   6 C    3.969 --    47 C    1.482    53 C    1.351   129 H    0.961
    92   6 C    3.966 --    54 C    1.263    64 C    1.263    56 C    1.221
    93   6 C    3.944 --    65 C    1.271    55 C    1.241    57 C    1.217
    94   6 C    3.963 --    56 C    1.260    66 C    1.247    58 C    1.240
    95   6 C    3.899 --    67 C    1.504    57 C    1.273   130 H    0.969
    96   6 C    3.960 --    68 C    1.281    58 C    1.247    60 C    1.215
    97   6 C    3.983 --    59 C    1.504    61 C    1.386   131 H    0.970
    98   6 C    3.941 --    60 C    1.286    63 C    1.230    55 C    1.217
    99   6 C    3.973 --    62 C    1.276    71 C    1.253    64 C    1.229
   100   6 C    3.952 --    72 C    1.351    63 C    1.275    65 C    1.133
   101   6 C    3.970 --    73 C    1.286    64 C    1.248    66 C    1.215
   102   6 C    3.893 --    67 C    1.386    65 C    1.385   132 H    0.962
   103   6 C    3.959 --    66 C    1.281    68 C    1.233    74 C    1.226
   104   6 C    3.976 --    70 C    1.277    63 C    1.250    68 C    1.226
   105   1 H    0.998 --     1 C    0.961
   106   1 H    0.998 --     2 C    0.960
   107   1 H    0.998 --     4 C    0.962
   108   1 H    0.998 --     7 C    0.962
   109   1 H    0.998 --     8 C    0.960
   110   1 H    0.998 --    10 C    0.961
   111   1 H    0.998 --    13 C    0.969
   112   1 H    0.998 --    16 C    0.966
   113   1 H    0.998 --    18 C    0.966
   114   1 H    0.998 --    19 C    0.970
   115   1 H    0.998 --    29 C    0.970
   116   1 H    0.998 --    39 C    0.969
   117   1 H    0.998 --    41 C    0.966
   118   1 H    0.998 --    44 C    0.966
   119   1 H    0.998 --    47 C    0.960
   120   1 H    0.998 --    49 C    0.966
   121   1 H    0.998 --    59 C    0.969
   122   1 H    0.998 --    61 C    0.962
   123   1 H    0.998 --    67 C    0.970
   124   1 H    0.998 --    69 C    0.966
   125   1 H    0.998 --    72 C    0.961
   126   1 H    0.998 --    77 C    0.960
   127   1 H    0.998 --    82 C    0.966
   128   1 H    0.998 --    85 C    0.966
   129   1 H    0.998 --    91 C    0.961
   130   1 H    0.998 --    95 C    0.969
   131   1 H    0.998 --    97 C    0.970
   132   1 H    0.998 --   102 C    0.962
 ---------------------------------------------------------------------------

Topologies differ in total number of bonds
Writing topology from bond orders to xtbtopo.mol

molecular dipole:
                 x           y           z       tot (Debye)
 q only:       -0.000       0.000       0.000
   full:       -0.000       0.000       0.000       0.000
molecular quadrupole (traceless):
                xx          xy          yy          xz          yz          zz
 q only:        8.132      -0.000      14.799       0.003      -0.000     -22.932
  q+dip:       35.634      -0.000      43.351       0.005      -0.000     -78.985
   full:       16.195      -0.000      21.988       0.011      -0.000     -38.182

           -------------------------------------------------
          |                Geometry Summary                 |
           -------------------------------------------------

      molecular mass/u    :     1277.3388746
   center of mass at/Å    :        0.0000001      -0.0000001       0.0000000
  moments of inertia/u·Å² :        0.2740787E+05   0.3121593E+05   0.5862379E+05
rotational constants/cm⁻¹ :        0.6150653E-03   0.5400331E-03   0.2875561E-03

 * 164 selected distances

     #   Z          #   Z                                           value/Å
     1   6 C        8   6 C                                       1.3713011
     3   6 C        8   6 C                                       1.3967861
     1   6 C        9   6 C                                       1.3950093
     2   6 C       10   6 C                                       1.3713011
     5   6 C       10   6 C                                       1.3950097
     2   6 C       11   6 C                                       1.3967859
     6   6 C       11   6 C                                       1.4126535
     3   6 C       12   6 C                                       1.4126533
     4   6 C       19   6 C                                       1.3902754
    13   6 C       19   6 C                                       1.3702487
     4   6 C       20   6 C                                       1.3938964
    14   6 C       20   6 C                                       1.4138423
     5   6 C       21   6 C                                       1.4152703
     6   6 C       21   6 C                                       1.4209148
    15   6 C       21   6 C                                       1.4197905
     6   6 C       22   6 C                                       1.4222501
    13   6 C       23   6 C                                       1.4093266
    14   6 C       23   6 C                                       1.4255969
    16   6 C       23   6 C                                       1.3955291
    14   6 C       24   6 C                                       1.4184821
    15   6 C       24   6 C                                       1.4229873
    17   6 C       24   6 C                                       1.4058436
    15   6 C       25   6 C                                       1.4092308
    16   6 C       26   6 C                                       1.3945588
    17   6 C       26   6 C                                       1.4321336
    18   6 C       26   6 C                                       1.3975159
    17   6 C       27   6 C                                       1.4142091
    18   6 C       28   6 C                                       1.3952594
     7   6 C       29   6 C                                       1.3902757
     7   6 C       30   6 C                                       1.3938964
     9   6 C       32   6 C                                       1.4152704
    12   6 C       32   6 C                                       1.4209148
    12   6 C       35   6 C                                       1.4222502
    22   6 C       35   6 C                                       1.4210375
    29   6 C       39   6 C                                       1.3702487
    31   6 C       39   6 C                                       1.4093261
    30   6 C       40   6 C                                       1.4138419
    31   6 C       40   6 C                                       1.4255968
    33   6 C       40   6 C                                       1.4184820
    31   6 C       41   6 C                                       1.3955284
    34   6 C       41   6 C                                       1.3945580
    32   6 C       42   6 C                                       1.4197902
    33   6 C       42   6 C                                       1.4229872
    36   6 C       42   6 C                                       1.4092310
    33   6 C       43   6 C                                       1.4058433
    34   6 C       43   6 C                                       1.4321335
    37   6 C       43   6 C                                       1.4142094
    34   6 C       44   6 C                                       1.3975154
    38   6 C       44   6 C                                       1.3952594
    22   6 C       45   6 C                                       1.4099725
    25   6 C       45   6 C                                       1.4231838
    25   6 C       54   6 C                                       1.4161103
    27   6 C       54   6 C                                       1.4191628
    27   6 C       62   6 C                                       1.4094901
    28   6 C       62   6 C                                       1.4333026
    28   6 C       69   6 C                                       1.3952586
    35   6 C       75   6 C                                       1.4099724
    36   6 C       75   6 C                                       1.4231839
    48   6 C       75   6 C                                       1.4169413
    49   6 C       76   6 C                                       1.3945566
    69   6 C       76   6 C                                       1.3975143
    71   6 C       76   6 C                                       1.4321329
    70   6 C       77   6 C                                       1.3967861
    72   6 C       77   6 C                                       1.3713012
    36   6 C       78   6 C                                       1.4161103
    37   6 C       78   6 C                                       1.4191630
    50   6 C       78   6 C                                       1.4128441
    51   6 C       79   6 C                                       1.4184811
    71   6 C       79   6 C                                       1.4058427
    73   6 C       79   6 C                                       1.4229866
    37   6 C       80   6 C                                       1.4094902
    38   6 C       80   6 C                                       1.4333030 (max)
    52   6 C       80   6 C                                       1.4094904
    53   6 C       81   6 C                                       1.4152702
    73   6 C       81   6 C                                       1.4197902
    74   6 C       81   6 C                                       1.4209147
    38   6 C       82   6 C                                       1.3952594
    46   6 C       82   6 C                                       1.3975158
    47   6 C       83   6 C                                       1.3967859
    74   6 C       83   6 C                                       1.4126534
    45   6 C       84   6 C                                       1.4169412
    48   6 C       84   6 C                                       1.4175744
    56   6 C       84   6 C                                       1.4139451
    46   6 C       85   6 C                                       1.3945584
    57   6 C       85   6 C                                       1.3955288
    48   6 C       86   6 C                                       1.4139451
    50   6 C       86   6 C                                       1.4207738
    58   6 C       86   6 C                                       1.4139452
    49   6 C       87   6 C                                       1.3955268
    51   6 C       87   6 C                                       1.4255962
    59   6 C       87   6 C                                       1.4093253
    50   6 C       88   6 C                                       1.4128440
    52   6 C       88   6 C                                       1.4191630
    60   6 C       88   6 C                                       1.4161104
    51   6 C       89   6 C                                       1.4138414
    61   6 C       89   6 C                                       1.3938954
    46   6 C       90   6 C                                       1.4321336
    52   6 C       90   6 C                                       1.4142095
    55   6 C       90   6 C                                       1.4058436
    47   6 C       91   6 C                                       1.3713011
    53   6 C       91   6 C                                       1.3950096
    54   6 C       92   6 C                                       1.4128439
    56   6 C       92   6 C                                       1.4207736
    64   6 C       92   6 C                                       1.4128439
    55   6 C       93   6 C                                       1.4184822
    57   6 C       93   6 C                                       1.4255970
    65   6 C       93   6 C                                       1.4138422
    56   6 C       94   6 C                                       1.4139451
    58   6 C       94   6 C                                       1.4175743
    66   6 C       94   6 C                                       1.4169412
    57   6 C       95   6 C                                       1.4093263
    67   6 C       95   6 C                                       1.3702490
    58   6 C       96   6 C                                       1.4169412
    60   6 C       96   6 C                                       1.4231839
    68   6 C       96   6 C                                       1.4099725
    59   6 C       97   6 C                                       1.3702479
    61   6 C       97   6 C                                       1.3902747
    55   6 C       98   6 C                                       1.4229873
    60   6 C       98   6 C                                       1.4092310
    63   6 C       98   6 C                                       1.4197904
    62   6 C       99   6 C                                       1.4094897
    64   6 C       99   6 C                                       1.4191624
    71   6 C       99   6 C                                       1.4142087
    63   6 C      100   6 C                                       1.4152706
    72   6 C      100   6 C                                       1.3950093
    64   6 C      101   6 C                                       1.4161102
    66   6 C      101   6 C                                       1.4231837
    73   6 C      101   6 C                                       1.4092307
    65   6 C      102   6 C                                       1.3938965
    67   6 C      102   6 C                                       1.3902761
    66   6 C      103   6 C                                       1.4099724
    68   6 C      103   6 C                                       1.4210374
    74   6 C      103   6 C                                       1.4222501
    63   6 C      104   6 C                                       1.4209148
    68   6 C      104   6 C                                       1.4222502
    70   6 C      104   6 C                                       1.4126534
     1   6 C      105   1 H                                       1.0775745
     2   6 C      106   1 H                                       1.0772976
     4   6 C      107   1 H                                       1.0775293
     7   6 C      108   1 H                                       1.0775295
     8   6 C      109   1 H                                       1.0772976
    10   6 C      110   1 H                                       1.0775745
    13   6 C      111   1 H                                       1.0800859
    16   6 C      112   1 H                                       1.0807158
    18   6 C      113   1 H                                       1.0805904
    19   6 C      114   1 H                                       1.0804312
    29   6 C      115   1 H                                       1.0804313
    39   6 C      116   1 H                                       1.0800862
    41   6 C      117   1 H                                       1.0807161
    44   6 C      118   1 H                                       1.0805904
    47   6 C      119   1 H                                       1.0772978
    49   6 C      120   1 H                                       1.0807165
    59   6 C      121   1 H                                       1.0800864
    61   6 C      122   1 H                                       1.0775299
    67   6 C      123   1 H                                       1.0804310
    69   6 C      124   1 H                                       1.0805907
    72   6 C      125   1 H                                       1.0775747
    77   6 C      126   1 H                                       1.0772976 (min)
    82   6 C      127   1 H                                       1.0805904
    85   6 C      128   1 H                                       1.0807161
    91   6 C      129   1 H                                       1.0775745
    95   6 C      130   1 H                                       1.0800862
    97   6 C      131   1 H                                       1.0804318
   102   6 C      132   1 H                                       1.0775296

 * 2 distinct bonds (by element types)

   Z      Z             #   av. dist./Å        max./Å        min./Å
   1 H    6 C          28     1.0791751     1.0807165     1.0772976
   6 C    6 C         136     1.4091441     1.4333030     1.3702479


optimized geometry written to: xtbopt.xyz


           -------------------------------------------------
          | TOTAL ENERGY             -237.748218427441 Eh   |
          | GRADIENT NORM               0.000350126346 Eh/α |
          | HOMO-LUMO GAP               0.002505280183 eV   |
           -------------------------------------------------

------------------------------------------------------------------------
 * finished run on 2025/12/08 at 00:30:02.895     
------------------------------------------------------------------------
 total:
 * wall-time:     0 d,  0 h,  0 min,  4.231 sec
 *  cpu-time:     0 d,  0 h,  0 min, 16.688 sec
 * ratio c/w:     3.944 speedup
 SCF:
 * wall-time:     0 d,  0 h,  0 min,  0.805 sec
 *  cpu-time:     0 d,  0 h,  0 min,  3.156 sec
 * ratio c/w:     3.921 speedup
 ANC optimizer:
 * wall-time:     0 d,  0 h,  0 min,  3.342 sec
 *  cpu-time:     0 d,  0 h,  0 min, 13.203 sec
 * ratio c/w:     3.951 speedup

normal termination of xtb
