132
 energy: -237.748218427441 gnorm: 0.000350126346 xtb: 6.7.1pre (5071a88)
C           -2.82654460027723        7.31944661039772       -0.00089960310139
C            1.45524254224454        7.32061150482075        0.00049316865972
C           -0.72016444503483        6.13289565303908       -0.00018133553186
C            5.75473468329830        7.30719867970748        0.00264815071101
C            3.55788579247454        6.13151182741029        0.00095033271748
C            1.42452359559521        4.90836856075790        0.00021135575991
C           -5.75473641252956        7.30719830381650       -0.00269100674514
C           -1.45524422232652        7.32061138091922       -0.00047206881815
C           -3.55788683197674        6.13151175334538       -0.00095856678559
C            2.82654294148388        7.31944675277723        0.00091063103137
C            0.72016346413262        6.13289560307776        0.00019312058346
C           -1.42452382260136        4.90836843188178       -0.00021092826707
C            7.82064908501363        6.09252447822532        0.00104967287044
C            5.68622935130979        4.89382256440871        0.00027294047181
C            3.54550587690781        3.67344696354332       -0.00001501650855
C            7.78379388433243        3.65147761353523       -0.00119347608031
C            5.66277860460120        2.44788808215372       -0.00107724146134
C            7.77290857974513        1.21694088954869       -0.00243713101226
C            7.14482491822153        7.28451466609696        0.00252747772336
C            5.00448051993107        6.13243752991036        0.00131162581368
C            2.84543820526300        4.90864320403335        0.00040969617618
C            0.71051887179995        3.67833114395109        0.00000676411977
C            7.11169517241898        4.87449967524714       -0.00000265179367
C            4.96848961103185        3.67032745702929       -0.00033383230011
C            2.83659323239842        2.45550864794095       -0.00027894782101
C            7.09488413372019        2.43896077914685       -0.00165901168857
C            4.95618743477904        1.22285093066559       -0.00113897980724
C            7.09041381154315       -0.00000173596289       -0.00221451463806
C           -7.14482687278935        7.28451344636598       -0.00258503748566
C           -5.00448147251825        6.13243771161650       -0.00133786608579
C           -7.11169542804473        4.87449924865203       -0.00003890599273
C           -2.84543844518459        4.90864338728580       -0.00041748836046
C           -4.96848929624458        3.67032829100889        0.00031288912548
C           -7.09488376901002        2.43896196076530        0.00162908700052
C           -0.71051846335795        3.67833120180849       -0.00000888828355
C           -2.83659252759388        2.45550886402377        0.00026978300231
C           -4.95618685442007        1.22285202566512        0.00112541765840
C           -7.09041411405453        0.00000014765962        0.00219779359433
C           -7.82065030291705        6.09252285142643       -0.00110508003175
C           -5.68622974140515        4.89382286747031       -0.00030205420565
C           -7.78379370907820        3.65147772212217        0.00115245561333
C           -3.54550564259860        3.67344716123812        0.00000122294088
C           -5.66277830775334        2.44788927056707        0.00105574015150
C           -7.77290861552376        1.21694284435007        0.00240971255753
C            1.41340967121053        2.45605189472307       -0.00007105338522
C           -7.09488330615290       -2.43896212445889        0.00158488941498
C            1.45524408103145       -7.32061176178164        0.00053949750136
C           -0.70878651547915        1.22673112355750        0.00011164664278
C            7.78379172616442       -3.65147654590686       -0.00107361107796
C           -2.83267513700657       -0.00000013974000        0.00053831059604
C            5.68622972926788       -4.89382104077557        0.00039811189217
C           -4.95618658052876       -1.22285193063635        0.00110922375525
C            3.55788716402331       -6.13151191334023        0.00105246071695
C            3.53702614204617        1.22475208883047       -0.00063020741282
C           -4.96848865343245       -3.67032874966641        0.00026403129741
C            1.41190267813747       -0.00000031612948       -0.00017937300874
C           -7.11169484628555       -4.87450036238632       -0.00012854810123
C           -0.70878640412874       -1.22673156129651        0.00011211554093
C            7.82064995179138       -6.09251950866815        0.00125672136843
C           -2.83659214676494       -2.45550930194843        0.00025167571858
C            5.75473824445918       -7.30719404688901        0.00285569848029
C            5.65711148182797       -0.00000121018696       -0.00151312461417
C           -2.84543766272581       -4.90864414520990       -0.00045610133087
C            3.53702578296532       -1.22475293985778       -0.00060818365780
C           -5.00448053819794       -6.13243880419011       -0.00142465470308
C            1.41340964919557       -2.45605256797177       -0.00004926971497
C           -7.14482644603499       -7.28451504651641       -0.00272405343494
C           -0.71051803237783       -3.67833185697502       -0.00000921055577
C            7.77290710409816       -1.21694421120577       -0.00239749311905
C           -0.72016355797971       -6.13289649183958       -0.00018828570873
C            5.66277754718458       -2.44788925094355       -0.00101552989390
C           -2.82654386396512       -7.31944754395033       -0.00095719824203
C            3.54550570112458       -3.67344767683604        0.00005050090428
C            1.42452421012365       -4.90836919330137        0.00025016290897
C           -1.41340885282508        2.45605187377061        0.00006620027458
C            7.09488240077421       -2.43896207318135       -0.00158544922670
C           -1.45524338463064       -7.32061217843278       -0.00050183749438
C           -3.53702538855242        1.22475236836662        0.00062181646570
C            4.96848876586617       -3.67032772732866       -0.00025043417561
C           -5.65711145450653        0.00000005598930        0.00150252181669
C            2.84543871842049       -4.90864390945939        0.00048034054231
C           -7.77290835893855       -1.21694274384371        0.00238585909482
C            0.72016440750528       -6.13289625233486        0.00021948011871
C            0.70878770413389        1.22673102640480       -0.00011407302971
C           -7.78379318895390       -3.65147839049316        0.00108053607817
C           -1.41190148760531       -0.00000020781341        0.00017965311856
C            7.11169477132274       -4.87449697521102        0.00014786755211
C           -3.53702509220882       -1.22475271278517        0.00061035490152
C            5.00448193571903       -6.13243556969772        0.00145714337417
C           -5.66277773875344       -2.44788946025281        0.00101936005886
C            2.82654450460118       -7.31944682443849        0.00099534727443
C            2.83267608640315       -0.00000035124174       -0.00054027507874
C           -5.68622894058612       -4.89382368500071       -0.00037652717442
C            0.70878773178585       -1.22673164638047       -0.00010662856920
C           -7.82064988697765       -6.09252411706815       -0.00122684393610
C           -1.41340848098974       -2.45605243791451        0.00006025043994
C            7.14482773251761       -7.28450991811980        0.00276640200609
C           -3.54550491472320       -3.67344778359488       -0.00003448870876
C            4.95618668524957       -1.22285240159451       -0.00111047522094
C           -3.55788595832704       -6.13151270316155       -0.00102050919856
C            2.83659307657717       -2.45550944855494       -0.00024194480439
C           -5.75473559368736       -7.30719944318762       -0.00281226400082
C            0.71051919146178       -3.67833186667755        0.00002677671558
C           -1.42452307474927       -4.90836921321955       -0.00022582174833
H           -3.33206701527796        8.27108401590856       -0.00106666138222
H            0.95429050904242        8.27434992567004        0.00041984211170
H            5.26886783999806        8.26896846263406        0.00388869990893
H           -5.26886983150406        8.26896844089958       -0.00393499944737
H           -0.95429259623679        8.27435000943312       -0.00038424161264
H            3.33206483225738        8.27108439003050        0.00108591632734
H            8.90041683087736        6.06631504788901        0.00081441542629
H            8.86447836072437        3.64326501859196       -0.00156133880849
H            8.85349721788101        1.21512790789815       -0.00298025336775
H            7.68836615242658        8.21826685696881        0.00357654460386
H           -7.68836891093323        8.21826526631853       -0.00364710294960
H           -8.90041832745122        6.06631212033127       -0.00087995790619
H           -8.86447843753718        3.64326401401045        0.00151179598633
H           -8.85349721336508        1.21512911019654        0.00294689379383
H            0.95429212068446       -8.27435041153863        0.00045316538162
H            8.86447687688150       -3.64326329587199       -0.00142654315267
H            8.90041819931242       -6.06630959443650        0.00104190108048
H            5.26887240623336       -8.26896491270314        0.00412433969543
H           -7.68836800926828       -8.21826682859448       -0.00381292063339
H            8.85349607230912       -1.21513085572009       -0.00293592647411
H           -3.33206651119077       -8.27108495189841       -0.00114047658624
H           -0.95429169254248       -8.27435072409642       -0.00041071965758
H           -8.85349696248862       -1.21512952458645        0.00292015967321
H           -8.86447791582524       -3.64326459650322        0.00143130518225
H            3.33206627196194       -8.27108449071827        0.00118351328881
H           -8.90041789286161       -6.06631265145101       -0.00101345681315
H            7.68836958351700       -8.21826244380131        0.00386410002048
H           -5.26886846154453       -8.26896940635653       -0.00407088540843
