132
 energy: -237.732592805217 gnorm: 0.041101732047 xtb: 6.7.1pre (5071a88)
C           -2.84790700000000        7.36641600000000       -0.00096600000000
C            1.46695200000000        7.36751500000000        0.00050300000000
C           -0.72720400000000        6.17339900000000       -0.00025600000000
C            5.80024400000000        7.35652500000000        0.00295200000000
C            3.58496000000000        6.17294900000000        0.00100100000000
C            1.43586900000000        4.94040600000000        0.00054800000000
C           -5.80024400000000        7.35652500000000       -0.00299700000000
C           -1.46695400000000        7.36751500000000       -0.00047900000000
C           -3.58496100000000        6.17294900000000       -0.00100700000000
C            2.84790500000000        7.36641600000000        0.00098000000000
C            0.72720200000000        6.17339900000000        0.00026900000000
C           -1.43587000000000        4.94040600000000       -0.00054600000000
C            7.88503700000000        6.13432700000000        0.00106800000000
C            5.73383600000000        4.92636200000000        0.00021600000000
C            3.57448800000000        3.69590900000000        0.00053900000000
C            7.84679000000000        3.67464000000000       -0.00141700000000
C            5.70885900000000        2.46481300000000       -0.00107400000000
C            7.83545500000000        1.22448300000000       -0.00283300000000
C            7.20274700000000        7.33389300000000        0.00274600000000
C            5.04678100000000        6.17350300000000        0.00154000000000
C            2.86865000000000        4.94045900000000        0.00035900000000
C            0.71686100000000        3.70002500000000       -0.00110000000000
C            7.17305200000000        4.90624600000000       -0.00001200000000
C            5.01055500000000        3.69280300000000       -0.00044100000000
C            2.86094300000000        2.47246700000000       -0.00153500000000
C            7.15552800000000        2.45508800000000       -0.00180400000000
C            4.99657800000000        1.22981300000000       -0.00167000000000
C            7.15140800000000        0.00000000000000       -0.00243700000000
C           -7.20274700000000        7.33389200000000       -0.00280600000000
C           -5.04678200000000        6.17350200000000       -0.00156700000000
C           -7.17305200000000        4.90624500000000       -0.00003100000000
C           -2.86865100000000        4.94045800000000       -0.00036600000000
C           -5.01055500000000        3.69280300000000        0.00042000000000
C           -7.15552800000000        2.45508700000000        0.00177300000000
C           -0.71686200000000        3.70002400000000        0.00109900000000
C           -2.86094400000000        2.47246700000000        0.00152700000000
C           -4.99657800000000        1.22981200000000        0.00165600000000
C           -7.15140800000000       -0.00000100000000        0.00241900000000
C           -7.88503800000000        6.13432600000000       -0.00112600000000
C           -5.73383600000000        4.92636200000000       -0.00024600000000
C           -7.84679000000000        3.67463900000000        0.00137400000000
C           -3.57448900000000        3.69590800000000       -0.00055200000000
C           -5.70886000000000        2.46481300000000        0.00105100000000
C           -7.83545600000000        1.22448200000000        0.00280400000000
C            1.42481600000000        2.47276300000000        0.00197600000000
C           -7.15552800000000       -2.45508900000000        0.00172900000000
C            1.46694900000000       -7.36751300000000        0.00054800000000
C           -0.71422300000000        1.23367300000000        0.00302800000000
C            7.84679000000000       -3.67464000000000       -0.00129300000000
C           -2.85702000000000        0.00000000000000        0.00261600000000
C            5.73383500000000       -4.92636300000000        0.00034300000000
C           -4.99657800000000       -1.22981300000000        0.00164000000000
C            3.58495800000000       -6.17294900000000        0.00110200000000
C            3.56683200000000        1.23175000000000        0.00075600000000
C           -5.01055400000000       -3.69280400000000        0.00037100000000
C            1.42300000000000        0.00000100000000        0.00300900000000
C           -7.17305000000000       -4.90624700000000       -0.00012200000000
C           -0.71422200000000       -1.23367100000000        0.00302800000000
C            7.88503600000000       -6.13432700000000        0.00128000000000
C           -2.86094300000000       -2.47246700000000        0.00150800000000
C            5.80024300000000       -7.35652600000000        0.00316500000000
C            5.70243800000000        0.00000000000000       -0.00140100000000
C           -2.86864900000000       -4.94045800000000       -0.00040500000000
C            3.56683200000000       -1.23174900000000        0.00077800000000
C           -5.04677900000000       -6.17350500000000       -0.00165500000000
C            1.42481700000000       -2.47276100000000        0.00199700000000
C           -7.20274500000000       -7.33389500000000       -0.00294800000000
C           -0.71686100000000       -3.70002300000000        0.00109800000000
C            7.83545600000000       -1.22448200000000       -0.00279200000000
C           -0.72720100000000       -6.17339600000000       -0.00026300000000
C            5.70886000000000       -2.46481300000000       -0.00101200000000
C           -2.84790100000000       -7.36641600000000       -0.00102400000000
C            3.57448800000000       -3.69590800000000        0.00060300000000
C            1.43586900000000       -4.94040400000000        0.00058500000000
C           -1.42481700000000        2.47276300000000       -0.00198000000000
C            7.15552800000000       -2.45508800000000       -0.00172900000000
C           -1.46694700000000       -7.36751300000000       -0.00051000000000
C           -3.56683200000000        1.23174900000000       -0.00076500000000
C            5.01055500000000       -3.69280300000000       -0.00035800000000
C           -5.70243800000000        0.00000000000000        0.00138900000000
C            2.86865000000000       -4.94045800000000        0.00042900000000
C           -7.83545500000000       -1.22448300000000        0.00278000000000
C            0.72720300000000       -6.17339600000000        0.00029500000000
C            0.71422200000000        1.23367300000000       -0.00303000000000
C           -7.84678900000000       -3.67464100000000        0.00130100000000
C           -1.42300000000000        0.00000100000000       -0.00300900000000
C            7.17305100000000       -4.90624600000000        0.00014200000000
C           -3.56683200000000       -1.23174900000000       -0.00077600000000
C            5.04678000000000       -6.17350400000000        0.00168800000000
C           -5.70885900000000       -2.46481400000000        0.00101500000000
C            2.84790200000000       -7.36641600000000        0.00106200000000
C            2.85702000000000        0.00000100000000       -0.00261800000000
C           -5.73383400000000       -4.92636400000000       -0.00032100000000
C            0.71422200000000       -1.23367100000000       -0.00302300000000
C           -7.88503600000000       -6.13432800000000       -0.00125000000000
C           -1.42481600000000       -2.47276200000000       -0.00198600000000
C            7.20274600000000       -7.33389400000000        0.00299100000000
C           -3.57448700000000       -3.69590800000000       -0.00058800000000
C            4.99657800000000       -1.22981200000000       -0.00164200000000
C           -3.58495700000000       -6.17295000000000       -0.00107000000000
C            2.86094400000000       -2.47246600000000       -0.00149900000000
C           -5.80024200000000       -7.35652700000000       -0.00312000000000
C            0.71686200000000       -3.70002300000000       -0.00108100000000
C           -1.43586800000000       -4.94040400000000       -0.00056100000000
H           -3.35504700000000        8.32353100000000       -0.00064400000000
H            0.96311800000000        8.32587000000000        0.00067500000000
H            5.30758800000000        8.32118300000000        0.00454100000000
H           -5.30758900000000        8.32118300000000       -0.00459100000000
H           -0.96312000000000        8.32587000000000       -0.00063600000000
H            3.35504400000000        8.32353200000000        0.00066900000000
H            8.97129400000000        6.11140300000000        0.00082600000000
H            8.93376100000000        3.66611300000000       -0.00173000000000
H            8.92235100000000        1.22267400000000       -0.00320200000000
H            7.74884000000000        8.27283300000000        0.00383600000000
H           -7.74884000000000        8.27283200000000       -0.00390900000000
H           -8.97129500000000        6.11140200000000       -0.00089400000000
H           -8.93376100000000        3.66611300000000        0.00168000000000
H           -8.92235200000000        1.22267200000000        0.00316700000000
H            0.96311000000000       -8.32586700000000        0.00070700000000
H            8.93376100000000       -3.66611400000000       -0.00159200000000
H            8.97129400000000       -6.11140400000000        0.00106000000000
H            5.30758800000000       -8.32118400000000        0.00478600000000
H           -7.74883800000000       -8.27283500000000       -0.00407800000000
H            8.92235200000000       -1.22267300000000       -0.00315600000000
H           -3.35503700000000       -8.32353300000000       -0.00071700000000
H           -0.96310900000000       -8.32586700000000       -0.00066400000000
H           -8.92235100000000       -1.22267400000000        0.00314000000000
H           -8.93376000000000       -3.66611500000000        0.00159800000000
H            3.35503900000000       -8.32353300000000        0.00075900000000
H           -8.97129300000000       -6.11140500000000       -0.00103000000000
H            7.74883900000000       -8.27283400000000        0.00413100000000
H           -5.30758700000000       -8.32118500000000       -0.00473100000000
132
 energy: -237.743516262829 gnorm: 0.017329670212 xtb: 6.7.1pre (5071a88)
C           -2.84154315659241        7.34195535970785       -0.00084842494969
C            1.46592494987680        7.34292666668568        0.00053705492668
C           -0.72498479305893        6.15484920710167       -0.00019450423553
C            5.78803019215224        7.33254077634583        0.00290485199086
C            3.57788174070649        6.15404980268243        0.00100367603646
C            1.43316214333285        4.92694007506053        0.00034342532899
C           -5.78803053337298        7.33254112485597       -0.00294937916552
C           -1.46592628799559        7.34292674494817       -0.00051367019858
C           -3.57788254273801        6.15404963928175       -0.00101068949920
C            2.84154183225789        7.34195546506921        0.00086208020241
C            0.72498344347950        6.15484911089882        0.00020748384174
C           -1.43316303015501        4.92694012627057       -0.00034186763171
C            7.85867640017729        6.11633582159788        0.00106042296057
C            5.71671633675480        4.91352167666391        0.00027415718229
C            3.56516941945052        3.68742530701739        0.00021070315243
C            7.81931360116229        3.66650238011134       -0.00134251872831
C            5.69133352445750        2.45892114087057       -0.00108795556162
C            7.80729511518110        1.22207706180763       -0.00265984968232
C            7.18186164060791        7.30981386238102        0.00271226227459
C            5.03354455802925        6.15607571752189        0.00141801427684
C            2.86156232076513        4.92733022100495        0.00043104180508
C            0.71483996204560        3.69178159364247       -0.00027360594897
C            7.14825874189830        4.89402956178146       -0.00004130055159
C            4.99591432220941        3.68482602759196       -0.00038834085956
C            2.85299925911754        2.46631340652163       -0.00051114632021
C            7.13027466951684        2.44965799629685       -0.00180985722215
C            4.98224200388865        1.22759204622365       -0.00131964814399
C            7.12575817137203       -0.00000003904927       -0.00239910268312
C           -7.18186195429852        7.30981344651067       -0.00277180213756
C           -5.03354541220910        6.15607536912942       -0.00144454180566
C           -7.14825926116342        4.89402914545598       -0.00000179623424
C           -2.86156314620807        4.92732968127349       -0.00043788427410
C           -4.99591485928925        3.68482583789939        0.00036744744863
C           -7.13027514211039        2.44965726967769        0.00177884377315
C           -0.71484070127337        3.69178117528466        0.00027246259119
C           -2.85299999612614        2.46631326526247        0.00050270995845
C           -4.98224229544168        1.22759127028397        0.00130556752862
C           -7.12575842503228       -0.00000102803563        0.00238140726346
C           -7.85867719425670        6.11633547660990       -0.00111765792805
C           -5.71671681001574        4.91352176076409       -0.00030385987117
C           -7.81931418516072        3.66650186871546        0.00130016495709
C           -3.56517029963878        3.68742469509545       -0.00022358375872
C           -5.69133443439159        2.45892091345414        0.00106568564588
C           -7.80729599978312        1.22207613562808        0.00263117686485
C            1.42144519183509        2.46663571321789        0.00041936815881
C           -7.13027468184613       -2.44965933763424        0.00173471885393
C            1.46592481861396       -7.34292538419896        0.00058175178928
C           -0.71250979816704        1.23128991397257        0.00072064674821
C            7.81931367391087       -3.66650238087259       -0.00121955693403
C           -2.84899393552822        0.00000001048966        0.00096227132862
C            5.71671596325174       -4.91352185048004        0.00040039886645
C           -4.98224209229006       -1.22759225996450        0.00128975715635
C            3.57788119132270       -6.15404927431596        0.00110467081328
C            3.55672636663136        1.22936971346931       -0.00025258787743
C           -4.99591383291366       -3.68482674509194        0.00031866487624
C            1.41954638157084        0.00000066283093        0.00058443080889
C           -7.14825726026582       -4.89403108334094       -0.00009223299273
C           -0.71250922433519       -1.23128853061546        0.00072083322948
C            7.85867565542699       -6.11633598106301        0.00127143158450
C           -2.85299926150832       -2.46631315896876        0.00048446680597
C            5.78802932401819       -7.33254108743104        0.00311660816652
C            5.68493809645742        0.00000016678169       -0.00148972664785
C           -2.86156178276677       -4.92732957593671       -0.00047657368072
C            3.55672646350033       -1.22936887484531       -0.00023124598013
C           -5.03354302796723       -6.15607700441432       -0.00153211078000
C            1.42144579957822       -2.46663434274155        0.00044028456659
C           -7.18185941917918       -7.30981562646575       -0.00291267285553
C           -0.71483997429787       -3.69178011316650        0.00027168103495
C            7.80729566066483       -1.22207649935729       -0.00261931320522
C           -0.72498309310341       -6.15484740047448       -0.00020170805536
C            5.69133414561769       -2.45892083184818       -0.00102640304549
C           -2.84154011796972       -7.34195527836624       -0.00090594883844
C            3.56516970789317       -3.68742435898071        0.00027474305083
C            1.43316261544637       -4.92693858078442        0.00038105570876
C           -1.42144585760811        2.46663574452140       -0.00042347688493
C            7.13027476578025       -2.44965793392178       -0.00173502911521
C           -1.46592309155979       -7.34292538679599       -0.00054394261806
C           -3.55672663108877        1.22936909593308        0.00024408832358
C            4.99591455447578       -3.68482561996630       -0.00030543233025
C           -5.68493826386656       -0.00000032605853        0.00147809242389
C            2.86156279424291       -4.92732928808294        0.00050052210091
C           -7.80729526986821       -1.22207781071846        0.00260735282230
C            0.72498457011918       -6.15484740319395        0.00023320548371
C            0.71250924754582        1.23128987260152       -0.00072268683907
C           -7.81931285069641       -3.66650396202110        0.00122758382054
C           -1.41954639914654        0.00000063238655       -0.00058420262830
C            7.14825831534340       -4.89402960096250        0.00011218952767
C           -3.55672650310581       -1.22936911728729        0.00023280777339
C            5.03354421508776       -6.15607580004095        0.00156478751133
C           -5.69133353142969       -2.45892204218376        0.00102973742806
C            2.84154147080811       -7.34195508175681        0.00094380431722
C            2.84899378062785        0.00000063274861       -0.00096437714652
C           -5.71671495665794       -4.91352317858560       -0.00037871490466
C            0.71250929194150       -1.23128861952275       -0.00071557867272
C           -7.85867485798492       -6.11633747839141       -0.00124079965968
C           -1.42144521823823       -2.46663475586173       -0.00042967228339
C            7.18186078475792       -7.30981427196374        0.00295592108452
C           -3.56516891699020       -3.68742471356150       -0.00025931488592
C            4.98224205103178       -1.22759122403489       -0.00129201390716
C           -3.57787999389615       -6.15405011786145       -0.00107284636676
C            2.85299983414132       -2.46631249804771       -0.00047526808374
C           -5.78802797464143       -7.33254245740954       -0.00307237045451
C            0.71484074086826       -3.69178011684597       -0.00025450674138
C           -1.43316174758293       -4.92693868822670       -0.00035690186712
H           -3.34582150037366        8.29719429564900       -0.00078685302433
H            0.96676170934364        8.30023106272533        0.00056783954746
H            5.30371016865313        8.29727089403479        0.00441510406630
H           -5.30371117168593        8.29727128580856       -0.00446424968565
H           -0.96676315527856        8.30023117202198       -0.00052932658673
H            3.34581949583461        8.29719491540046        0.00081072620772
H            8.94123283617119        6.09564650084136        0.00079826151560
H            8.90295586743073        3.65975272044108       -0.00172136782117
H            8.89088598930006        1.22084367245166       -0.00321899607399
H            7.72758878143611        8.24544653630047        0.00381289243255
H           -7.72758926618256        8.24544601042581       -0.00388569006473
H           -8.94123355699267        6.09564614539259       -0.00086572909180
H           -8.90295640379464        3.65975274471771        0.00167111266915
H           -8.89088679259750        1.22084214458460        0.00318431585028
H            0.96675992423356       -8.30022910318409        0.00059979703480
H            8.90295588315141       -3.65975347950985       -0.00158355719523
H            8.94123236558302       -6.09564753238676        0.00103045198072
H            5.30370929163651       -8.29727110959881        0.00465774801558
H           -7.72758657157232       -8.24544824820750       -0.00405391252593
H            8.89088648325689       -1.22084318771005       -0.00317324231820
H           -3.34581618238465       -8.29719542294685       -0.00086010276581
H           -0.96675870333190       -8.30022921559772       -0.00055698331006
H           -8.89088613302211       -1.22084454678264        0.00315745086499
H           -8.90295511067566       -3.65975516030116        0.00158952636333
H            3.34581826457420       -8.29719497362726        0.00090226434168
H           -8.94123126753386       -6.09564902659515       -0.00100106371059
H            7.72758785649877       -8.24544689997170        0.00410627710714
H           -5.30370789581725       -8.29727246256992       -0.00460300632418
132
 energy: -237.747765545962 gnorm: 0.005989118765 xtb: 6.7.1pre (5071a88)
C           -2.83288155654787        7.32249755302460       -0.00086021332410
C            1.46035940866578        7.32349642852810        0.00051943402263
C           -0.72185303552722        6.13773275124715       -0.00019882266937
C            5.76869249852069        7.31227062845933        0.00285601488371
C            3.56683059545160        6.13650011871958        0.00099401000859
C            1.42844548035107        4.91314167415441        0.00020885961891
C           -5.76869527731325        7.31226673396052       -0.00289995578184
C           -1.46036213834632        7.32349567047081       -0.00049712232769
C           -3.56683283896908        6.13649750632662       -0.00100134552591
C            2.83287870897912        7.32249934283314        0.00087313360408
C            0.72185081511645        6.13773317348382        0.00021035185602
C           -1.42844711526012        4.91314079528272       -0.00020823812003
C            7.83380973198221        6.09778882158255        0.00106046846055
C            5.69751193246784        4.89948333834051        0.00028898882961
C            3.55309710280378        3.67752002898768       -0.00002258241922
C            7.79429530253860        3.65572695778363       -0.00127992150955
C            5.67244997163290        2.45135697087359       -0.00112780584528
C            7.78208713523666        1.21852427027833       -0.00257039181948
C            7.15873442293919        7.28924456807084        0.00266565183959
C            5.01596906296778        6.13879551144653        0.00138796626143
C            2.85192173854501        4.91359599599253        0.00048350032680
C            0.71217671118368        3.68227075127048        0.00014634596504
C            7.12383951268138        4.87980285540347       -0.00003615574889
C            4.97852048059207        3.67502064543198       -0.00031612500324
C            2.84265191037201        2.45877317856127       -0.00011676223190
C            7.10562771367990        2.44220948362956       -0.00176326389014
C            4.96527778396986        1.22449559792559       -0.00110743412593
C            7.10079132688668        0.00000282668340       -0.00233594801058
C           -7.15873736761660        7.28924066180195       -0.00272466718414
C           -5.01597158189277        6.13879143516398       -0.00141421601810
C           -7.12384253495409        4.87979807812070       -0.00000623312554
C           -2.85192341096510        4.91359390119120       -0.00049033293051
C           -4.97852213215652        3.67501597209043        0.00029565419713
C           -7.10562826401665        2.44220266385902        0.00173282465704
C           -0.71217750047287        3.68227035218419       -0.00014839852566
C           -2.84265184395262        2.45877148564728        0.00010841910713
C           -4.96527647982663        1.22449164558187        0.00109310466874
C           -7.10078754152928       -0.00000320033307        0.00231847933376
C           -7.83381320279147        6.09778489413938       -0.00111706223677
C           -5.69751439201063        4.89947837541119       -0.00031824886382
C           -7.79429825559568        3.65572052011402        0.00123884881178
C           -3.55309827683104        3.67751741077287        0.00001027694463
C           -5.67245035257770        2.45135116759346        0.00110603851191
C           -7.78208626335580        1.21851620690854        0.00254221138955
C            1.41663041027306        2.45921318806397       -0.00020708245107
C           -7.10562500866181       -2.44220675750347        0.00168855289034
C            1.46035998036834       -7.32349590827523        0.00056438015657
C           -0.71015397319659        1.22818135161384       -0.00017574316790
C            7.79429953262823       -3.65572661913716       -0.00115782806838
C           -2.83854990189704       -0.00000040387120        0.00030943421730
C            5.69751314434037       -4.89948414800141        0.00041451469650
C           -4.96527505610555       -1.22449450250487        0.00107801115195
C            3.56683095454424       -6.13649930646138        0.00109493098542
C            3.54411426479406        1.22622367483189       -0.00073730146862
C           -4.97851928076767       -3.67501747861578        0.00024723205374
C            1.41482377616924        0.00000070616460       -0.00043061995750
C           -7.12383909276377       -4.87979792150002       -0.00009656210135
C           -0.71015337755929       -1.22818095018359       -0.00017536221332
C            7.83381059519676       -6.09779333016876        0.00127017188795
C           -2.84265048759444       -2.45877234042741        0.00009071206068
C            5.76869011158736       -7.31227540681590        0.00306603627981
C            5.66624515742295        0.00000208441010       -0.00159519606175
C           -2.85192170758980       -4.91359463069746       -0.00052879352159
C            3.54411523962620       -1.22622182297790       -0.00071640392527
C           -5.01596961403519       -6.13879054708366       -0.00150117531388
C            1.41663149193181       -2.45921189503073       -0.00018621736626
C           -7.15873607104263       -7.28923839354143       -0.00286477796295
C           -0.71217614006759       -3.68226965511503       -0.00014874570132
C            7.78208955250704       -1.21851850022076       -0.00253031819062
C           -0.72185152112310       -6.13773184149593       -0.00020556147403
C            5.67245228818186       -2.45135435993650       -0.00106696080418
C           -2.83287963358614       -7.32249774566952       -0.00091761802019
C            3.55309879245347       -3.67751829705256        0.00004064866643
C            1.42844679070135       -4.91314050969391        0.00024677462038
C           -1.41663041764279        2.45921236101282        0.00020268986680
C            7.10563087615555       -2.44220646710117       -0.00168898365625
C           -1.46036032385921       -7.32349484684732       -0.00052678650637
C           -3.54411318838749        1.22622171707473        0.00072913029206
C            4.97852297286847       -3.67501930462234       -0.00023386796794
C           -5.66624213835005       -0.00000215710997        0.00158369721098
C            2.85192309899896       -4.91359454334513        0.00055268587232
C           -7.78208390406132       -1.21852274062944        0.00251840736173
C            0.72185220537834       -6.13773214454898        0.00023661485917
C            0.71015477303163        1.22818172692645        0.00017358117531
C           -7.79429346856603       -3.65572248081613        0.00116580225016
C           -1.41482208872281       -0.00000001536114        0.00043099504368
C            7.12384173858700       -4.87980474605339        0.00011643304036
C           -3.54411222785434       -1.22622299270605        0.00071815832675
C            5.01596935542447       -6.13879694076516        0.00153381312415
C           -5.67244788239952       -2.45135411777630        0.00107038922678
C            2.83287911693561       -7.32249883919909        0.00095543620553
C            2.83855190424640        0.00000072203523       -0.00031145994829
C           -5.69751195301118       -4.89947834218630       -0.00039281142733
C            0.71015532535052       -1.22818070190107        0.00018071782735
C           -7.83381020425031       -6.09778272210895       -0.00123978618790
C           -1.41662929490409       -2.45921211084876        0.00019669067424
C            7.15873289304926       -7.28924868325610        0.00290765259332
C           -3.55309628236708       -3.67751857186127       -0.00002505473452
C            4.96527916603060       -1.22449282620758       -0.00108023558544
C           -3.56683108476526       -6.13649813696035       -0.00106321859617
C            2.84265311323370       -2.45877153300346       -0.00008139161418
C           -5.76869477423708       -7.31226327246849       -0.00302208766666
C            0.71217806712961       -3.68226965780415        0.00016557811716
C           -1.42844565559862       -4.91314020593053       -0.00022285267291
H           -3.33744564261700        8.27539086155304       -0.00093094467065
H            0.96160188121723        8.27905815591343        0.00046301237262
H            5.28696234528434        8.27636304770966        0.00424100781148
H           -5.28696540107685        8.27635913126130       -0.00428887443444
H           -0.96160508428274        8.27905761941019       -0.00042534936774
H            3.33744230547893        8.27539277940006        0.00095325752387
H            8.91404199813163        6.07598179992114        0.00076987412623
H            8.87552723425898        3.64958377218982       -0.00170263925782
H            8.86328337528126        1.21751083261774       -0.00318932374619
H            7.70388667338078        8.22268294486619        0.00378338570294
H           -7.70388928819876        8.22267895575716       -0.00385570029221
H           -8.91404508037789        6.07597840253621       -0.00083671826103
H           -8.87552973543166        3.64957752439062        0.00165275541358