      -----------------------------------------------------------      
     |                   =====================                   |     
     |                           x T B                           |     
     |                   =====================                   |     
     |                         S. Grimme                         |     
     |          Mulliken Center for Theoretical Chemistry        |     
     |                    University of Bonn                     |     
      -----------------------------------------------------------      

   * xtb version 6.7.1pre (5071a88) compiled by 'Marcel@Raven' on 2024-07-23

   xtb is free software: you can redistribute it and/or modify it under
   the terms of the GNU Lesser General Public License as published by
   the Free Software Foundation, either version 3 of the License, or
   (at your option) any later version.
   
   xtb is distributed in the hope that it will be useful,
   but WITHOUT ANY WARRANTY; without even the implied warranty of
   MERCHANTABILITY or FITNESS FOR A PARTICULAR PURPOSE.  See the
   GNU Lesser General Public License for more details.
   
   Cite this work as:
   * C. Bannwarth, E. Caldeweyher, S. Ehlert, A. Hansen, P. Pracht,
     J. Seibert, S. Spicher, S. Grimme, WIREs Comput. Mol. Sci., 2020, 11,
     e01493. DOI: 10.1002/wcms.1493
   
   for GFN2-xTB:
   * C. Bannwarth, S. Ehlert and S. Grimme., J. Chem. Theory Comput., 2019,
     15, 1652-1671. DOI: 10.1021/acs.jctc.8b01176
   for GFN1-xTB:
   * S. Grimme, C. Bannwarth, P. Shushkov, J. Chem. Theory Comput., 2017,
     13, 1989-2009. DOI: 10.1021/acs.jctc.7b00118
   for GFN0-xTB:
   * P. Pracht, E. Caldeweyher, S. Ehlert, S. Grimme, ChemRxiv, 2019, preprint.
     DOI: 10.26434/chemrxiv.8326202.v1
   for GFN-FF:
   * S. Spicher and S. Grimme, Angew. Chem. Int. Ed., 2020, 59, 15665-15673.
     DOI: 10.1002/anie.202004239
   
   for ALPB and GBSA implicit solvation:
   * S. Ehlert, M. Stahn, S. Spicher, S. Grimme, J. Chem. Theory Comput.,
     2021, 17, 4250-4261. DOI: 10.1021/acs.jctc.1c00471
   
   for ddCOSMO and CPCM-X implicit solvation:
   * M. Stahn, S. Ehlert, S. Grimme, J. Phys. Chem. A,
     2023, XX, XXXX-XXXX. DOI: 10.1021/acs.jpca.3c04382
   
   for DFT-D4:
   * E. Caldeweyher, C. Bannwarth and S. Grimme, J. Chem. Phys., 2017,
     147, 034112. DOI: 10.1063/1.4993215
   * E. Caldeweyher, S. Ehlert, A. Hansen, H. Neugebauer, S. Spicher,
     C. Bannwarth and S. Grimme, J. Chem. Phys., 2019, 150, 154122.
     DOI: 10.1063/1.5090222
   * E. Caldeweyher, J.-M. Mewes, S. Ehlert and S. Grimme, Phys. Chem. Chem. Phys.
     2020, 22, 8499-8512. DOI: 10.1039/D0CP00502A
   
   for sTDA-xTB:
   * S. Grimme and C. Bannwarth, J. Chem. Phys., 2016, 145, 054103.
     DOI: 10.1063/1.4959605
   
   in the mass-spec context:
   * V. Asgeirsson, C. Bauer and S. Grimme, Chem. Sci., 2017, 8, 4879.
     DOI: 10.1039/c7sc00601b
   * J. Koopman and S. Grimme, ACS Omega 2019, 4, 12, 15120-15133.
     DOI: 10.1021/acsomega.9b02011
   
   for metadynamics refer to:
   * S. Grimme, J. Chem. Theory Comput., 2019, 155, 2847-2862
     DOI: 10.1021/acs.jctc.9b00143
   
   for SPH calculations refer to:
   * S. Spicher and S. Grimme, J. Chem. Theory Comput., 2021, 17, 1701-1714
     DOI: 10.1021/acs.jctc.0c01306
   
   for ONIOM refer to:
   * C. Plett, A. Katbashev, S. Ehlert, S. Grimme, M. Bursch,
     Phys. Chem. Chem. Phys., 2023, 25, 17860-17868. DOI: 10.1039/D3CP02178E
   
   for DIPRO refer to:
   * J. Kohn, N. Gildemeister, S. Grimme, D. Fazzi, A. Hansen,
     J. Chem. Phys., 2023, just accepted.
   
   for PTB refer to:
   * S. Grimme, M. Mueller, A. Hansen, J. Chem. Phys., 2023, 158, 124111.
     DOI: 10.1063/5.0137838
   
   with help from (in alphabetical order)
   P. Atkinson, C. Bannwarth, F. Bohle, G. Brandenburg, E. Caldeweyher
   M. Checinski, S. Dohm, S. Ehlert, S. Ehrlich, I. Gerasimov, C. Hölzer
   A. Katbashev, J. Kohn, J. Koopman, C. Lavigne, S. Lehtola, F. März, M. Müller,
   F. Musil, H. Neugebauer, J. Pisarek, C. Plett, P. Pracht, F. Pultar,
   J. Seibert, P. Shushkov, S. Spicher, M. Stahn, M. Steiner, T. Strunk,
   J. Stückrath, T. Rose, and J. Unsleber
   
 * started run on 2025/12/08 at 00:33:59.100     
   ID    Z sym.   atoms
    1    6 C      1-98
    2    1 H      99-126
    3   15 P      127-132

           -------------------------------------------------
          |                Calculation Setup                |
           -------------------------------------------------

          program call               : xtb "C:\Users\LENOVO GAMING\Documents\GitHub\molecular-conductivity-sim\results\1.5nm-6Pdoped-5percent\xtbopt.xyz" --sp
          coordinate file            : C:\Users\LENOVO GAMING\Documents\GitHub\molecular-conductivity-sim\results\1.5nm-6Pdoped-5percent\xtbopt.xyz
          omp threads                :                    16


           -------------------------------------------------
          |                 G F N 2 - x T B                 |
           -------------------------------------------------

        Reference                      10.1021/acs.jctc.8b01176
      * Hamiltonian:
        H0-scaling (s, p, d)           1.850000    2.230000    2.230000
        zeta-weighting                 0.500000
      * Dispersion:
        s8                             2.700000
        a1                             0.520000
        a2                             5.000000
        s9                             5.000000
      * Repulsion:
        kExp                           1.500000    1.000000
        rExp                           1.000000
      * Coulomb:
        alpha                          2.000000
        third order                    shell-resolved
        anisotropic                    true
        a3                             3.000000
        a5                             4.000000
        cn-shift                       1.200000
        cn-exp                         4.000000
        max-rad                        5.000000

q/qsh data taken from xtbrestart
CAMM data taken from xtbrestart

          ...................................................
          :                      SETUP                      :
          :.................................................:
          :  # basis functions                 480          :
          :  # atomic orbitals                 474          :
          :  # shells                          242          :
          :  # electrons                       450          :
          :  max. iterations                   250          :
          :  Hamiltonian                  GFN2-xTB          :
          :  restarted?                       true          :
          :  GBSA solvation                  false          :
          :  PC potential                    false          :
          :  electronic temp.          300.0000000     K    :
          :  accuracy                    1.0000000          :
          :  -> integral cutoff          0.2500000E+02      :
          :  -> integral neglect         0.1000000E-07      :
          :  -> SCF convergence          0.1000000E-05 Eh   :
          :  -> wf. convergence          0.1000000E-03 e    :
          :  Broyden damping             0.4000000          :
          :  net charge                          0          :
          :  unpaired electrons                  0          :
          ...................................................

 iter      E             dE          RMSdq      gap      omega  full diag
   1   -244.2957678 -0.244296E+03  0.177E-05    0.51       0.0  T
   2   -244.2957678  0.370818E-09  0.459E-05    0.51     189.6  T
   3   -244.2957678 -0.356465E-09  0.154E-05    0.51     563.7  T

   *** convergence criteria satisfied after 3 iterations ***

         #    Occupation            Energy/Eh            Energy/eV
      -------------------------------------------------------------
         1        2.0000           -0.6856969             -18.6588
       ...           ...                  ...                  ...
       219        2.0000           -0.3798673             -10.3367
       220        2.0000           -0.3773772             -10.2690
       221        2.0000           -0.3691117             -10.0440
       222        2.0000           -0.3677971             -10.0083
       223        2.0000           -0.3581452              -9.7456
       224        2.0000           -0.3507345              -9.5440
       225        1.9999           -0.3330781              -9.0635 (HOMO)
       226        0.0001           -0.3142411              -8.5509 (LUMO)
       227                         -0.3055162              -8.3135
       228                         -0.2981349              -8.1127
       229                         -0.2831767              -7.7056
       230                         -0.2792632              -7.5991
       ...                                ...                  ...
       474                          1.0275282              27.9605
      -------------------------------------------------------------
                  HL-Gap            0.0188370 Eh            0.5126 eV
             Fermi-level           -0.3236597 Eh           -8.8072 eV

 SCC (total)                   0 d,  0 h,  0 min,  0.327 sec
 SCC setup                      ...        0 min,  0.002 sec (  0.612%)
 Dispersion                     ...        0 min,  0.010 sec (  3.058%)
 classical contributions        ...        0 min,  0.000 sec (  0.000%)
 integral evaluation            ...        0 min,  0.030 sec (  9.174%)
 iterations                     ...        0 min,  0.195 sec ( 59.633%)
 molecular gradient             ...        0 min,  0.085 sec ( 25.994%)
 printout                       ...        0 min,  0.005 sec (  1.529%)

         :::::::::::::::::::::::::::::::::::::::::::::::::::::
         ::                     SUMMARY                     ::
         :::::::::::::::::::::::::::::::::::::::::::::::::::::
         :: total energy            -239.836349570425 Eh    ::
         :: gradient norm              0.000348388424 Eh/a0 ::
         :: HOMO-LUMO gap              0.512581120076 eV    ::
         ::.................................................::
         :: SCC energy              -244.302624803957 Eh    ::
         :: -> isotropic ES            0.004453873961 Eh    ::
         :: -> anisotropic ES          0.006888389685 Eh    ::
         :: -> anisotropic XC          0.087542362818 Eh    ::
         :: -> dispersion             -0.306758448488 Eh    ::
         :: repulsion energy           4.466275233532 Eh    ::
         :: add. restraining           0.000000000000 Eh    ::
         :: total charge              -0.000000000000 e     ::
         :::::::::::::::::::::::::::::::::::::::::::::::::::::

           -------------------------------------------------
          |                Property Printout                |
           -------------------------------------------------

    * Orbital Energies and Occupations

         #    Occupation            Energy/Eh            Energy/eV
      -------------------------------------------------------------
         1        2.0000           -0.6856969             -18.6588
       ...           ...                  ...                  ...
       213        2.0000           -0.3947318             -10.7412
       214        2.0000           -0.3906879             -10.6312
       215        2.0000           -0.3902330             -10.6188
       216        2.0000           -0.3883572             -10.5677
       217        2.0000           -0.3855337             -10.4909
       218        2.0000           -0.3824580             -10.4072
       219        2.0000           -0.3798673             -10.3367
       220        2.0000           -0.3773772             -10.2690
       221        2.0000           -0.3691117             -10.0440
       222        2.0000           -0.3677971             -10.0083
       223        2.0000           -0.3581452              -9.7456
       224        2.0000           -0.3507345              -9.5440
       225        1.9999           -0.3330781              -9.0635 (HOMO)
       226        0.0001           -0.3142411              -8.5509 (LUMO)
       227                         -0.3055162              -8.3135
       228                         -0.2981349              -8.1127
       229                         -0.2831767              -7.7056
       230                         -0.2792632              -7.5991
       231                         -0.2708509              -7.3702
       232                         -0.2677059              -7.2846
       233                         -0.2648394              -7.2066
       234                         -0.2620996              -7.1321
       235                         -0.2558260              -6.9614
       236                         -0.2549473              -6.9375
       ...                                ...                  ...
       474                          1.0275282              27.9605
      -------------------------------------------------------------
                  HL-Gap            0.0188370 Eh            0.5126 eV
             Fermi-level           -0.3236597 Eh           -8.8072 eV

     #   Z          covCN         q      C6AA      α(0)
     1   6 C        2.947    -0.036    28.887     8.815
     2   6 C        3.044    -0.029    28.692     8.785
     3   6 C        3.087     0.007    27.762     8.637
     4   6 C        2.923    -0.037    28.908     8.817
     5   6 C        3.083     0.006    27.798     8.643
     6   6 C        2.919    -0.033    28.831     8.805
     7   6 C        3.103     0.004    27.810     8.641
     8   6 C        2.917    -0.036    28.900     8.816
     9   6 C        2.913     0.003    27.968     8.672
    10   6 C        2.976     0.001    28.000     8.680
    11   6 C        3.051    -0.034    28.801     8.802
    12   6 C        3.037     0.004    27.895     8.663
    13   6 C        3.086     0.002    27.879     8.655
    14   6 C        3.021     0.004    27.902     8.665
    15   6 C        3.077    -0.041    28.934     8.819
    16   6 C        2.914    -0.029    28.734     8.790
    17   6 C        2.990     0.006    27.885     8.662
    18   6 C        2.930     0.004    27.938     8.668
    19   6 C        2.929     0.002    27.980     8.675
    20   6 C        2.920     0.006    27.896     8.661
    21   6 C        2.977     0.002    27.973     8.676
    22   6 C        2.981     0.001    27.995     8.679
    23   6 C        2.914     0.004    27.937     8.667
    24   6 C        2.986     0.001    27.996     8.679
    25   6 C        2.983     0.011    27.760     8.643
    26   6 C        2.840    -0.032    28.793     8.794
    27   6 C        2.920    -0.005    28.149     8.700
    28   6 C        2.909    -0.000    28.029     8.681
    29   6 C        2.986     0.001    27.988     8.678
    30   6 C        2.973     0.000    28.015     8.682
    31   6 C        2.918     0.007    27.863     8.656
    32   6 C        3.073     0.003    27.885     8.658
    33   6 C        2.989     0.001    28.008     8.681
    34   6 C        2.994     0.001    27.998     8.680
    35   6 C        2.986     0.011    27.760     8.643
    36   6 C        3.179    -0.022    28.119     8.657
    37   6 C        3.063     0.011    27.701     8.631
    38   6 C        2.984     0.000    28.011     8.682
    39   6 C        3.050     0.004    27.881     8.660
    40   6 C        3.044    -0.042    28.997     8.832
    41   6 C        3.112     0.003    27.814     8.640
    42   6 C        2.917     0.004    27.930     8.666
    43   6 C        2.917    -0.034    28.856     8.809
    44   6 C        2.988    -0.002    28.072     8.691
    45   6 C        2.931    -0.045    29.112     8.849
    46   6 C        2.990    -0.000    28.026     8.684
    47   6 C        3.027     0.007    27.841     8.655
    48   6 C        2.991     0.001    27.991     8.679
    49   6 C        3.083     0.004    27.839     8.650
    50   6 C        2.986     0.001    27.992     8.679
    51   6 C        2.973     0.002    27.973     8.676
    52   6 C        2.990     0.001    28.002     8.680
    53   6 C        2.921     0.005    27.901     8.662
    54   6 C        2.989    -0.000    28.023     8.684
    55   6 C        2.994    -0.028    28.688     8.786
    56   6 C        2.987     0.000    28.016     8.682
    57   6 C        2.993    -0.000    28.020     8.683
    58   6 C        2.989     0.002    27.974     8.676
    59   6 C        2.990     0.001    28.008     8.681
    60   6 C        2.985     0.006    27.872     8.660
    61   6 C        2.990     0.000    28.016     8.682
    62   6 C        2.914    -0.030    28.747     8.792
    63   6 C        2.987     0.001    28.003     8.681
    64   6 C        2.926    -0.045    29.109     8.848
    65   6 C        2.982     0.005    27.902     8.665
    66   6 C        2.993     0.001    27.997     8.680
    67   6 C        2.919    -0.037    28.914     8.818
    68   6 C        2.989    -0.000    28.030     8.685
    69   6 C        2.991     0.002    27.971     8.676
    70   6 C        2.993     0.000    28.009     8.681
    71   6 C        2.979     0.012    27.746     8.640
    72   6 C        2.919    -0.037    28.910     8.817
    73   6 C        2.993     0.001    28.000     8.680
    74   6 C        2.988    -0.000    28.030     8.685
    75   6 C        2.997    -0.001    28.038     8.686
    76   6 C        2.993     0.001    27.990     8.679
    77   6 C        3.048    -0.042    28.992     8.831
    78   6 C        2.981     0.006    27.887     8.662
    79   6 C        2.995     0.000    28.011     8.682
    80   6 C        2.991     0.001    28.005     8.681
    81   6 C        2.967     0.012    27.737     8.639
    82   6 C        2.990     0.001    28.005     8.681
    83   6 C        2.916    -0.002    28.067     8.688
    84   6 C        3.037     0.003    27.925     8.668
    85   6 C        2.932    -0.035    28.863     8.811
    86   6 C        2.987    -0.000    28.032     8.685
    87   6 C        3.041     0.005    27.871     8.659
    88   6 C        2.990     0.000    28.018     8.683
    89   6 C        3.046    -0.034    28.804     8.802
    90   6 C        2.988     0.000    28.016     8.683
    91   6 C        2.839    -0.031    28.763     8.789
    92   6 C        2.983    -0.001    28.034     8.685
    93   6 C        2.989     0.001    27.990     8.678
    94   6 C        2.983     0.005    27.910     8.666
    95   6 C        2.989    -0.000    28.023     8.684
    96   6 C        2.925    -0.037    28.922     8.819
    97   6 C        2.988    -0.000    28.029     8.684
    98   6 C        2.990     0.002    27.979     8.677
    99   1 H        0.929     0.059     2.215     2.327
   100   1 H        0.925     0.035     2.512     2.478
   101   1 H        0.926     0.037     2.489     2.467
   102   1 H        0.976     0.050     2.312     2.376
   103   1 H        0.926     0.035     2.519     2.482
   104   1 H        0.926     0.037     2.494     2.470
   105   1 H        0.925     0.037     2.491     2.468
   106   1 H        0.925     0.038     2.477     2.461
   107   1 H        0.926     0.034     2.530     2.488
   108   1 H        0.926     0.045     2.382     2.414
   109   1 H        0.925     0.038     2.475     2.460
   110   1 H        0.976     0.053     2.282     2.360
   111   1 H        0.925     0.037     2.486     2.466
   112   1 H        0.926     0.036     2.496     2.471
   113   1 H        0.925     0.032     2.559     2.502
   114   1 H        0.925     0.033     2.539     2.492
   115   1 H        0.976     0.049     2.323     2.382
   116   1 H        0.926     0.034     2.536     2.490
   117   1 H        0.926     0.034     2.534     2.489
   118   1 H        0.926     0.035     2.512     2.478
   119   1 H        0.926     0.035     2.514     2.480
   120   1 H        0.925     0.037     2.491     2.468
   121   1 H        0.926     0.054     2.270     2.356
   122   1 H        0.925     0.036     2.502     2.474
   123   1 H        0.926     0.043     2.411     2.428
   124   1 H        0.926     0.037     2.491     2.468
   125   1 H        0.976     0.050     2.313     2.377
   126   1 H        0.977     0.049     2.325     2.383
   127  15 P        3.214    -0.081   163.895    22.997
   128  15 P        3.091    -0.101   164.801    23.061
   129  15 P        3.228    -0.085   164.078    23.010
   130  15 P        3.541    -0.038   161.902    22.857
   131  15 P        3.133    -0.113   165.337    23.098
   132  15 P        3.282    -0.097   164.591    23.046

 Mol. C6AA /au·bohr⁶  :     409685.406275
 Mol. C8AA /au·bohr⁸  :   12368392.236874
 Mol. α(0) /au        :       1059.354357


Wiberg/Mayer (AO) data.
largest (>0.10) Wiberg bond orders for each atom

 ---------------------------------------------------------------------------
     #   Z sym  total        # sym  WBO       # sym  WBO       # sym  WBO
 ---------------------------------------------------------------------------
     1   6 C    3.949 --     6 C    1.618     7 C    1.210    99 H    0.927
     2   6 C    3.967 --     8 C    1.569     9 C    1.269   100 H    0.954
     3   6 C    3.959 --     9 C    1.312     6 C    1.225    10 C    1.188
     4   6 C    3.985 --    16 C    1.489    17 C    1.334   101 H    0.961
     5   6 C    3.970 --    18 C    1.411     8 C    1.187    17 C    1.155
     6   6 C    3.970 --     1 C    1.618     3 C    1.225   103 H    0.963
     7   6 C    3.981 --    27 C    1.372     1 C    1.210    29 C    1.189
     8   6 C    3.854 --     2 C    1.569     5 C    1.187   104 H    0.962
     9   6 C    3.826 --     3 C    1.312     2 C    1.269   130 P    1.054
    10   6 C    3.930 --    29 C    1.362     3 C    1.188    32 C    1.161
    11   6 C    3.980 --    20 C    1.446    16 C    1.382   105 H    0.961
    12   6 C    3.981 --    20 C    1.284    17 C    1.274    21 C    1.182
    13   6 C    3.967 --    21 C    1.314    18 C    1.216    22 C    1.200
    14   6 C    3.954 --    24 C    1.284    23 C    1.223    21 C    1.219
    15   6 C    3.954 --    23 C    1.525    25 C    1.255   106 H    0.957
    16   6 C    3.974 --     4 C    1.489    11 C    1.382   107 H    0.969
    17   6 C    3.972 --     4 C    1.334    12 C    1.274     5 C    1.155
    18   6 C    3.911 --     5 C    1.411    13 C    1.216   130 P    1.032
    19   6 C    3.890 --    32 C    1.338    41 C    1.283   130 P    1.029
    20   6 C    3.970 --    11 C    1.446    12 C    1.284   129 P    1.044
    21   6 C    3.944 --    13 C    1.314    14 C    1.219    12 C    1.182
    22   6 C    3.934 --    50 C    1.326    13 C    1.200    41 C    1.183
    23   6 C    3.961 --    15 C    1.525    14 C    1.223   129 P    1.035
    24   6 C    3.971 --    14 C    1.284    57 C    1.251    50 C    1.209
    25   6 C    3.972 --    64 C    1.323    15 C    1.255    57 C    1.231
    26   6 C    3.862 --    36 C    1.685   131 P    1.100   108 H    0.949
    27   6 C    3.855 --     7 C    1.372    37 C    1.235   131 P    1.046
    28   6 C    3.792 --    37 C    1.379    36 C    1.201   132 P    1.063
    29   6 C    3.965 --    10 C    1.362    38 C    1.192     7 C    1.189
    30   6 C    3.931 --    38 C    1.332    39 C    1.245    37 C    1.134
    31   6 C    3.952 --    40 C    1.517    39 C    1.211   132 P    1.045
    32   6 C    3.961 --    19 C    1.338    70 C    1.239    10 C    1.161
    33   6 C    3.963 --    73 C    1.280    70 C    1.236    38 C    1.224
    34   6 C    3.974 --    39 C    1.268    75 C    1.242    73 C    1.237
    35   6 C    3.965 --    77 C    1.273    40 C    1.263    75 C    1.255
    36   6 C    3.988 --    26 C    1.685    28 C    1.201   109 H    0.947
    37   6 C    3.983 --    28 C    1.379    27 C    1.235    30 C    1.134
    38   6 C    3.965 --    30 C    1.332    33 C    1.224    29 C    1.192
    39   6 C    3.951 --    34 C    1.268    30 C    1.245    31 C    1.211
    40   6 C    3.965 --    31 C    1.517    35 C    1.263   111 H    0.958
    41   6 C    3.957 --    19 C    1.283    79 C    1.261    22 C    1.183
    42   6 C    3.956 --    77 C    1.507    84 C    1.227   127 P    1.040
    43   6 C    3.973 --    85 C    1.576    78 C    1.267   112 H    0.960
    44   6 C    3.975 --    70 C    1.262    79 C    1.251    80 C    1.232
    45   6 C    3.975 --    81 C    1.545    71 C    1.216   113 H    0.964
    46   6 C    3.961 --    80 C    1.276    82 C    1.238    73 C    1.227
    47   6 C    3.972 --    83 C    1.385    74 C    1.218    81 C    1.146
    48   6 C    3.976 --    84 C    1.276    75 C    1.243    82 C    1.229
    49   6 C    3.971 --    83 C    1.261    85 C    1.256    76 C    1.255
    50   6 C    3.969 --    22 C    1.326    86 C    1.215    24 C    1.209
    51   6 C    3.949 --    92 C    1.327    84 C    1.223    87 C    1.171
    52   6 C    3.962 --    86 C    1.274    88 C    1.241    79 C    1.228
    53   6 C    3.971 --    89 C    1.447    87 C    1.286   127 P    1.038
                            96 C    0.101
    54   6 C    3.964 --    90 C    1.268    88 C    1.239    80 C    1.238
    55   6 C    3.988 --    91 C    1.769    81 C    1.127   114 H    0.959
    56   6 C    3.963 --    82 C    1.277    90 C    1.241    92 C    1.226
    57   6 C    3.966 --    93 C    1.255    24 C    1.251    25 C    1.231
    58   6 C    3.983 --    94 C    1.309    98 C    1.249    92 C    1.196
    59   6 C    3.962 --    95 C    1.277    86 C    1.250    93 C    1.219
    60   6 C    3.974 --    96 C    1.333    87 C    1.286    94 C    1.154
    61   6 C    3.964 --    88 C    1.264    95 C    1.242    97 C    1.240
    62   6 C    3.975 --    96 C    1.492    89 C    1.381   116 H    0.969
    63   6 C    3.963 --    97 C    1.285    90 C    1.235    98 C    1.223
    64   6 C    3.896 --    71 C    1.399    25 C    1.323   117 H    0.966
    65   6 C    3.960 --    72 C    1.294    98 C    1.281    78 C    1.186
    66   6 C    3.961 --    93 C    1.279    74 C    1.252    71 C    1.204
    67   6 C    3.965 --    72 C    1.541    94 C    1.296   118 H    0.960
    68   6 C    3.979 --    74 C    1.272    76 C    1.253    95 C    1.224
    69   6 C    3.980 --    78 C    1.297    76 C    1.239    97 C    1.217
    70   6 C    3.961 --    44 C    1.262    32 C    1.239    33 C    1.236
    71   6 C    3.973 --    64 C    1.399    45 C    1.216    66 C    1.204
    72   6 C    3.963 --    67 C    1.541    65 C    1.294   119 H    0.960
    73   6 C    3.969 --    33 C    1.280    34 C    1.237    46 C    1.227
    74   6 C    3.965 --    68 C    1.272    66 C    1.252    47 C    1.218
    75   6 C    3.984 --    35 C    1.255    48 C    1.243    34 C    1.242
    76   6 C    3.977 --    49 C    1.255    68 C    1.253    69 C    1.239
    77   6 C    3.962 --    42 C    1.507    35 C    1.273   120 H    0.958
    78   6 C    3.945 --    69 C    1.297    43 C    1.267    65 C    1.186
    79   6 C    3.963 --    41 C    1.261    44 C    1.251    52 C    1.228
    80   6 C    3.964 --    46 C    1.276    54 C    1.238    44 C    1.232
    81   6 C    3.970 --    45 C    1.545    47 C    1.146    55 C    1.127
    82   6 C    3.966 --    56 C    1.277    46 C    1.238    48 C    1.229
    83   6 C    3.912 --    47 C    1.385    49 C    1.261   128 P    1.045
    84   6 C    3.958 --    48 C    1.276    42 C    1.227    51 C    1.223
    85   6 C    3.951 --    43 C    1.576    49 C    1.256   121 H    0.936
    86   6 C    3.954 --    52 C    1.274    59 C    1.250    50 C    1.215
    87   6 C    3.977 --    53 C    1.286    60 C    1.286    51 C    1.171
    88   6 C    3.963 --    61 C    1.264    52 C    1.241    54 C    1.239
    89   6 C    3.979 --    53 C    1.447    62 C    1.381   122 H    0.961
    90   6 C    3.957 --    54 C    1.268    56 C    1.241    63 C    1.235
    91   6 C    3.956 --    55 C    1.769   128 P    1.090   123 H    0.951
    92   6 C    3.974 --    51 C    1.327    56 C    1.226    58 C    1.196
    93   6 C    3.974 --    66 C    1.279    57 C    1.255    59 C    1.219
    94   6 C    3.964 --    58 C    1.309    67 C    1.296    60 C    1.154
    95   6 C    3.963 --    59 C    1.277    61 C    1.242    68 C    1.224
    96   6 C    3.985 --    62 C    1.492    60 C    1.333   124 H    0.961
                            53 C    0.101
    97   6 C    3.961 --    63 C    1.285    61 C    1.240    69 C    1.217
    98   6 C    3.976 --    65 C    1.281    58 C    1.249    63 C    1.223
    99   1 H    0.995 --     1 C    0.927
   100   1 H    0.996 --     2 C    0.954
   101   1 H    0.998 --     4 C    0.961
   102   1 H    0.969 --   131 P    0.910
   103   1 H    0.997 --     6 C    0.963
   104   1 H    0.998 --     8 C    0.962
   105   1 H    0.998 --    11 C    0.961
   106   1 H    0.997 --    15 C    0.957
   107   1 H    0.998 --    16 C    0.969
   108   1 H    0.997 --    26 C    0.949
   109   1 H    0.997 --    36 C    0.947
   110   1 H    0.976 --   132 P    0.927
   111   1 H    0.997 --    40 C    0.958
   112   1 H    0.998 --    43 C    0.960
   113   1 H    0.998 --    45 C    0.964
   114   1 H    0.998 --    55 C    0.959
   115   1 H    0.985 --   128 P    0.918
   116   1 H    0.998 --    62 C    0.969
   117   1 H    0.997 --    64 C    0.966
   118   1 H    0.998 --    67 C    0.960
   119   1 H    0.997 --    72 C    0.960
   120   1 H    0.998 --    77 C    0.958
   121   1 H    0.996 --    85 C    0.936
   122   1 H    0.998 --    89 C    0.961
   123   1 H    0.997 --    91 C    0.951
   124   1 H    0.998 --    96 C    0.961
   125   1 H    0.991 --   129 P    0.936
   126   1 H    0.992 --   127 P    0.940
   127  15 P    3.305 --    42 C    1.040    53 C    1.038   126 H    0.940
   128  15 P    3.369 --    91 C    1.090    83 C    1.045   115 H    0.918
   129  15 P    3.299 --    20 C    1.044    23 C    1.035   125 H    0.936
   130  15 P    3.503 --     9 C    1.054    18 C    1.032    19 C    1.029
   131  15 P    3.374 --    26 C    1.100    27 C    1.046   102 H    0.910
   132  15 P    3.324 --    28 C    1.063    31 C    1.045   110 H    0.927
 ---------------------------------------------------------------------------

Topologies differ in total number of bonds
Writing topology from bond orders to xtbtopo.mol

molecular dipole:
                 x           y           z       tot (Debye)
 q only:        0.425       0.338      -0.594
   full:        0.426       0.268      -1.404       3.791
molecular quadrupole (traceless):
                xx          xy          yy          xz          yz          zz
 q only:       -1.006      -2.288      23.793      -4.567       0.025     -22.788
  q+dip:       21.491      -2.970      40.749      -8.786       0.956     -62.240
   full:        5.459      -2.466      25.297      -8.789       1.542     -30.756


           -------------------------------------------------
          | TOTAL ENERGY             -239.836349570425 Eh   |
          | GRADIENT NORM               0.000348388424 Eh/α |
          | HOMO-LUMO GAP               0.512581120076 eV   |
           -------------------------------------------------

------------------------------------------------------------------------
 * finished run on 2025/12/08 at 00:33:59.541     
------------------------------------------------------------------------
 total:
 * wall-time:     0 d,  0 h,  0 min,  0.438 sec
 *  cpu-time:     0 d,  0 h,  0 min,  5.203 sec
 * ratio c/w:    11.879 speedup
 SCF:
 * wall-time:     0 d,  0 h,  0 min,  0.332 sec
 *  cpu-time:     0 d,  0 h,  0 min,  4.094 sec
 * ratio c/w:    12.331 speedup

normal termination of xtb
