      -----------------------------------------------------------      
     |                   =====================                   |     
     |                           x T B                           |     
     |                   =====================                   |     
     |                         S. Grimme                         |     
     |          Mulliken Center for Theoretical Chemistry        |     
     |                    University of Bonn                     |     
      -----------------------------------------------------------      

   * xtb version 6.7.1pre (5071a88) compiled by 'Marcel@Raven' on 2024-07-23

   xtb is free software: you can redistribute it and/or modify it under
   the terms of the GNU Lesser General Public License as published by
   the Free Software Foundation, either version 3 of the License, or
   (at your option) any later version.
   
   xtb is distributed in the hope that it will be useful,
   but WITHOUT ANY WARRANTY; without even the implied warranty of
   MERCHANTABILITY or FITNESS FOR A PARTICULAR PURPOSE.  See the
   GNU Lesser General Public License for more details.
   
   Cite this work as:
   * C. Bannwarth, E. Caldeweyher, S. Ehlert, A. Hansen, P. Pracht,
     J. Seibert, S. Spicher, S. Grimme, WIREs Comput. Mol. Sci., 2020, 11,
     e01493. DOI: 10.1002/wcms.1493
   
   for GFN2-xTB:
   * C. Bannwarth, S. Ehlert and S. Grimme., J. Chem. Theory Comput., 2019,
     15, 1652-1671. DOI: 10.1021/acs.jctc.8b01176
   for GFN1-xTB:
   * S. Grimme, C. Bannwarth, P. Shushkov, J. Chem. Theory Comput., 2017,
     13, 1989-2009. DOI: 10.1021/acs.jctc.7b00118
   for GFN0-xTB:
   * P. Pracht, E. Caldeweyher, S. Ehlert, S. Grimme, ChemRxiv, 2019, preprint.
     DOI: 10.26434/chemrxiv.8326202.v1
   for GFN-FF:
   * S. Spicher and S. Grimme, Angew. Chem. Int. Ed., 2020, 59, 15665-15673.
     DOI: 10.1002/anie.202004239
   
   for ALPB and GBSA implicit solvation:
   * S. Ehlert, M. Stahn, S. Spicher, S. Grimme, J. Chem. Theory Comput.,
     2021, 17, 4250-4261. DOI: 10.1021/acs.jctc.1c00471
   
   for ddCOSMO and CPCM-X implicit solvation:
   * M. Stahn, S. Ehlert, S. Grimme, J. Phys. Chem. A,
     2023, XX, XXXX-XXXX. DOI: 10.1021/acs.jpca.3c04382
   
   for DFT-D4:
   * E. Caldeweyher, C. Bannwarth and S. Grimme, J. Chem. Phys., 2017,
     147, 034112. DOI: 10.1063/1.4993215
   * E. Caldeweyher, S. Ehlert, A. Hansen, H. Neugebauer, S. Spicher,
     C. Bannwarth and S. Grimme, J. Chem. Phys., 2019, 150, 154122.
     DOI: 10.1063/1.5090222
   * E. Caldeweyher, J.-M. Mewes, S. Ehlert and S. Grimme, Phys. Chem. Chem. Phys.
     2020, 22, 8499-8512. DOI: 10.1039/D0CP00502A
   
   for sTDA-xTB:
   * S. Grimme and C. Bannwarth, J. Chem. Phys., 2016, 145, 054103.
     DOI: 10.1063/1.4959605
   
   in the mass-spec context:
   * V. Asgeirsson, C. Bauer and S. Grimme, Chem. Sci., 2017, 8, 4879.
     DOI: 10.1039/c7sc00601b
   * J. Koopman and S. Grimme, ACS Omega 2019, 4, 12, 15120-15133.
     DOI: 10.1021/acsomega.9b02011
   
   for metadynamics refer to:
   * S. Grimme, J. Chem. Theory Comput., 2019, 155, 2847-2862
     DOI: 10.1021/acs.jctc.9b00143
   
   for SPH calculations refer to:
   * S. Spicher and S. Grimme, J. Chem. Theory Comput., 2021, 17, 1701-1714
     DOI: 10.1021/acs.jctc.0c01306
   
   for ONIOM refer to:
   * C. Plett, A. Katbashev, S. Ehlert, S. Grimme, M. Bursch,
     Phys. Chem. Chem. Phys., 2023, 25, 17860-17868. DOI: 10.1039/D3CP02178E
   
   for DIPRO refer to:
   * J. Kohn, N. Gildemeister, S. Grimme, D. Fazzi, A. Hansen,
     J. Chem. Phys., 2023, just accepted.
   
   for PTB refer to:
   * S. Grimme, M. Mueller, A. Hansen, J. Chem. Phys., 2023, 158, 124111.
     DOI: 10.1063/5.0137838
   
   with help from (in alphabetical order)
   P. Atkinson, C. Bannwarth, F. Bohle, G. Brandenburg, E. Caldeweyher
   M. Checinski, S. Dohm, S. Ehlert, S. Ehrlich, I. Gerasimov, C. Hölzer
   A. Katbashev, J. Kohn, J. Koopman, C. Lavigne, S. Lehtola, F. März, M. Müller,
   F. Musil, H. Neugebauer, J. Pisarek, C. Plett, P. Pracht, F. Pultar,
   J. Seibert, P. Shushkov, S. Spicher, M. Stahn, M. Steiner, T. Strunk,
   J. Stückrath, T. Rose, and J. Unsleber
   
 * started run on 2025/12/08 at 00:33:22.679     
   ID    Z sym.   atoms
    1    6 C      1-98
    2    1 H      99-126
    3   15 P      127-132

           -------------------------------------------------
          |                Calculation Setup                |
           -------------------------------------------------

          program call               : xtb "C:\Users\LENOVO GAMING\Documents\GitHub\molecular-conductivity-sim\dataset\1.5nm-6Pdoped-5percent.xyz" --opt --parallel 4
          coordinate file            : C:\Users\LENOVO GAMING\Documents\GitHub\molecular-conductivity-sim\dataset\1.5nm-6Pdoped-5percent.xyz
          omp threads                :                     4


           -------------------------------------------------
          |                 G F N 2 - x T B                 |
           -------------------------------------------------

        Reference                      10.1021/acs.jctc.8b01176
      * Hamiltonian:
        H0-scaling (s, p, d)           1.850000    2.230000    2.230000
        zeta-weighting                 0.500000
      * Dispersion:
        s8                             2.700000
        a1                             0.520000
        a2                             5.000000
        s9                             5.000000
      * Repulsion:
        kExp                           1.500000    1.000000
        rExp                           1.000000
      * Coulomb:
        alpha                          2.000000
        third order                    shell-resolved
        anisotropic                    true
        a3                             3.000000
        a5                             4.000000
        cn-shift                       1.200000
        cn-exp                         4.000000
        max-rad                        5.000000


          ...................................................
          :                      SETUP                      :
          :.................................................:
          :  # basis functions                 480          :
          :  # atomic orbitals                 474          :
          :  # shells                          242          :
          :  # electrons                       450          :
          :  max. iterations                   250          :
          :  Hamiltonian                  GFN2-xTB          :
          :  restarted?                      false          :
          :  GBSA solvation                  false          :
          :  PC potential                    false          :
          :  electronic temp.          300.0000000     K    :
          :  accuracy                    1.0000000          :
          :  -> integral cutoff          0.2500000E+02      :
          :  -> integral neglect         0.1000000E-07      :
          :  -> SCF convergence          0.1000000E-05 Eh   :
          :  -> wf. convergence          0.1000000E-03 e    :
          :  Broyden damping             0.4000000          :
          :  net charge                          0          :
          :  unpaired electrons                  0          :
          ...................................................

 iter      E             dE          RMSdq      gap      omega  full diag
   1   -243.8940949 -0.243894E+03  0.514E+00    0.63       0.0  T
   2   -243.8257599  0.683350E-01  0.315E+00    0.71       1.0  T
   3   -239.9881020  0.383766E+01  0.339E+00    0.18       1.0  T
   4   -243.5278793 -0.353978E+01  0.116E+00    0.67       1.0  T
   5   -243.9402326 -0.412353E+00  0.717E-01    0.62       1.0  T
   6   -243.9629964 -0.227638E-01  0.485E-01    0.61       1.0  T
   7   -243.9549060  0.809046E-02  0.450E-01    0.61       1.0  T
   8   -243.9769841 -0.220781E-01  0.123E-01    0.58       1.0  T
   9   -243.9781043 -0.112023E-02  0.593E-02    0.57       1.0  T
  10   -243.9783168 -0.212450E-03  0.300E-02    0.57       1.0  T
  11   -243.9783724 -0.555755E-04  0.178E-02    0.57       1.0  T
  12   -243.9783918 -0.194298E-04  0.960E-03    0.57       1.0  T
  13   -243.9783993 -0.749653E-05  0.364E-03    0.57       2.4  T
  14   -243.9784000 -0.678343E-06  0.117E-03    0.57       7.5  T
  15   -243.9784000 -0.882066E-07  0.443E-04    0.57      19.7  T
  16   -243.9784001 -0.121299E-07  0.281E-04    0.57      31.0  T

   *** convergence criteria satisfied after 16 iterations ***

         #    Occupation            Energy/Eh            Energy/eV
      -------------------------------------------------------------
         1        2.0000           -0.6848107             -18.6346
       ...           ...                  ...                  ...
       219        2.0000           -0.3800384             -10.3414
       220        2.0000           -0.3757392             -10.2244
       221        2.0000           -0.3699060             -10.0657
       222        2.0000           -0.3667289              -9.9792
       223        2.0000           -0.3586038              -9.7581
       224        2.0000           -0.3509020              -9.5485
       225        2.0000           -0.3335819              -9.0772 (HOMO)
       226        0.0000           -0.3125295              -8.5044 (LUMO)
       227                         -0.3060750              -8.3287
       228                         -0.2983845              -8.1195
       229                         -0.2837671              -7.7217
       230                         -0.2812660              -7.6536
       ...                                ...                  ...
       474                          0.9385440              25.5391
      -------------------------------------------------------------
                  HL-Gap            0.0210524 Eh            0.5729 eV
             Fermi-level           -0.3230562 Eh           -8.7908 eV

 SCC (total)                   0 d,  0 h,  0 min,  1.393 sec
 SCC setup                      ...        0 min,  0.001 sec (  0.072%)
 Dispersion                     ...        0 min,  0.006 sec (  0.431%)
 classical contributions        ...        0 min,  0.000 sec (  0.000%)
 integral evaluation            ...        0 min,  0.050 sec (  3.589%)
 iterations                     ...        0 min,  1.139 sec ( 81.766%)
 molecular gradient             ...        0 min,  0.190 sec ( 13.640%)
 printout                       ...        0 min,  0.005 sec (  0.359%)

         :::::::::::::::::::::::::::::::::::::::::::::::::::::
         ::                     SUMMARY                     ::
         :::::::::::::::::::::::::::::::::::::::::::::::::::::
         :: total energy            -239.810693191674 Eh    ::
         :: gradient norm              0.053709502133 Eh/a0 ::
         :: HOMO-LUMO gap              0.572864033836 eV    ::
         ::.................................................::
         :: SCC energy              -243.985314839900 Eh    ::
         :: -> isotropic ES            0.003802727465 Eh    ::
         :: -> anisotropic ES          0.007954697793 Eh    ::
         :: -> anisotropic XC          0.094129651678 Eh    ::
         :: -> dispersion             -0.302063603604 Eh    ::
         :: repulsion energy           4.174621648226 Eh    ::
         :: add. restraining           0.000000000000 Eh    ::
         :: total charge              -0.000000000000 e     ::
         :::::::::::::::::::::::::::::::::::::::::::::::::::::

      ----------------------------------------------------------- 
     |                   =====================                   |
     |                        A N C O P T                        |
     |                   =====================                   |
     |               Approximate Normal Coordinate               |
     |                Rational Function Optimizer                |
      ----------------------------------------------------------- 
      ----------------------------------------------------------- 
     |                   =====================                   |
     |                        A N C O P T                        |
     |                   =====================                   |
     |               Approximate Normal Coordinate               |
     |                Rational Function Optimizer                |
      ----------------------------------------------------------- 

          ...................................................
          :                      SETUP                      :
          :.................................................:
          :   optimization level            normal          :
          :   max. optcycles                   396          :
          :   ANC micro-cycles                  20          :
          :   degrees of freedom               390          :
          :.................................................:
          :   RF solver                   davidson          :
          :   write xtbopt.log                true          :
          :   linear?                        false          :
          :   energy convergence         0.5000000E-05 Eh   :
          :   grad. convergence          0.1000000E-02 Eh/α :
          :   maxmium RF displ.          1.0000000          :
          :   Hlow (freq-cutoff)         0.1000000E-01      :
          :   Hmax (freq-cutoff)         5.0000000          :
          :   S6 in model hess.         20.0000000          :
          ...................................................

generating ANC from exact Hessian ...
Using Lindh-Hessian (1995)
 Shifting diagonal of input Hessian by   9.888181097121735E-003
 Lowest  eigenvalues of input Hessian
    0.000000    0.000000    0.000000    0.000000    0.000000    0.000000
    0.010000    0.010117    0.010208    0.010372    0.010404    0.011120
    0.011136    0.011348    0.011432    0.011705    0.012573    0.012804
 Highest eigenvalues
    2.054575    2.056210    2.072540    2.093344    2.118794    2.122906
 

........................................................................
.............................. CYCLE    1 ..............................
........................................................................

 iter      E             dE          RMSdq      gap      omega  full diag
   1   -243.9784001 -0.243978E+03  0.122E-04    0.57       0.0  T
   2   -243.9784001  0.631849E-08  0.200E-04    0.57      43.5  T
   3   -243.9784001 -0.207248E-08  0.178E-04    0.57      49.0  T
     SCC iter.                  ...        0 min,  0.208 sec
     gradient                   ...        0 min,  0.190 sec
 * total energy  :  -239.8106932 Eh     change       -0.3150262E-08 Eh
   gradient norm :     0.0537090 Eh/α   predicted     0.0000000E+00 (-100.00%)
   displ. norm   :     0.5642706 α      lambda       -0.2030287E-01
   maximum displ.:     0.2315179 α      in ANC's #56, #51, #50, ...

........................................................................
.............................. CYCLE    2 ..............................
........................................................................

 iter      E             dE          RMSdq      gap      omega  full diag
   1   -244.1082393 -0.244108E+03  0.195E-01    0.56       0.0  T
   2   -244.1082858 -0.465060E-04  0.111E-01    0.56       1.0  T
   3   -244.1077625  0.523273E-03  0.617E-02    0.56       1.0  T
   4   -244.1077277  0.348277E-04  0.578E-02    0.56       1.0  T
   5   -244.1080968 -0.369150E-03  0.360E-02    0.56       1.0  T
   6   -244.1083318 -0.234981E-03  0.650E-03    0.56       1.3  T
   7   -244.1083373 -0.550908E-05  0.159E-03    0.56       5.5  T
   8   -244.1083375 -0.163144E-06  0.946E-04    0.56       9.2  T
   9   -244.1083375 -0.351653E-07  0.418E-04    0.56      20.8  T
     SCC iter.                  ...        0 min,  0.639 sec
     gradient                   ...        0 min,  0.195 sec
 * total energy  :  -239.8256083 Eh     change       -0.1491508E-01 Eh
   gradient norm :     0.0283624 Eh/α   predicted    -0.1338402E-01 ( -10.27%)
   displ. norm   :     0.5619762 α      lambda       -0.1030244E-01
   maximum displ.:     0.2160990 α      in ANC's #56, #51, #50, ...

........................................................................
.............................. CYCLE    3 ..............................
........................................................................

 iter      E             dE          RMSdq      gap      omega  full diag
   1   -244.2345571 -0.244235E+03  0.121E-01    0.53       0.0  T
   2   -244.2333344  0.122271E-02  0.104E-01    0.54       1.0  T
   3   -244.2238243  0.951015E-02  0.246E-01    0.54       1.0  T
   4   -244.2344749 -0.106506E-01  0.339E-02    0.53       1.0  T
   5   -244.2346408 -0.165881E-03  0.974E-03    0.54       1.0  T
   6   -244.2346485 -0.771346E-05  0.525E-03    0.54       1.7  T
   7   -244.2346516 -0.308730E-05  0.173E-03    0.54       5.0  T
   8   -244.2346516 -0.595573E-07  0.108E-03    0.54       8.0  T
   9   -244.2346518 -0.131164E-06  0.314E-04    0.54      27.7  T
  10   -244.2346518 -0.322655E-08  0.180E-04    0.54      48.2  T
     SCC iter.                  ...        0 min,  0.716 sec
     gradient                   ...        0 min,  0.187 sec
 * total energy  :  -239.8323381 Eh     change       -0.6729848E-02 Eh
   gradient norm :     0.0116951 Eh/α   predicted    -0.6778067E-02 (   0.72%)
   displ. norm   :     0.3516858 α      lambda       -0.2385302E-02
   maximum displ.:     0.1013735 α      in ANC's #50, #32, #51, ...

........................................................................
.............................. CYCLE    4 ..............................
........................................................................

 iter      E             dE          RMSdq      gap      omega  full diag
   1   -244.2842736 -0.244284E+03  0.761E-02    0.52       0.0  T
   2   -244.2841831  0.904859E-04  0.485E-02    0.53       1.0  T
   3   -244.2788028  0.538033E-02  0.169E-01    0.53       1.0  T
   4   -244.2842588 -0.545600E-02  0.134E-02    0.52       1.0  T
   5   -244.2842857 -0.269162E-04  0.568E-03    0.53       1.5  T
   6   -244.2842891 -0.342984E-05  0.196E-03    0.52       4.4  T
   7   -244.2842894 -0.279256E-06  0.961E-04    0.52       9.1  T
   8   -244.2842895 -0.639508E-07  0.468E-04    0.52      18.6  T
     SCC iter.                  ...        0 min,  0.566 sec
     gradient                   ...        0 min,  0.192 sec
 * total energy  :  -239.8337789 Eh     change       -0.1440821E-02 Eh
   gradient norm :     0.0059871 Eh/α   predicted    -0.1340188E-02 (  -6.98%)
   displ. norm   :     0.1826774 α      lambda       -0.4312436E-03
   maximum displ.:     0.0659649 α      in ANC's #13, #15, #27, ...

........................................................................
.............................. CYCLE    5 ..............................
........................................................................

 iter      E             dE          RMSdq      gap      omega  full diag
   1   -244.2955719 -0.244296E+03  0.436E-02    0.52       0.0  T
   2   -244.2955580  0.138866E-04  0.265E-02    0.52       1.0  T
   3   -244.2941095  0.144848E-02  0.871E-02    0.52       1.0  T
   4   -244.2955661 -0.145663E-02  0.710E-03    0.52       1.2  T
   5   -244.2955740 -0.787635E-05  0.259E-03    0.52       3.4  T
   6   -244.2955748 -0.805302E-06  0.863E-04    0.52      10.1  T
   7   -244.2955749 -0.528391E-07  0.473E-04    0.52      18.4  T
     SCC iter.                  ...        0 min,  0.490 sec
     gradient                   ...        0 min,  0.188 sec
 * total energy  :  -239.8340696 Eh     change       -0.2906231E-03 Eh
   gradient norm :     0.0033504 Eh/α   predicted    -0.2228246E-03 ( -23.33%)
   displ. norm   :     0.1886697 α      lambda       -0.2394115E-03
   maximum displ.:     0.0878012 α      in ANC's #13, #15, #9, ...

........................................................................
.............................. CYCLE    6 ..............................
........................................................................

 iter      E             dE          RMSdq      gap      omega  full diag
   1   -244.2964287 -0.244296E+03  0.405E-02    0.52       0.0  T
   2   -244.2964130  0.157087E-04  0.250E-02    0.52       1.0  T
   3   -244.2949991  0.141396E-02  0.859E-02    0.52       1.0  T
   4   -244.2964220 -0.142299E-02  0.764E-03    0.52       1.1  T
   5   -244.2964307 -0.869397E-05  0.209E-03    0.52       4.2  T
   6   -244.2964313 -0.547143E-06  0.747E-04    0.52      11.7  T
   7   -244.2964313 -0.536654E-07  0.346E-04    0.52      25.2  T
     SCC iter.                  ...        0 min,  0.491 sec
     gradient                   ...        0 min,  0.200 sec
 * total energy  :  -239.8342376 Eh     change       -0.1680466E-03 Eh
   gradient norm :     0.0025380 Eh/α   predicted    -0.1239722E-03 ( -26.23%)
   displ. norm   :     0.2045047 α      lambda       -0.1677073E-03
   maximum displ.:     0.1024229 α      in ANC's #13, #15, #7, ...

........................................................................
.............................. CYCLE    7 ..............................
........................................................................

 iter      E             dE          RMSdq      gap      omega  full diag
   1   -244.2928089 -0.244293E+03  0.416E-02    0.52       0.0  T
   2   -244.2928088  0.155175E-06  0.244E-02    0.52       1.0  T
   3   -244.2926883  0.120471E-03  0.251E-02    0.52       1.0  T
   4   -244.2927738 -0.855222E-04  0.138E-02    0.52       1.0  T
   5   -244.2928099 -0.361101E-04  0.165E-03    0.52       5.3  T
   6   -244.2928103 -0.375332E-06  0.612E-04    0.52      14.2  T
   7   -244.2928103 -0.375406E-07  0.274E-04    0.52      31.8  T
     SCC iter.                  ...        0 min,  0.480 sec
     gradient                   ...        0 min,  0.187 sec
 * total energy  :  -239.8343552 Eh     change       -0.1175766E-03 Eh
   gradient norm :     0.0029309 Eh/α   predicted    -0.8736348E-04 ( -25.70%)
   displ. norm   :     0.1931462 α      lambda       -0.1152443E-03
   maximum displ.:     0.0984526 α      in ANC's #13, #7, #15, ...

........................................................................
.............................. CYCLE    8 ..............................
........................................................................

 iter      E             dE          RMSdq      gap      omega  full diag
   1   -244.2898070 -0.244290E+03  0.375E-02    0.52       0.0  T
   2   -244.2898017  0.529893E-05  0.227E-02    0.52       1.0  T
   3   -244.2890121  0.789665E-03  0.635E-02    0.52       1.0  T
   4   -244.2898024 -0.790322E-03  0.572E-03    0.52       1.5  T
   5   -244.2898081 -0.564930E-05  0.108E-03    0.52       8.1  T
   6   -244.2898082 -0.118145E-06  0.522E-04    0.52      16.7  T
   7   -244.2898082 -0.326587E-07  0.209E-04    0.52      41.7  T
     SCC iter.                  ...        0 min,  0.494 sec
     gradient                   ...        0 min,  0.200 sec
 * total energy  :  -239.8344362 Eh     change       -0.8096633E-04 Eh
   gradient norm :     0.0025957 Eh/α   predicted    -0.5977487E-04 ( -26.17%)
   displ. norm   :     0.1675225 α      lambda       -0.7952923E-04
   maximum displ.:     0.0809898 α      in ANC's #13, #7, #8, ...

........................................................................
.............................. CYCLE    9 ..............................
........................................................................

 iter      E             dE          RMSdq      gap      omega  full diag
   1   -244.2886906 -0.244289E+03  0.323E-02    0.51       0.0  T
   2   -244.2886558  0.347784E-04  0.230E-02    0.51       1.0  T
   3   -244.2874925  0.116326E-02  0.787E-02    0.52       1.0  T
   4   -244.2886908 -0.119832E-02  0.325E-03    0.51       2.7  T
   5   -244.2886924 -0.151461E-05  0.115E-03    0.51       7.6  T
   6   -244.2886925 -0.161422E-06  0.468E-04    0.51      18.6  T
   7   -244.2886925 -0.263532E-07  0.199E-04    0.51      43.6  T
     SCC iter.                  ...        0 min,  0.481 sec
     gradient                   ...        0 min,  0.190 sec
 * total energy  :  -239.8344916 Eh     change       -0.5541068E-04 Eh
   gradient norm :     0.0018545 Eh/α   predicted    -0.4088188E-04 ( -26.22%)
   displ. norm   :     0.1999117 α      lambda       -0.5093420E-04
   maximum displ.:     0.0867888 α      in ANC's #8, #13, #7, ...

........................................................................
.............................. CYCLE   10 ..............................
........................................................................

 iter      E             dE          RMSdq      gap      omega  full diag
   1   -244.2899378 -0.244290E+03  0.382E-02    0.51       0.0  T
   2   -244.2898130  0.124775E-03  0.336E-02    0.51       1.0  T
   3   -244.2887394  0.107365E-02  0.799E-02    0.51       1.0  T
   4   -244.2899408 -0.120147E-02  0.415E-03    0.51       2.1  T
   5   -244.2899431 -0.227186E-05  0.157E-03    0.51       5.5  T
   6   -244.2899434 -0.282416E-06  0.626E-04    0.51      13.9  T
   7   -244.2899434 -0.463581E-07  0.268E-04    0.51      32.4  T
     SCC iter.                  ...        0 min,  0.501 sec
     gradient                   ...        0 min,  0.206 sec
 * total energy  :  -239.8345327 Eh     change       -0.4118322E-04 Eh
   gradient norm :     0.0020318 Eh/α   predicted    -0.2592048E-04 ( -37.06%)
   displ. norm   :     0.0446433 α      lambda       -0.2039541E-04
   maximum displ.:     0.0203917 α      in ANC's #8, #6, #2, ...

........................................................................
.............................. CYCLE   11 ..............................
........................................................................

 iter      E             dE          RMSdq      gap      omega  full diag
   1   -244.2910731 -0.244291E+03  0.875E-03    0.51       0.0  T
   2   -244.2910685  0.461543E-05  0.705E-03    0.51       1.2  T
   3   -244.2910005  0.679945E-04  0.195E-02    0.51       1.0  T
   4   -244.2910730 -0.725355E-04  0.154E-03    0.51       5.6  T
   5   -244.2910734 -0.344869E-06  0.385E-04    0.51      22.6  T
   6   -244.2910734 -0.975922E-08  0.205E-04    0.51      42.5  T
     SCC iter.                  ...        0 min,  0.443 sec
     gradient                   ...        0 min,  0.211 sec
 * total energy  :  -239.8345492 Eh     change       -0.1646624E-04 Eh
   gradient norm :     0.0015026 Eh/α   predicted    -0.1022251E-04 ( -37.92%)
   displ. norm   :     0.1537462 α      lambda       -0.3433218E-04
   maximum displ.:     0.0719802 α      in ANC's #8, #6, #2, ...

........................................................................
.............................. CYCLE   12 ..............................
........................................................................

 iter      E             dE          RMSdq      gap      omega  full diag
   1   -244.2931234 -0.244293E+03  0.276E-02    0.51       0.0  T
   2   -244.2931087  0.146877E-04  0.186E-02    0.51       1.0  T
   3   -244.2922928  0.815957E-03  0.653E-02    0.51       1.0  T
   4   -244.2931198 -0.827009E-03  0.544E-03    0.51       1.6  T
   5   -244.2931247 -0.496618E-05  0.843E-04    0.51      10.3  T
   6   -244.2931248 -0.467539E-07  0.515E-04    0.51      16.9  T
   7   -244.2931248 -0.400869E-07  0.170E-04    0.51      51.2  T
     SCC iter.                  ...        0 min,  0.562 sec
     gradient                   ...        0 min,  0.218 sec
 * total energy  :  -239.8345731 Eh     change       -0.2386944E-04 Eh
   gradient norm :     0.0015831 Eh/α   predicted    -0.1735056E-04 ( -27.31%)
   displ. norm   :     0.0683338 α      lambda       -0.1230422E-04
   maximum displ.:     0.0366580 α      in ANC's #8, #2, #6, ...

........................................................................
.............................. CYCLE   13 ..............................
........................................................................

 iter      E             dE          RMSdq      gap      omega  full diag
   1   -244.2923471 -0.244292E+03  0.108E-02    0.51       0.0  T
   2   -244.2923440  0.303865E-05  0.754E-03    0.51       1.2  T
   3   -244.2922114  0.132674E-03  0.263E-02    0.51       1.0  T
   4   -244.2923471 -0.135754E-03  0.114E-03    0.51       7.6  T
   5   -244.2923472 -0.139308E-06  0.557E-04    0.51      15.6  T
   6   -244.2923473 -0.412495E-07  0.173E-04    0.51      50.2  T
     SCC iter.                  ...        0 min,  0.415 sec
     gradient                   ...        0 min,  0.187 sec
 * total energy  :  -239.8345891 Eh     change       -0.1598185E-04 Eh
   gradient norm :     0.0012080 Eh/α   predicted    -0.6166093E-05 ( -61.42%)
   displ. norm   :     0.2382639 α      lambda       -0.4213017E-04
   maximum displ.:     0.1171684 α      in ANC's #8, #2, #6, ...

........................................................................
.............................. CYCLE   14 ..............................
........................................................................

 iter      E             dE          RMSdq      gap      omega  full diag
   1   -244.2902405 -0.244290E+03  0.379E-02    0.51       0.0  T
   2   -244.2901556  0.848658E-04  0.307E-02    0.51       1.0  T
   3   -244.2888724  0.128321E-02  0.843E-02    0.51       1.0  T
   4   -244.2902422 -0.136982E-02  0.407E-03    0.51       2.1  T
   5   -244.2902443 -0.212279E-05  0.167E-03    0.51       5.2  T
   6   -244.2902446 -0.323447E-06  0.642E-04    0.51      13.6  T
   7   -244.2902447 -0.448271E-07  0.245E-04    0.51      35.5  T
     SCC iter.                  ...        0 min,  0.497 sec
     gradient                   ...        0 min,  0.207 sec
 * total energy  :  -239.8346333 Eh     change       -0.4420507E-04 Eh
   gradient norm :     0.0015493 Eh/α   predicted    -0.2160009E-04 ( -51.14%)
   displ. norm   :     0.3548192 α      lambda       -0.3785652E-04
   maximum displ.:     0.1704665 α      in ANC's #8, #2, #6, ...

........................................................................
.............................. CYCLE   15 ..............................
........................................................................

 iter      E             dE          RMSdq      gap      omega  full diag
   1   -244.2891357 -0.244289E+03  0.553E-02    0.51       0.0  T
   2   -244.2891309  0.480656E-05  0.326E-02    0.51       1.0  T
   3   -244.2881590  0.971885E-03  0.703E-02    0.51       1.0  T
   4   -244.2891268 -0.967863E-03  0.788E-03    0.51       1.1  T
   5   -244.2891371 -0.102318E-04  0.235E-03    0.51       3.7  T
   6   -244.2891377 -0.672861E-06  0.813E-04    0.51      10.7  T
   7   -244.2891378 -0.728663E-07  0.328E-04    0.51      26.6  T
     SCC iter.                  ...        0 min,  0.471 sec
     gradient                   ...        0 min,  0.191 sec
 * total energy  :  -239.8346739 Eh     change       -0.4066630E-04 Eh
   gradient norm :     0.0021856 Eh/α   predicted    -0.1998878E-04 ( -50.85%)
   displ. norm   :     0.2819529 α      lambda       -0.4015636E-04
   maximum displ.:     0.1296115 α      in ANC's #8, #2, #6, ...

........................................................................
.............................. CYCLE   16 ..............................
........................................................................

 iter      E             dE          RMSdq      gap      omega  full diag
   1   -244.2892265 -0.244289E+03  0.421E-02    0.51       0.0  T
   2   -244.2892270 -0.499403E-06  0.244E-02    0.51       1.0  T
   3   -244.2891682  0.587717E-04  0.176E-02    0.51       1.0  T
   4   -244.2891918 -0.236089E-04  0.136E-02    0.51       1.0  T
   5   -244.2892271 -0.353481E-04  0.213E-03    0.51       4.1  T
   6   -244.2892278 -0.617430E-06  0.709E-04    0.51      12.3  T
   7   -244.2892278 -0.627579E-07  0.258E-04    0.51      33.7  T
     SCC iter.                  ...        0 min,  0.478 sec
     gradient                   ...        0 min,  0.172 sec
 * total energy  :  -239.8347070 Eh     change       -0.3309434E-04 Eh
   gradient norm :     0.0022389 Eh/α   predicted    -0.2167660E-04 ( -34.50%)
   displ. norm   :     0.4149157 α      lambda       -0.6313122E-04
   maximum displ.:     0.1748437 α      in ANC's #2, #8, #6, ...

........................................................................
.............................. CYCLE   17 ..............................
........................................................................

 iter      E             dE          RMSdq      gap      omega  full diag
   1   -244.2902670 -0.244290E+03  0.628E-02    0.51       0.0  T
   2   -244.2902629  0.406030E-05  0.367E-02    0.51       1.0  T
   3   -244.2893692  0.893719E-03  0.677E-02    0.52       1.0  T
   4   -244.2902467 -0.877512E-03  0.112E-02    0.51       1.0  T
   5   -244.2902691 -0.223970E-04  0.232E-03    0.51       3.8  T
   6   -244.2902697 -0.568791E-06  0.986E-04    0.51       8.8  T
   7   -244.2902698 -0.119649E-06  0.376E-04    0.51      23.1  T
     SCC iter.                  ...        0 min,  0.499 sec
     gradient                   ...        0 min,  0.197 sec
 * total energy  :  -239.8347576 Eh     change       -0.5059776E-04 Eh
   gradient norm :     0.0020528 Eh/α   predicted    -0.3700532E-04 ( -26.86%)
   displ. norm   :     0.4127811 α      lambda       -0.7061363E-04
   maximum displ.:     0.1758876 α      in ANC's #2, #3, #6, ...

........................................................................
.............................. CYCLE   18 ..............................
........................................................................

 iter      E             dE          RMSdq      gap      omega  full diag
   1   -244.2922458 -0.244292E+03  0.628E-02    0.51       0.0  T
   2   -244.2922361  0.970305E-05  0.371E-02    0.51       1.0  T
   3   -244.2906280  0.160808E-02  0.908E-02    0.52       1.0  T
   4   -244.2922296 -0.160163E-02  0.104E-02    0.51       1.0  T
   5   -244.2922484 -0.187444E-04  0.218E-03    0.51       4.0  T
   6   -244.2922488 -0.445352E-06  0.104E-03    0.51       8.4  T
   7   -244.2922490 -0.136643E-06  0.375E-04    0.51      23.2  T
   8   -244.2922490 -0.391751E-08  0.202E-04    0.51      43.2  T
     SCC iter.                  ...        0 min,  0.557 sec
     gradient                   ...        0 min,  0.177 sec
 * total energy  :  -239.8348139 Eh     change       -0.5631902E-04 Eh
   gradient norm :     0.0022815 Eh/α   predicted    -0.4132881E-04 ( -26.62%)
   displ. norm   :     0.3731669 α      lambda       -0.8092938E-04
   maximum displ.:     0.1574689 α      in ANC's #2, #3, #10, ...

........................................................................
.............................. CYCLE   19 ..............................
........................................................................

 iter      E             dE          RMSdq      gap      omega  full diag
   1   -244.2948237 -0.244295E+03  0.574E-02    0.51       0.0  T
   2   -244.2948223  0.137313E-05  0.335E-02    0.51       1.0  T
   3   -244.2944150  0.407283E-03  0.459E-02    0.51       1.0  T
   4   -244.2947732 -0.358235E-03  0.167E-02    0.51       1.0  T
   5   -244.2948260 -0.527487E-04  0.188E-03    0.51       4.6  T
   6   -244.2948263 -0.298515E-06  0.969E-04    0.51       9.0  T
   7   -244.2948264 -0.125648E-06  0.331E-04    0.51      26.3  T
     SCC iter.                  ...        0 min,  0.479 sec
     gradient                   ...        0 min,  0.186 sec
 * total energy  :  -239.8348803 Eh     change       -0.6639967E-04 Eh
   gradient norm :     0.0029521 Eh/α   predicted    -0.4610148E-04 ( -30.57%)
   displ. norm   :     0.4800310 α      lambda       -0.1090576E-03
   maximum displ.:     0.2008412 α      in ANC's #10, #2, #3, ...

........................................................................
.............................. CYCLE   20 ..............................
........................................................................

 iter      E             dE          RMSdq      gap      omega  full diag
   1   -244.2953662 -0.244295E+03  0.746E-02    0.51       0.0  T
   2   -244.2953663 -0.927735E-07  0.435E-02    0.51       1.0  T
   3   -244.2950452  0.321153E-03  0.408E-02    0.51       1.0  T
   4   -244.2952644 -0.219286E-03  0.234E-02    0.51       1.0  T
   5   -244.2953693 -0.104860E-03  0.272E-03    0.51       3.2  T
   6   -244.2953701 -0.839113E-06  0.113E-03    0.51       7.7  T
   7   -244.2953703 -0.161106E-06  0.437E-04    0.51      19.9  T
   8   -244.2953703 -0.396710E-08  0.240E-04    0.51      36.3  T
     SCC iter.                  ...        0 min,  0.558 sec
     gradient                   ...        0 min,  0.197 sec
 * total energy  :  -239.8349763 Eh     change       -0.9592391E-04 Eh
   gradient norm :     0.0041045 Eh/α   predicted    -0.6709614E-04 ( -30.05%)
   displ. norm   :     0.5925096 α      lambda       -0.1909994E-03
   maximum displ.:     0.2615840 α      in ANC's #10, #3, #2, ...
 * RMSD in coord.:     0.3583415 α      energy gain  -0.2428308E-01 Eh

generating ANC from exact Hessian ...
Using Lindh-Hessian (1995)
 Shifting diagonal of input Hessian by   9.870515917327556E-003
 Lowest  eigenvalues of input Hessian
    0.000000    0.000000    0.000000    0.000000    0.000000    0.000000
    0.010000    0.010131    0.010220    0.010434    0.010445    0.011255
    0.011325    0.011520    0.011654    0.011888    0.012832    0.013275
 Highest eigenvalues
    2.134057    2.143046    2.159236    2.179890    2.211169    2.213331
 

........................................................................
.............................. CYCLE   21 ..............................
........................................................................

 iter      E             dE          RMSdq      gap      omega  full diag
   1   -244.2961973 -0.244296E+03  0.958E-02    0.51       0.0  T
   2   -244.2961266  0.707443E-04  0.593E-02    0.51       1.0  T
   3   -244.2885215  0.760505E-02  0.197E-01    0.52       1.0  T
   4   -244.2961696 -0.764810E-02  0.147E-02    0.51       1.0  T
   5   -244.2962061 -0.364645E-04  0.317E-03    0.51       2.7  T
   6   -244.2962071 -0.102013E-05  0.142E-03    0.51       6.1  T
   7   -244.2962074 -0.256779E-06  0.630E-04    0.51      13.8  T
   8   -244.2962074 -0.203456E-07  0.306E-04    0.51      28.5  T
     SCC iter.                  ...        0 min,  0.594 sec
     gradient                   ...        0 min,  0.205 sec
 * total energy  :  -239.8351319 Eh     change       -0.1556799E-03 Eh
   gradient norm :     0.0049499 Eh/α   predicted     0.0000000E+00 (-100.00%)
   displ. norm   :     0.0618272 α      lambda       -0.1004996E-03
   maximum displ.:     0.0287932 α      in ANC's #20, #13, #10, ...

........................................................................
.............................. CYCLE   22 ..............................
........................................................................

 iter      E             dE          RMSdq      gap      omega  full diag
   1   -244.2944559 -0.244294E+03  0.172E-02    0.52       0.0  T
   2   -244.2944487  0.722109E-05  0.118E-02    0.52       1.0  T
   3   -244.2941263  0.322443E-03  0.409E-02    0.52       1.0  T
   4   -244.2944552 -0.328938E-03  0.346E-03    0.52       2.5  T
   5   -244.2944568 -0.159836E-05  0.954E-04    0.52       9.1  T
   6   -244.2944569 -0.722902E-07  0.423E-04    0.52      20.6  T
   7   -244.2944569 -0.259579E-07  0.138E-04    0.52      63.0  T
     SCC iter.                  ...        0 min,  0.522 sec
     gradient                   ...        0 min,  0.200 sec
 * total energy  :  -239.8352123 Eh     change       -0.8039833E-04 Eh
   gradient norm :     0.0025104 Eh/α   predicted    -0.5078439E-04 ( -36.83%)
   displ. norm   :     0.1607483 α      lambda       -0.1504049E-03
   maximum displ.:     0.0747235 α      in ANC's #20, #13, #10, ...

........................................................................
.............................. CYCLE   23 ..............................
........................................................................

 iter      E             dE          RMSdq      gap      omega  full diag
   1   -244.2914646 -0.244291E+03  0.379E-02    0.52       0.0  T
   2   -244.2914214  0.432708E-04  0.261E-02    0.52       1.0  T
   3   -244.2898256  0.159573E-02  0.918E-02    0.52       1.0  T
   4   -244.2914623 -0.163662E-02  0.631E-03    0.52       1.4  T
   5   -244.2914681 -0.583550E-05  0.167E-03    0.52       5.2  T
   6   -244.2914683 -0.176195E-06  0.866E-04    0.52      10.0  T
   7   -244.2914684 -0.100996E-06  0.306E-04    0.52      28.5  T
     SCC iter.                  ...        0 min,  0.495 sec
     gradient                   ...        0 min,  0.200 sec
 * total energy  :  -239.8353081 Eh     change       -0.9578445E-04 Eh
   gradient norm :     0.0023859 Eh/α   predicted    -0.7714834E-04 ( -19.46%)
   displ. norm   :     0.1324839 α      lambda       -0.6360796E-04
   maximum displ.:     0.0567866 α      in ANC's #20, #10, #13, ...

........................................................................
.............................. CYCLE   24 ..............................
........................................................................

 iter      E             dE          RMSdq      gap      omega  full diag
   1   -244.2909457 -0.244291E+03  0.281E-02    0.52       0.0  T
   2   -244.2909399  0.575731E-05  0.170E-02    0.52       1.0  T
   3   -244.2903241  0.615817E-03  0.561E-02    0.52       1.0  T
   4   -244.2909440 -0.619945E-03  0.411E-03    0.52       2.1  T
   5   -244.2909465 -0.249653E-05  0.133E-03    0.52       6.5  T
   6   -244.2909467 -0.173621E-06  0.569E-04    0.52      15.3  T
   7   -244.2909468 -0.401696E-07  0.214E-04    0.52      40.7  T
     SCC iter.                  ...        0 min,  0.500 sec
     gradient                   ...        0 min,  0.212 sec
 * total energy  :  -239.8353604 Eh     change       -0.5223978E-04 Eh
   gradient norm :     0.0030480 Eh/α   predicted    -0.3236309E-04 ( -38.05%)
   displ. norm   :     0.3047503 α      lambda       -0.1350692E-03
   maximum displ.:     0.1431612 α      in ANC's #10, #20, #13, ...

........................................................................
.............................. CYCLE   25 ..............................
........................................................................

 iter      E             dE          RMSdq      gap      omega  full diag
   1   -244.2911194 -0.244291E+03  0.631E-02    0.52       0.0  T
   2   -244.2911211 -0.172874E-05  0.363E-02    0.52       1.0  T
   3   -244.2910587  0.623881E-04  0.183E-02    0.52       1.0  T
   4   -244.2910037  0.550396E-04  0.245E-02    0.52       1.0  T
   5   -244.2911201 -0.116409E-03  0.427E-03    0.52       2.0  T
   6   -244.2911229 -0.277339E-05  0.988E-04    0.52       8.8  T
   7   -244.2911230 -0.109332E-06  0.478E-04    0.52      18.2  T
   8   -244.2911230 -0.940685E-08  0.246E-04    0.52      35.3  T
     SCC iter.                  ...        0 min,  0.625 sec
     gradient                   ...        0 min,  0.204 sec
 * total energy  :  -239.8354602 Eh     change       -0.9979064E-04 Eh
   gradient norm :     0.0033461 Eh/α   predicted    -0.7381115E-04 ( -26.03%)
   displ. norm   :     0.2876160 α      lambda       -0.1108952E-03
   maximum displ.:     0.1532966 α      in ANC's #10, #4, #13, ...

........................................................................
.............................. CYCLE   26 ..............................
........................................................................

 iter      E             dE          RMSdq      gap      omega  full diag
   1   -244.2921823 -0.244292E+03  0.581E-02    0.52       0.0  T
   2   -244.2921727  0.957066E-05  0.346E-02    0.52       1.0  T
   3   -244.2906734  0.149928E-02  0.871E-02    0.53       1.0  T
   4   -244.2921657 -0.149232E-02  0.103E-02    0.52       1.0  T
   5   -244.2921845 -0.188209E-04  0.265E-03    0.52       3.3  T
   6   -244.2921855 -0.947837E-06  0.713E-04    0.52      12.2  T
   7   -244.2921855 -0.508628E-07  0.398E-04    0.52      21.9  T
     SCC iter.                  ...        0 min,  0.483 sec
     gradient                   ...        0 min,  0.197 sec
 * total energy  :  -239.8355451 Eh     change       -0.8495839E-04 Eh
   gradient norm :     0.0036148 Eh/α   predicted    -0.6004072E-04 ( -29.33%)
   displ. norm   :     0.2261056 α      lambda       -0.1133624E-03
   maximum displ.:     0.1319497 α      in ANC's #10, #4, #13, ...

........................................................................
.............................. CYCLE   27 ..............................
........................................................................

 iter      E             dE          RMSdq      gap      omega  full diag
   1   -244.2942429 -0.244294E+03  0.444E-02    0.52       0.0  T
   2   -244.2942272  0.157319E-04  0.276E-02    0.52       1.0  T
   3   -244.2926459  0.158126E-02  0.896E-02    0.53       1.0  T
   4   -244.2942343 -0.158836E-02  0.798E-03    0.52       1.1  T
   5   -244.2942450 -0.107156E-04  0.170E-03    0.52       5.1  T
   6   -244.2942453 -0.323444E-06  0.694E-04    0.52      12.5  T
   7   -244.2942454 -0.638209E-07  0.266E-04    0.52      32.7  T
     SCC iter.                  ...        0 min,  0.478 sec
     gradient                   ...        0 min,  0.204 sec
 * total energy  :  -239.8356367 Eh     change       -0.9161756E-04 Eh
   gradient norm :     0.0032188 Eh/α   predicted    -0.5957940E-04 ( -34.97%)
   displ. norm   :     0.2655919 α      lambda       -0.1252040E-03
   maximum displ.:     0.1599592 α      in ANC's #10, #4, #13, ...

........................................................................
.............................. CYCLE   28 ..............................
........................................................................

 iter      E             dE          RMSdq      gap      omega  full diag
   1   -244.2953766 -0.244295E+03  0.515E-02    0.52       0.0  T
   2   -244.2953585  0.180440E-04  0.319E-02    0.52       1.0  T
   3   -244.2934048  0.195371E-02  0.999E-02    0.52       1.0  T
   4   -244.2953600 -0.195514E-02  0.105E-02    0.52       1.0  T
   5   -244.2953794 -0.194589E-04  0.173E-03    0.52       5.0  T
   6   -244.2953797 -0.256756E-06  0.926E-04    0.52       9.4  T
   7   -244.2953798 -0.111572E-06  0.296E-04    0.52      29.5  T
     SCC iter.                  ...        0 min,  0.540 sec
     gradient                   ...        0 min,  0.212 sec
 * total energy  :  -239.8357335 Eh     change       -0.9675592E-04 Eh
   gradient norm :     0.0030648 Eh/α   predicted    -0.6701860E-04 ( -30.73%)
   displ. norm   :     0.2811639 α      lambda       -0.9828169E-04
   maximum displ.:     0.1705033 α      in ANC's #10, #4, #3, ...

........................................................................
.............................. CYCLE   29 ..............................
........................................................................

 iter      E             dE          RMSdq      gap      omega  full diag
   1   -244.2946148 -0.244295E+03  0.540E-02    0.52       0.0  T
   2   -244.2946096  0.518338E-05  0.322E-02    0.52       1.0  T
   3   -244.2936973  0.912336E-03  0.684E-02    0.52       1.0  T
   4   -244.2945890 -0.891648E-03  0.122E-02    0.52       1.0  T
   5   -244.2946168 -0.278832E-04  0.186E-03    0.52       4.7  T
   6   -244.2946172 -0.365277E-06  0.876E-04    0.52       9.9  T
   7   -244.2946173 -0.978840E-07  0.303E-04    0.52      28.8  T
     SCC iter.                  ...        0 min,  0.527 sec
     gradient                   ...        0 min,  0.192 sec
 * total energy  :  -239.8358099 Eh     change       -0.7636165E-04 Eh
   gradient norm :     0.0031201 Eh/α   predicted    -0.5302630E-04 ( -30.56%)
   displ. norm   :     0.2639023 α      lambda       -0.8124753E-04
   maximum displ.:     0.1626881 α      in ANC's #10, #4, #3, ...

........................................................................
.............................. CYCLE   30 ..............................
........................................................................

 iter      E             dE          RMSdq      gap      omega  full diag
   1   -244.2936033 -0.244294E+03  0.497E-02    0.52       0.0  T
   2   -244.2936020  0.133678E-05  0.292E-02    0.52       1.0  T
   3   -244.2932506  0.351430E-03  0.422E-02    0.52       1.0  T
   4   -244.2935694 -0.318803E-03  0.138E-02    0.52       1.0  T
   5   -244.2936051 -0.356787E-04  0.156E-03    0.52       5.6  T
   6   -244.2936053 -0.212205E-06  0.758E-04    0.52      11.5  T
   7   -244.2936054 -0.758485E-07  0.279E-04    0.52      31.2  T
     SCC iter.                  ...        0 min,  0.486 sec
     gradient                   ...        0 min,  0.205 sec
 * total energy  :  -239.8358724 Eh     change       -0.6259267E-04 Eh
   gradient norm :     0.0025461 Eh/α   predicted    -0.4345594E-04 ( -30.57%)
   displ. norm   :     0.2700253 α      lambda       -0.7246563E-04
   maximum displ.:     0.1653817 α      in ANC's #10, #4, #3, ...

........................................................................
.............................. CYCLE   31 ..............................
........................................................................

 iter      E             dE          RMSdq      gap      omega  full diag
   1   -244.2927834 -0.244293E+03  0.502E-02    0.52       0.0  T
   2   -244.2927613  0.220890E-04  0.311E-02    0.52       1.0  T
   3   -244.2905782  0.218305E-02  0.106E-01    0.52       1.0  T
   4   -244.2927776 -0.219937E-02  0.709E-03    0.52       1.2  T
   5   -244.2927858 -0.821372E-05  0.160E-03    0.52       5.4  T
   6   -244.2927861 -0.262876E-06  0.664E-04    0.52      13.1  T
   7   -244.2927861 -0.616386E-07  0.291E-04    0.52      29.9  T
     SCC iter.                  ...        0 min,  0.497 sec
     gradient                   ...        0 min,  0.192 sec
 * total energy  :  -239.8359275 Eh     change       -0.5509110E-04 Eh
   gradient norm :     0.0019200 Eh/α   predicted    -0.3887510E-04 ( -29.43%)
   displ. norm   :     0.3743314 α      lambda       -0.6760047E-04
   maximum displ.:     0.2182855 α      in ANC's #10, #4, #3, ...

........................................................................
.............................. CYCLE   32 ..............................
........................................................................

 iter      E             dE          RMSdq      gap      omega  full diag
   1   -244.2931431 -0.244293E+03  0.682E-02    0.52       0.0  T
   2   -244.2930123  0.130807E-03  0.474E-02    0.52       1.0  T
   3   -244.2880666  0.494569E-02  0.161E-01    0.53       1.0  T
   4   -244.2931369 -0.507031E-02  0.952E-03    0.52       1.0  T
   5   -244.2931514 -0.144761E-04  0.223E-03    0.52       3.9  T
   6   -244.2931519 -0.500019E-06  0.975E-04    0.52       8.9  T
   7   -244.2931520 -0.117771E-06  0.472E-04    0.52      18.4  T
     SCC iter.                  ...        0 min,  0.496 sec
     gradient                   ...        0 min,  0.186 sec
 * total energy  :  -239.8359909 Eh     change       -0.6333940E-04 Eh
   gradient norm :     0.0020454 Eh/α   predicted    -0.3590854E-04 ( -43.31%)
   displ. norm   :     0.2488093 α      lambda        0.1399974E-04
   maximum displ.:     0.1451098 α      in ANC's #10, #4, #3, ...

........................................................................
.............................. CYCLE   33 ..............................
........................................................................

 iter      E             dE          RMSdq      gap      omega  full diag
   1   -244.2926430 -0.244293E+03  0.453E-02    0.53       0.0  T
   2   -244.2925865  0.564914E-04  0.314E-02    0.53       1.0  T
   3   -244.2903853  0.220127E-02  0.107E-01    0.53       1.0  T
   4   -244.2926413 -0.225606E-02  0.572E-03    0.53       1.5  T
   5   -244.2926464 -0.508573E-05  0.162E-03    0.53       5.4  T
   6   -244.2926467 -0.282090E-06  0.689E-04    0.53      12.6  T
   7   -244.2926468 -0.595589E-07  0.303E-04    0.53      28.8  T
     SCC iter.                  ...        0 min,  0.494 sec
     gradient                   ...        0 min,  0.204 sec
 * total energy  :  -239.8359943 Eh     change       -0.3439750E-05 Eh
   gradient norm :     0.0032601 Eh/α   predicted     0.7432966E-05 (-316.09%)
   displ. norm   :     0.0566731 α      lambda       -0.4201028E-04
   maximum displ.:     0.0299843 α      in ANC's #10, #8, #20, ...

........................................................................
.............................. CYCLE   34 ..............................
........................................................................

 iter      E             dE          RMSdq      gap      omega  full diag
   1   -244.2937530 -0.244294E+03  0.120E-02    0.53       0.0  T
   2   -244.2937433  0.971487E-05  0.101E-02    0.53       1.0  T
   3   -244.2936314  0.111906E-03  0.252E-02    0.53       1.0  T
   4   -244.2937532 -0.121802E-03  0.164E-03    0.53       5.3  T
   5   -244.2937535 -0.364029E-06  0.558E-04    0.53      15.6  T
   6   -244.2937536 -0.259457E-07  0.282E-04    0.53      30.9  T
     SCC iter.                  ...        0 min,  0.429 sec
     gradient                   ...        0 min,  0.203 sec
 * total energy  :  -239.8360269 Eh     change       -0.3259036E-04 Eh
   gradient norm :     0.0024349 Eh/α   predicted    -0.2107424E-04 ( -35.34%)
   displ. norm   :     0.2228104 α      lambda       -0.1172688E-03
   maximum displ.:     0.0986237 α      in ANC's #8, #10, #6, ...

........................................................................
.............................. CYCLE   35 ..............................
........................................................................

 iter      E             dE          RMSdq      gap      omega  full diag
   1   -244.2989021 -0.244299E+03  0.420E-02    0.52       0.0  T
   2   -244.2988663  0.357281E-04  0.278E-02    0.52       1.0  T
   3   -244.2969620  0.190435E-02  0.996E-02    0.53       1.0  T
   4   -244.2989018 -0.193982E-02  0.483E-03    0.52       1.8  T
   5   -244.2989050 -0.318078E-05  0.143E-03    0.52       6.1  T
   6   -244.2989052 -0.156957E-06  0.663E-04    0.52      13.1  T
   7   -244.2989052 -0.645829E-07  0.279E-04    0.52      31.2  T
     SCC iter.                  ...        0 min,  0.538 sec
     gradient                   ...        0 min,  0.204 sec
 * total energy  :  -239.8360819 Eh     change       -0.5495294E-04 Eh
   gradient norm :     0.0029278 Eh/α   predicted    -0.6154545E-04 (  12.00%)
   displ. norm   :     0.2106963 α      lambda       -0.6228237E-04
   maximum displ.:     0.1114459 α      in ANC's #4, #3, #10, ...

........................................................................
.............................. CYCLE   36 ..............................
........................................................................

 iter      E             dE          RMSdq      gap      omega  full diag
   1   -244.2972645 -0.244297E+03  0.381E-02    0.52       0.0  T
   2   -244.2972612  0.329898E-05  0.225E-02    0.52       1.0  T
   3   -244.2966457  0.615509E-03  0.558E-02    0.52       1.0  T
   4   -244.2972641 -0.618443E-03  0.366E-03    0.52       2.4  T
   5   -244.2972652 -0.109078E-05  0.212E-03    0.52       4.1  T
   6   -244.2972660 -0.779151E-06  0.557E-04    0.52      15.6  T
   7   -244.2972660 -0.335545E-07  0.261E-04    0.52      33.4  T
     SCC iter.                  ...        0 min,  0.516 sec
     gradient                   ...        0 min,  0.198 sec
 * total energy  :  -239.8361206 Eh     change       -0.3873628E-04 Eh
   gradient norm :     0.0028168 Eh/α   predicted    -0.3252971E-04 ( -16.02%)
   displ. norm   :     0.1841036 α      lambda       -0.4301891E-04
   maximum displ.:     0.0935519 α      in ANC's #4, #3, #6, ...

........................................................................
.............................. CYCLE   37 ..............................
........................................................................

 iter      E             dE          RMSdq      gap      omega  full diag
   1   -244.2959991 -0.244296E+03  0.301E-02    0.52       0.0  T
   2   -244.2959988  0.351696E-06  0.177E-02    0.52       1.0  T
   3   -244.2958828  0.115999E-03  0.242E-02    0.52       1.0  T
   4   -244.2959907 -0.107864E-03  0.693E-03    0.52       1.3  T
   5   -244.2959996 -0.895268E-05  0.108E-03    0.52       8.0  T
   6   -244.2959997 -0.136145E-06  0.405E-04    0.52      21.5  T
   7   -244.2959998 -0.184168E-07  0.179E-04    0.52      48.5  T
     SCC iter.                  ...        0 min,  0.517 sec
     gradient                   ...        0 min,  0.197 sec
 * total energy  :  -239.8361569 Eh     change       -0.3634286E-04 Eh
   gradient norm :     0.0023888 Eh/α   predicted    -0.2224149E-04 ( -38.80%)
   displ. norm   :     0.3610731 α      lambda       -0.8979048E-04
   maximum displ.:     0.1641400 α      in ANC's #4, #3, #6, ...

........................................................................
.............................. CYCLE   38 ..............................
........................................................................

 iter      E             dE          RMSdq      gap      omega  full diag
   1   -244.2932634 -0.244293E+03  0.557E-02    0.52       0.0  T
   2   -244.2932545  0.884127E-05  0.328E-02    0.52       1.0  T
   3   -244.2918801  0.137440E-02  0.841E-02    0.52       1.0  T
   4   -244.2932543 -0.137411E-02  0.813E-03    0.52       1.1  T
   5   -244.2932651 -0.108076E-04  0.271E-03    0.52       3.2  T
   6   -244.2932660 -0.894700E-06  0.103E-03    0.52       8.4  T
   7   -244.2932661 -0.130836E-06  0.382E-04    0.52      22.8  T
   8   -244.2932661 -0.711665E-08  0.195E-04    0.52      44.7  T
     SCC iter.                  ...        0 min,  0.566 sec
     gradient                   ...        0 min,  0.199 sec
 * total energy  :  -239.8362190 Eh     change       -0.6208806E-04 Eh
   gradient norm :     0.0018266 Eh/α   predicted    -0.5074930E-04 ( -18.26%)
   displ. norm   :     0.3999391 α      lambda       -0.4161735E-04
   maximum displ.:     0.1753279 α      in ANC's #4, #3, #6, ...

........................................................................
.............................. CYCLE   39 ..............................
........................................................................

 iter      E             dE          RMSdq      gap      omega  full diag
   1   -244.2917708 -0.244292E+03  0.596E-02    0.52       0.0  T
   2   -244.2917432  0.276606E-04  0.365E-02    0.52       1.0  T
   3   -244.2887700  0.297316E-02  0.124E-01    0.52       1.0  T
   4   -244.2917670 -0.299698E-02  0.659E-03    0.52       1.3  T
   5   -244.2917733 -0.630852E-05  0.258E-03    0.52       3.4  T
   6   -244.2917741 -0.823331E-06  0.998E-04    0.52       8.7  T
   7   -244.2917743 -0.121508E-06  0.413E-04    0.52      21.1  T
     SCC iter.                  ...        0 min,  0.478 sec
     gradient                   ...        0 min,  0.198 sec
 * total energy  :  -239.8362566 Eh     change       -0.3759038E-04 Eh
   gradient norm :     0.0021892 Eh/α   predicted    -0.2229143E-04 ( -40.70%)
   displ. norm   :     0.0971015 α      lambda       -0.2695073E-04
   maximum displ.:     0.0412242 α      in ANC's #3, #4, #5, ...

........................................................................
.............................. CYCLE   40 ..............................
........................................................................

 iter      E             dE          RMSdq      gap      omega  full diag
   1   -244.2932679 -0.244293E+03  0.147E-02    0.52       0.0  T
   2   -244.2932680 -0.643932E-07  0.862E-03    0.52       1.0  T
   3   -244.2932633  0.465030E-05  0.506E-03    0.52       1.7  T
   4   -244.2932616  0.175641E-05  0.575E-03    0.52       1.5  T
   5   -244.2932681 -0.649595E-05  0.527E-04    0.52      16.5  T
   6   -244.2932681 -0.222361E-07  0.292E-04    0.52      29.8  T
   7   -244.2932681 -0.116679E-07  0.101E-04    0.52      86.1  T
     SCC iter.                  ...        0 min,  0.531 sec
     gradient                   ...        0 min,  0.204 sec
 * total energy  :  -239.8362792 Eh     change       -0.2255388E-04 Eh
   gradient norm :     0.0014882 Eh/α   predicted    -0.1360642E-04 ( -39.67%)
   displ. norm   :     0.4241323 α      lambda       -0.6032786E-04
   maximum displ.:     0.2005384 α      in ANC's #4, #3, #5, ...

........................................................................
.............................. CYCLE   41 ..............................
........................................................................

 iter      E             dE          RMSdq      gap      omega  full diag
   1   -244.2970239 -0.244297E+03  0.670E-02    0.51       0.0  T
   2   -244.2970256 -0.162639E-05  0.391E-02    0.51       1.0  T
   3   -244.2970115  0.140786E-04  0.928E-03    0.51       1.0  T
   4   -244.2970070  0.442831E-05  0.994E-03    0.51       1.0  T
   5   -244.2970158 -0.878863E-05  0.763E-03    0.51       1.1  T
   6   -244.2970267 -0.108396E-04  0.812E-04    0.51      10.7  T
   7   -244.2970267 -0.748360E-07  0.409E-04    0.51      21.3  T
   8   -244.2970268 -0.346333E-08  0.217E-04    0.51      40.2  T
     SCC iter.                  ...        0 min,  0.603 sec
     gradient                   ...        0 min,  0.191 sec
 * total energy  :  -239.8363199 Eh     change       -0.4076635E-04 Eh
   gradient norm :     0.0025115 Eh/α   predicted    -0.3257797E-04 ( -20.09%)
   displ. norm   :     0.0379259 α      lambda       -0.1784400E-04
   maximum displ.:     0.0212088 α      in ANC's #13, #20, #5, ...

........................................................................
.............................. CYCLE   42 ..............................
........................................................................

 iter      E             dE          RMSdq      gap      omega  full diag
   1   -244.2971879 -0.244297E+03  0.924E-03    0.51       0.0  T
   2   -244.2971844  0.355457E-05  0.705E-03    0.51       1.2  T
   3   -244.2971105  0.738582E-04  0.201E-02    0.51       1.0  T
   4   -244.2971869 -0.764408E-04  0.305E-03    0.51       2.9  T
   5   -244.2971884 -0.147381E-05  0.707E-04    0.51      12.3  T
   6   -244.2971884 -0.298005E-07  0.281E-04    0.51      31.0  T
   7   -244.2971885 -0.109845E-07  0.945E-05    0.51      92.1  T
     SCC iter.                  ...        0 min,  0.500 sec
     gradient                   ...        0 min,  0.213 sec
 * total energy  :  -239.8363316 Eh     change       -0.1164645E-04 Eh
   gradient norm :     0.0014355 Eh/α   predicted    -0.8935613E-05 ( -23.28%)
   displ. norm   :     0.1100691 α      lambda       -0.1662757E-04
   maximum displ.:     0.0558496 α      in ANC's #13, #4, #3, ...
 * RMSD in coord.:     0.3217009 α      energy gain  -0.1355317E-02 Eh

generating ANC from exact Hessian ...
Using Lindh-Hessian (1995)
 Shifting diagonal of input Hessian by   9.870327796173035E-003
 Lowest  eigenvalues of input Hessian
    0.000000    0.000000    0.000000    0.000000    0.000000    0.000000
    0.010000    0.010128    0.010212    0.010424    0.010447    0.011236
    0.011369    0.011517    0.011700    0.011799    0.012959    0.013346
 Highest eigenvalues
    2.132852    2.141620    2.156737    2.178452    2.207275    2.209953
 

........................................................................
.............................. CYCLE   43 ..............................
........................................................................

 iter      E             dE          RMSdq      gap      omega  full diag
   1   -244.2952833 -0.244295E+03  0.202E-02    0.51       0.0  T
   2   -244.2952575  0.257605E-04  0.168E-02    0.51       1.0  T
   3   -244.2949171  0.340443E-03  0.435E-02    0.51       1.0  T
   4   -244.2952828 -0.365791E-03  0.324E-03    0.51       2.7  T
   5   -244.2952846 -0.171833E-05  0.101E-03    0.51       8.6  T
   6   -244.2952847 -0.116579E-06  0.359E-04    0.51      24.2  T
   7   -244.2952847 -0.172855E-07  0.124E-04    0.51      70.3  T
     SCC iter.                  ...        0 min,  0.533 sec
     gradient                   ...        0 min,  0.196 sec
 * total energy  :  -239.8363450 Eh     change       -0.1338046E-04 Eh
   gradient norm :     0.0010720 Eh/α   predicted     0.0000000E+00 (-100.00%)
   displ. norm   :     0.0202008 α      lambda       -0.4799347E-05
   maximum displ.:     0.0083602 α      in ANC's #9, #4, #2, ...

........................................................................
.............................. CYCLE   44 ..............................
........................................................................

 iter      E             dE          RMSdq      gap      omega  full diag
   1   -244.2957677 -0.244296E+03  0.453E-03    0.51       0.0  T
   2   -244.2957677  0.139655E-07  0.274E-03    0.51       3.2  T
   3   -244.2957617  0.605831E-05  0.571E-03    0.51       1.5  T
   4   -244.2957669 -0.524267E-05  0.210E-03    0.51       4.1  T
   5   -244.2957678 -0.870864E-06  0.386E-04    0.51      22.5  T
   6   -244.2957678 -0.169834E-07  0.160E-04    0.51      54.2  T
     SCC iter.                  ...        0 min,  0.435 sec
     gradient                   ...        0 min,  0.198 sec
 * total energy  :  -239.8363496 Eh     change       -0.4600330E-05 Eh
   gradient norm :     0.0003485 Eh/α   predicted    -0.2407337E-05 ( -47.67%)
   displ. norm   :     0.0328977 α      lambda       -0.3058067E-05
   maximum displ.:     0.0144618 α      in ANC's #9, #4, #2, ...

   *** GEOMETRY OPTIMIZATION CONVERGED AFTER 44 ITERATIONS ***

------------------------------------------------------------------------
 total energy gain   :        -0.0256564 Eh      -16.0996 kcal/mol
 total RMSD          :         0.6028026 a0        0.3190 Å
 total power (kW/mol):        -1.5309274 (step)   -1.9597 (real)
------------------------------------------------------------------------

 ANCopt (total)                0 d,  0 h,  0 min, 34.373 sec
 optimizer setup                ...        0 min,  0.002 sec (  0.006%)
 model hessian                  ...        0 min,  0.362 sec (  1.053%)
 ANC generation                 ...        0 min,  0.100 sec (  0.291%)
 coordinate transformation      ...        0 min,  0.005 sec (  0.015%)
 single point calculation       ...        0 min, 33.793 sec ( 98.313%)
 optimization log               ...        0 min,  0.073 sec (  0.212%)
 hessian update                 ...        0 min,  0.007 sec (  0.020%)
 rational function              ...        0 min,  0.022 sec (  0.064%)

================
 final structure:
================
132
 xtb: 6.7.1pre (5071a88)
C           -4.42873461783867       -6.29596215906874        0.93875215423284
C           -0.26502257018427       -7.41742949994521        0.83839633057790
C           -2.09103733992735       -5.68594079517646        0.98058869704433
C            3.53963112967646       -8.25965248427238       -0.86206417413972
C            2.06823487396496       -6.68693510413785        0.36441423362421
C           -3.13399785093943       -6.63969344211314        1.09898347135870
C           -4.79454946584037       -4.99082019613641        0.51826779401856
C            1.05373840101978       -7.67639890486499        0.58553127565042
C           -0.76103278751499       -6.11804990951806        1.07326131527512
C           -2.44287119916487       -4.30832741315098        0.74031487772387
C            5.84460279606662       -7.75552477580525       -1.14801409852997
C            4.36226596371529       -6.04388630870383       -0.24020681649014
C            2.75700497538106       -4.31080812538473        0.41355743312291
C            5.05099781541492       -3.62225545680286       -0.03171108425255
C            7.35596450618314       -2.88072383359852       -0.26138385971419
C            4.77703043108816       -8.62126779524969       -1.33287783731076
C            3.31865553117225       -7.00880117356222       -0.26729223035872
C            1.85491297773779       -5.36573568708628        0.70652256858095
C           -0.08238395161375       -3.50516448718446        0.83953708035309
C            5.64669549557204       -6.49383140194774       -0.61907351322976
C            4.07606920787935       -4.66157104111874        0.06470495574872
C            2.32033671350201       -2.94330282244668        0.44895943112012
C            6.43634244610688       -3.89031141740415       -0.20832685531668
C            4.64394067076201       -2.26772965092043        0.05110151782271
C            6.97656859352234       -1.52986127721142       -0.18871158773962
C           -8.66774973723055       -5.53988203290339       -0.58447807515964
C           -6.10692801179704       -4.72949118330270        0.13549836215409
C           -7.78170746140966       -3.25401512378938       -0.84826264806323
C           -3.77805360326999       -3.98976115746112        0.45041411652959
C           -5.51639014548474       -2.36976485996917       -0.25598506083850
C           -7.20129763617838       -0.59722035400486       -0.79898165391744
C           -1.44378788980139       -3.27074923011775        0.63444268840779
C           -3.20209338119754       -1.63137857020447        0.12066654487257
C           -4.94929067949061        0.03162659583617       -0.18621323275391
C           -6.71812034688623        1.70935488483483       -0.26984327678095
C           -8.77313594874819       -4.26840426572395       -1.00074448546785
C           -6.50177004527692       -3.44281764565619       -0.32821939417802
C           -4.18412428770281       -2.66161490461822        0.10152094249070
C           -5.88521006237096       -1.00273604646412       -0.43572071082945
C           -7.60876986324832        0.70196680682806       -0.67207933854728
C            0.93021203914729       -2.57622569180684        0.54158561251775
C           -6.22825252437356        4.02076418837270        0.23015448709433
C            3.25191600238885        6.87904126764003        0.25984549106446
C           -0.85516398353709       -0.92728407758408        0.25017922526334
C            8.51030607911985        1.86178453673995       -0.23739516878466
C           -2.62179947499030        0.75516283903949        0.07115709850452
C            6.78312635973942        3.55941313128620       -0.02706713204307
C           -4.40641418377239        2.43557452644435        0.03103219872520
C            4.99910111167901        5.21214467170336        0.14557763908210
C            3.26695148888446       -1.93172153583444        0.22028936861388
C           -3.86243514628528        4.83626921245660        0.14825780464670
C            1.49779436460549       -0.22262469236251        0.19554585163109
C           -5.59828149812932        6.65629448914960        0.13946456642974
C           -0.28511767363832        1.46347206787760        0.13233627557112
C            9.22170901886165        4.15896656593820       -0.31114403566995
C           -2.07059766485104        3.14688023603706        0.09891069900940
C            5.59991535279698       -1.22241821228553       -0.04637784846757
C           -1.50034119559491        5.53273781980342        0.01475171009719
C            3.83116600645654        0.46569495209014        0.08541003232588
C           -3.28335164850401        7.21142759238089       -0.22676392509314
C            2.06374538144599        2.15688461576265        0.11020865790475
C           -5.01059988152918        8.87959868315440       -0.55674148216977
C            0.28715859647708        3.84265204156333        0.10781624869871
C            7.92587896479290       -0.50832936108345       -0.24476310573000
C            0.85653465363480        6.22642919784873        0.07611356217178
C            6.17595103335732        1.16164932833142       -0.05832054527367
C           -0.89836203073065        7.87118078520710       -0.12254504600059
C            4.42087097194866        2.84560618396610        0.05892227212475
C            2.63888568668814        4.54119669056889        0.12265659752161
C           -1.83435626431323       -1.94839100049135        0.30823195581103
C            7.55270141279641        0.82120127935885       -0.17285180553262
C            0.42357038290107        7.56037711960406       -0.00803301737390
C           -3.58507492581351       -0.28399646135886       -0.00034384914248
C            5.79503839476073        2.52496032062660       -0.00767245192051
C           -5.35108385151363        1.39101089104475       -0.14063062349934
C            4.01590645732347        4.19793761851802        0.10651676673914
C           -7.13340517060024        3.02322724754548       -0.01577514718870
C            2.24645945468786        5.89280649715803        0.15105115731150
C            0.52400365730357       -1.24510573114936        0.30391001381646
C           -1.25421438605592        0.43009119014910        0.14420555616438
C            8.16934331575900        3.18066209455246       -0.16871940907599
C           -3.02698967610829        2.11336016684577        0.06372352673416
C            6.37376241246292        4.88856289529355        0.06269364206780
C           -4.82802488940479        3.78123154733286        0.16135005862656
C            4.57081390960058        6.55113875822867        0.26417684103217
C            2.86564306037353       -0.56402937110981        0.17350895440909
C           -4.25740385633024        6.22188535137035        0.04627037063643
C            1.09311049196597        1.13335266745079        0.13872811780157
C           -5.96137950679833        7.95844384428878       -0.14463819644981
C           -0.69110198862184        2.81665197082355        0.10873799867323
C            9.06353412430621        5.48339263136033       -0.24864774236229
C           -2.49420065130120        4.50621976881171        0.08274676704780
C            5.20812965566454        0.13643338610553        0.00263906437387
C           -1.88935631791278        6.87562324886001       -0.12695244544375
C            3.43895220530450        1.81900260106842        0.08301285273993
C           -3.68913656572881        8.51089364764255       -0.56813951549150
C            1.65682771152435        3.51360316228429        0.10915662844672
C           -0.11910863661026        5.20380085932971        0.06944705557441
H           -5.20967772261284       -7.02080357743663        1.12899679226562
H           -0.96067140697221       -8.24102283174919        0.73987275360226
H            2.72033973859353       -8.95255947301416       -0.96427051345332
H           -6.76516868943288       -6.97340473612527       -0.64435830126072
H           -2.87727013948338       -7.64494719178318        1.39514660971834
H            1.32739754976870       -8.70766734928478        0.42390088364236
H            6.84623616195649       -8.05516721780839       -1.42642813601617
H            8.40639917821645       -3.12323114249360       -0.36256137551456
H            4.92685981282978       -9.58148314508969       -1.80331761901274
H           -9.47645441019982       -6.24462825002022       -0.72770935906685
H           -9.67425342078367       -3.95641550435994       -1.52282668815214
H           -9.44631040654065       -1.50246672007577       -0.91764968029353
H           -8.62992688809414        0.96983033110951       -0.91025613003101
H            2.98161897377258        7.91768238053216        0.35514230414871
H            9.54881770834776        1.58313395395574       -0.35196535027514
H           10.20312781163810        3.75048470181000       -0.52263526391008
H            7.28290206336603        6.88141781952470       -1.01702464825596
H           -5.30425777862208        9.88017183751249       -0.83662910819284
H            8.97025607329751       -0.76734237588868       -0.34449342107416
H           -1.17529357065783        8.91083408418266       -0.17920785640491
H            1.13852909763033        8.36617666694035        0.00037218373021
H           -8.19267752815148        3.24497854128265       -0.00387359223922
H            5.31754299012409        7.32826000577907        0.36668331860879
H           -7.00019639054191        8.24664689169065       -0.05422602844752
H            9.90929208650303        6.14731598671105       -0.37887584787592
H           -2.95440335408120        9.24161541964397       -0.86330502389401
H            7.65932890062297       -5.50155876857860       -1.51387590484575
H           -7.82905947844679        5.78058767092778       -0.18263150063479
P           -6.88167897631288        5.59187617587143        0.83248070521192
P            7.53212388891960        6.28271843254688        0.23042261797397
P            7.13738843658805       -5.55945836090571       -0.21319038239380
P            0.43645461396065       -4.96681920042511        1.71663206374663
P           -7.26738185347537       -6.12128924106023        0.35866294517532
P           -8.28486988307254       -1.73756381834533       -1.66975453796209
 
 Bond Distances (Angstroems)
 ---------------------------
C1-C6=1.3491         C1-C7=1.4192         C1-H99=1.0823        C2-C8=1.3675         C2-C9=1.4105         C2-H100=1.0826       
C3-C6=1.4182         C3-C9=1.4015         C3-C10=1.4420        C4-C16=1.3724        C4-C17=1.4026        C4-H101=1.0779       
C5-C8=1.4343         C5-C17=1.4374        C5-C18=1.3813        C6-C1=1.3491         C6-C3=1.4182         C6-H103=1.0790       
C7-C1=1.4192         C7-C27=1.3918        C7-C29=1.4283        C8-C2=1.3675         C8-C5=1.4343         C8-H104=1.0791       
C9-C2=1.4105         C9-C3=1.4015         C9-P130=1.7814       C10-C3=1.4420        C10-C29=1.4029       C10-C32=1.4443       
C11-C16=1.3869       C11-C20=1.3823       C11-H105=1.0819      C12-C17=1.4216       C12-C20=1.4127       C12-C21=1.4442       
C13-C18=1.4186       C13-C21=1.4088       C13-C22=1.4360       C14-C21=1.4283       C14-C23=1.4221       C14-C24=1.4168       
C15-C23=1.3667       C15-C25=1.4050       C15-H106=1.0828      C16-C4=1.3724        C16-C11=1.3869       C16-H107=1.0797      
C17-C4=1.4026        C17-C5=1.4374        C17-C12=1.4216       C18-C5=1.3813        C18-C13=1.4186       C18-P130=1.7865      
C19-C32=1.3966       C19-C41=1.4061       C19-P130=1.7818      C20-C11=1.3823       C20-C12=1.4127       C20-P129=1.8055      
C21-C12=1.4442       C21-C13=1.4088       C21-C14=1.4283       C22-C13=1.4360       C22-C41=1.4408       C22-C50=1.4042       
C23-C14=1.4221       C23-C15=1.3667       C23-P129=1.8104      C24-C14=1.4168       C24-C50=1.4275       C24-C57=1.4199       
C25-C15=1.4050       C25-C57=1.4177       C25-C64=1.3957       C26-C36=1.3420       C26-H108=1.0822      C26-P131=1.7857      
C27-C7=1.3918        C27-C37=1.4235       C27-P131=1.8258      C28-C36=1.4266       C28-C37=1.3944       C28-P132=1.7966      
[...]
                            96 C    0.101
    54   6 C    3.964 --    90 C    1.268    88 C    1.239    80 C    1.238
    55   6 C    3.988 --    91 C    1.769    81 C    1.127   114 H    0.959
    56   6 C    3.963 --    82 C    1.277    90 C    1.241    92 C    1.226
    57   6 C    3.966 --    93 C    1.255    24 C    1.251    25 C    1.231
    58   6 C    3.983 --    94 C    1.309    98 C    1.249    92 C    1.196
    59   6 C    3.962 --    95 C    1.277    86 C    1.250    93 C    1.219
    60   6 C    3.974 --    96 C    1.333    87 C    1.286    94 C    1.154
    61   6 C    3.964 --    88 C    1.264    95 C    1.242    97 C    1.240
    62   6 C    3.975 --    96 C    1.492    89 C    1.381   116 H    0.969
    63   6 C    3.963 --    97 C    1.285    90 C    1.235    98 C    1.223
    64   6 C    3.896 --    71 C    1.399    25 C    1.323   117 H    0.966
    65   6 C    3.960 --    72 C    1.294    98 C    1.281    78 C    1.186
    66   6 C    3.961 --    93 C    1.279    74 C    1.252    71 C    1.204
    67   6 C    3.965 --    72 C    1.541    94 C    1.296   118 H    0.960
    68   6 C    3.979 --    74 C    1.272    76 C    1.253    95 C    1.224
    69   6 C    3.980 --    78 C    1.297    76 C    1.239    97 C    1.217
    70   6 C    3.961 --    44 C    1.262    32 C    1.239    33 C    1.236
    71   6 C    3.973 --    64 C    1.399    45 C    1.216    66 C    1.204
    72   6 C    3.963 --    67 C    1.541    65 C    1.294   119 H    0.960
    73   6 C    3.969 --    33 C    1.280    34 C    1.237    46 C    1.227
    74   6 C    3.965 --    68 C    1.272    66 C    1.252    47 C    1.218
    75   6 C    3.984 --    35 C    1.255    48 C    1.243    34 C    1.242
    76   6 C    3.977 --    49 C    1.255    68 C    1.253    69 C    1.239
    77   6 C    3.962 --    42 C    1.507    35 C    1.273   120 H    0.958
    78   6 C    3.945 --    69 C    1.297    43 C    1.267    65 C    1.186
    79   6 C    3.963 --    41 C    1.261    44 C    1.251    52 C    1.228
    80   6 C    3.964 --    46 C    1.276    54 C    1.238    44 C    1.232
    81   6 C    3.970 --    45 C    1.545    47 C    1.146    55 C    1.127
    82   6 C    3.966 --    56 C    1.277    46 C    1.238    48 C    1.229
    83   6 C    3.912 --    47 C    1.385    49 C    1.261   128 P    1.045
    84   6 C    3.958 --    48 C    1.276    42 C    1.227    51 C    1.223
    85   6 C    3.951 --    43 C    1.576    49 C    1.256   121 H    0.936
    86   6 C    3.954 --    52 C    1.274    59 C    1.250    50 C    1.215
    87   6 C    3.977 --    53 C    1.286    60 C    1.286    51 C    1.171
    88   6 C    3.963 --    61 C    1.264    52 C    1.241    54 C    1.239
    89   6 C    3.979 --    53 C    1.447    62 C    1.381   122 H    0.961
    90   6 C    3.957 --    54 C    1.268    56 C    1.241    63 C    1.235
    91   6 C    3.956 --    55 C    1.769   128 P    1.090   123 H    0.951
    92   6 C    3.974 --    51 C    1.327    56 C    1.226    58 C    1.196
    93   6 C    3.974 --    66 C    1.279    57 C    1.255    59 C    1.219
    94   6 C    3.964 --    58 C    1.309    67 C    1.296    60 C    1.154
    95   6 C    3.963 --    59 C    1.277    61 C    1.242    68 C    1.224
    96   6 C    3.985 --    62 C    1.492    60 C    1.333   124 H    0.961
                            53 C    0.101
    97   6 C    3.961 --    63 C    1.285    61 C    1.240    69 C    1.217
    98   6 C    3.976 --    65 C    1.281    58 C    1.249    63 C    1.223
    99   1 H    0.995 --     1 C    0.927
   100   1 H    0.996 --     2 C    0.954
   101   1 H    0.998 --     4 C    0.961
   102   1 H    0.969 --   131 P    0.910
   103   1 H    0.997 --     6 C    0.963
   104   1 H    0.998 --     8 C    0.962
   105   1 H    0.998 --    11 C    0.961
   106   1 H    0.997 --    15 C    0.957
   107   1 H    0.998 --    16 C    0.969
   108   1 H    0.997 --    26 C    0.949
   109   1 H    0.997 --    36 C    0.947
   110   1 H    0.976 --   132 P    0.927
   111   1 H    0.997 --    40 C    0.958
   112   1 H    0.998 --    43 C    0.960
   113   1 H    0.998 --    45 C    0.964
   114   1 H    0.998 --    55 C    0.959
   115   1 H    0.985 --   128 P    0.918
   116   1 H    0.998 --    62 C    0.969
   117   1 H    0.997 --    64 C    0.966
   118   1 H    0.998 --    67 C    0.960
   119   1 H    0.997 --    72 C    0.960
   120   1 H    0.998 --    77 C    0.958
   121   1 H    0.996 --    85 C    0.936
   122   1 H    0.998 --    89 C    0.961
   123   1 H    0.997 --    91 C    0.951
   124   1 H    0.998 --    96 C    0.961
   125   1 H    0.991 --   129 P    0.936
   126   1 H    0.992 --   127 P    0.940
   127  15 P    3.305 --    42 C    1.040    53 C    1.038   126 H    0.940
   128  15 P    3.369 --    91 C    1.090    83 C    1.045   115 H    0.918
   129  15 P    3.299 --    20 C    1.044    23 C    1.035   125 H    0.936
   130  15 P    3.503 --     9 C    1.054    18 C    1.032    19 C    1.029
   131  15 P    3.374 --    26 C    1.100    27 C    1.046   102 H    0.910
   132  15 P    3.324 --    28 C    1.063    31 C    1.045   110 H    0.927
 ---------------------------------------------------------------------------

Topologies differ in total number of bonds
Writing topology from bond orders to xtbtopo.mol

molecular dipole:
                 x           y           z       tot (Debye)
 q only:        0.425       0.338      -0.594
   full:        0.426       0.268      -1.404       3.791
molecular quadrupole (traceless):
                xx          xy          yy          xz          yz          zz
 q only:       -1.006      -2.288      23.793      -4.567       0.025     -22.788
  q+dip:       21.491      -2.970      40.749      -8.785       0.956     -62.240
   full:        5.459      -2.466      25.296      -8.789       1.542     -30.756

           -------------------------------------------------
          |                Geometry Summary                 |
           -------------------------------------------------

      molecular mass/u    :     1391.1170312
   center of mass at/Å    :       -0.0039972      -0.0094288       0.0419272
  moments of inertia/u·Å² :        0.3153733E+05   0.3645255E+05   0.6709327E+05
rotational constants/cm⁻¹ :        0.5345294E-03   0.4624541E-03   0.2512567E-03

 * 160 selected distances

     #   Z          #   Z                                           value/Å
     1   6 C        6   6 C                                       1.3491364
     3   6 C        6   6 C                                       1.4182484
     1   6 C        7   6 C                                       1.4191630
     2   6 C        8   6 C                                       1.3675294
     5   6 C        8   6 C                                       1.4342715
     2   6 C        9   6 C                                       1.4105231
     3   6 C        9   6 C                                       1.4015060
     4   6 C       16   6 C                                       1.3724389
    11   6 C       16   6 C                                       1.3868658
     4   6 C       17   6 C                                       1.4025738
     5   6 C       17   6 C                                       1.4374293
    12   6 C       17   6 C                                       1.4215898
     5   6 C       18   6 C                                       1.3813445
    13   6 C       18   6 C                                       1.4186159
    11   6 C       20   6 C                                       1.3823227
    12   6 C       20   6 C                                       1.4127102
    13   6 C       21   6 C                                       1.4087809
    14   6 C       21   6 C                                       1.4282714
    13   6 C       22   6 C                                       1.4359678
    14   6 C       23   6 C                                       1.4220504
    15   6 C       23   6 C                                       1.3666701
    14   6 C       24   6 C                                       1.4167900
    15   6 C       25   6 C                                       1.4050098
     7   6 C       27   6 C                                       1.3918129
     7   6 C       29   6 C                                       1.4282813
    10   6 C       29   6 C                                       1.4029395
    19   6 C       32   6 C                                       1.3965798
    26   6 C       36   6 C                                       1.3420283
    28   6 C       36   6 C                                       1.4265927
    27   6 C       37   6 C                                       1.4235391
    28   6 C       37   6 C                                       1.3943929
    29   6 C       38   6 C                                       1.4319891
    30   6 C       38   6 C                                       1.4099361
    33   6 C       38   6 C                                       1.4234249
    30   6 C       39   6 C                                       1.4272705
    31   6 C       39   6 C                                       1.4242501
    34   6 C       39   6 C                                       1.4170764
    31   6 C       40   6 C                                       1.3674887
    35   6 C       40   6 C                                       1.4035247
    19   6 C       41   6 C                                       1.4060773
    22   6 C       41   6 C                                       1.4407540
    22   6 C       50   6 C                                       1.4041605
    24   6 C       50   6 C                                       1.4274542
    24   6 C       57   6 C                                       1.4198825
    25   6 C       57   6 C                                       1.4177287
    25   6 C       64   6 C                                       1.3956575
    32   6 C       70   6 C                                       1.4168941
    33   6 C       70   6 C                                       1.4164684
    44   6 C       70   6 C                                       1.4159263
    45   6 C       71   6 C                                       1.4156223
    64   6 C       71   6 C                                       1.3827815
    66   6 C       71   6 C                                       1.4228367
    65   6 C       72   6 C                                       1.4049755
    67   6 C       72   6 C                                       1.3627977
    33   6 C       73   6 C                                       1.4059720
    34   6 C       73   6 C                                       1.4125333
    46   6 C       73   6 C                                       1.4187545
    47   6 C       74   6 C                                       1.4306596
    66   6 C       74   6 C                                       1.4164310
    68   6 C       74   6 C                                       1.4126518
    34   6 C       75   6 C                                       1.4182530
    35   6 C       75   6 C                                       1.4095488
    48   6 C       75   6 C                                       1.4187961
    49   6 C       76   6 C                                       1.4130866
    68   6 C       76   6 C                                       1.4124667
    69   6 C       76   6 C                                       1.4192512
    35   6 C       77   6 C                                       1.4011685
    42   6 C       77   6 C                                       1.3692564
    43   6 C       78   6 C                                       1.4125999
    65   6 C       78   6 C                                       1.4313669
    69   6 C       78   6 C                                       1.4077123
    41   6 C       79   6 C                                       1.4118696
    44   6 C       79   6 C                                       1.4163338
    52   6 C       79   6 C                                       1.4161493
    44   6 C       80   6 C                                       1.4187810
    46   6 C       80   6 C                                       1.4075855
    54   6 C       80   6 C                                       1.4167448
    45   6 C       81   6 C                                       1.3639686
    46   6 C       82   6 C                                       1.4173689
    48   6 C       82   6 C                                       1.4169344
    56   6 C       82   6 C                                       1.4085766
    47   6 C       83   6 C                                       1.3936554
    49   6 C       83   6 C                                       1.4146621
    42   6 C       84   6 C                                       1.4222334
    48   6 C       84   6 C                                       1.4161679
    51   6 C       84   6 C                                       1.4302587
    43   6 C       85   6 C                                       1.3590551
    49   6 C       85   6 C                                       1.4108158
    50   6 C       86   6 C                                       1.4261203
    52   6 C       86   6 C                                       1.4099834
    59   6 C       86   6 C                                       1.4143297
    53   6 C       87   6 C                                       1.4125685
    60   6 C       87   6 C                                       1.4151041
    52   6 C       88   6 C                                       1.4162176
    54   6 C       88   6 C                                       1.4172272
    61   6 C       88   6 C                                       1.4108733
    53   6 C       89   6 C                                       1.3813572
    62   6 C       89   6 C                                       1.3864839
    54   6 C       90   6 C                                       1.4129672
    56   6 C       90   6 C                                       1.4185048
    63   6 C       90   6 C                                       1.4176287
    55   6 C       91   6 C                                       1.3353014
    51   6 C       92   6 C                                       1.4090033
    56   6 C       92   6 C                                       1.4239049
    58   6 C       92   6 C                                       1.4304264
    57   6 C       93   6 C                                       1.4150536
    59   6 C       93   6 C                                       1.4182008
    66   6 C       93   6 C                                       1.4111918
    58   6 C       94   6 C                                       1.4052596
    67   6 C       94   6 C                                       1.4047150
    59   6 C       95   6 C                                       1.4089994
    61   6 C       95   6 C                                       1.4163679
    68   6 C       95   6 C                                       1.4207956
    60   6 C       96   6 C                                       1.4034996
    62   6 C       96   6 C                                       1.3719836
    61   6 C       97   6 C                                       1.4164281
    63   6 C       97   6 C                                       1.4086408
    69   6 C       97   6 C                                       1.4214672
    58   6 C       98   6 C                                       1.4209134
    63   6 C       98   6 C                                       1.4210038
    65   6 C       98   6 C                                       1.4133978
     1   6 C       99   1 H                                       1.0823403
     2   6 C      100   1 H                                       1.0825620
     4   6 C      101   1 H                                       1.0778705
     6   6 C      103   1 H                                       1.0789611
     8   6 C      104   1 H                                       1.0791332
    11   6 C      105   1 H                                       1.0819286
    15   6 C      106   1 H                                       1.0828019
    16   6 C      107   1 H                                       1.0797111
    26   6 C      108   1 H                                       1.0822134
    36   6 C      109   1 H                                       1.0871613
    40   6 C      111   1 H                                       1.0822389
    43   6 C      112   1 H                                       1.0774588
    45   6 C      113   1 H                                       1.0813321
    55   6 C      114   1 H                                       1.0838676
    62   6 C      116   1 H                                       1.0796846
    64   6 C      117   1 H                                       1.0806284
    67   6 C      118   1 H                                       1.0773954
    72   6 C      119   1 H                                       1.0772881 (min)
    77   6 C      120   1 H                                       1.0823001
    85   6 C      121   1 H                                       1.0826031
    89   6 C      122   1 H                                       1.0818392
    91   6 C      123   1 H                                       1.0830791
    96   6 C      124   1 H                                       1.0774554
    42   6 C      127  15 P                                       1.8050364
    53   6 C      127  15 P                                       1.8056487
   126   1 H      127  15 P                                       1.4012833
    91   6 C      128  15 P                                       1.7926651
   115   1 H      128  15 P                                       1.4059436
    20   6 C      129  15 P                                       1.8055360
    23   6 C      129  15 P                                       1.8103981 (max)
   125   1 H      129  15 P                                       1.4026965
     9   6 C      130  15 P                                       1.7813576
    18   6 C      130  15 P                                       1.7864715
    19   6 C      130  15 P                                       1.7818317
    26   6 C      131  15 P                                       1.7856596
   102   1 H      131  15 P                                       1.4086770
    28   6 C      132  15 P                                       1.7965652
    31   6 C      132  15 P                                       1.7979872
   110   1 H      132  15 P                                       1.4035230

 * 4 distinct bonds (by element types)

   Z      Z             #   av. dist./Å        max./Å        min./Å
   1 H    6 C          23     1.0809502     1.0871613     1.0772881
   6 C    6 C         121     1.4085004     1.4407540     1.3353014
   1 H   15 P           5     1.4044247     1.4086770     1.4012833
   6 C   15 P          11     1.7953779     1.8103981     1.7813576


optimized geometry written to: xtbopt.xyz


           -------------------------------------------------
          | TOTAL ENERGY             -239.836349569460 Eh   |
          | GRADIENT NORM               0.000348318802 Eh/α |
          | HOMO-LUMO GAP               0.512579857339 eV   |
           -------------------------------------------------

------------------------------------------------------------------------
 * finished run on 2025/12/08 at 00:33:59.063     
------------------------------------------------------------------------
 total:
 * wall-time:     0 d,  0 h,  0 min, 36.381 sec
 *  cpu-time:     0 d,  0 h,  2 min, 21.531 sec
 * ratio c/w:     3.890 speedup
 SCF:
 * wall-time:     0 d,  0 h,  0 min,  1.396 sec
 *  cpu-time:     0 d,  0 h,  0 min,  5.469 sec
 * ratio c/w:     3.917 speedup
 ANC optimizer:
 * wall-time:     0 d,  0 h,  0 min, 34.865 sec
 *  cpu-time:     0 d,  0 h,  2 min, 15.625 sec
 * ratio c/w:     3.890 speedup

normal termination of xtb
