132
 energy: -239.836349569460 gnorm: 0.000348318802 xtb: 6.7.1pre (5071a88)
C           -4.42873461783867       -6.29596215906874        0.93875215423284
C           -0.26502257018427       -7.41742949994521        0.83839633057790
C           -2.09103733992735       -5.68594079517646        0.98058869704433
C            3.53963112967646       -8.25965248427238       -0.86206417413972
C            2.06823487396496       -6.68693510413785        0.36441423362421
C           -3.13399785093943       -6.63969344211314        1.09898347135870
C           -4.79454946584037       -4.99082019613641        0.51826779401856
C            1.05373840101978       -7.67639890486499        0.58553127565042
C           -0.76103278751499       -6.11804990951806        1.07326131527512
C           -2.44287119916487       -4.30832741315098        0.74031487772387
C            5.84460279606662       -7.75552477580525       -1.14801409852997
C            4.36226596371529       -6.04388630870383       -0.24020681649014
C            2.75700497538106       -4.31080812538473        0.41355743312291
C            5.05099781541492       -3.62225545680286       -0.03171108425255
C            7.35596450618314       -2.88072383359852       -0.26138385971419
C            4.77703043108816       -8.62126779524969       -1.33287783731076
C            3.31865553117225       -7.00880117356222       -0.26729223035872
C            1.85491297773779       -5.36573568708628        0.70652256858095
C           -0.08238395161375       -3.50516448718446        0.83953708035309
C            5.64669549557204       -6.49383140194774       -0.61907351322976
C            4.07606920787935       -4.66157104111874        0.06470495574872
C            2.32033671350201       -2.94330282244668        0.44895943112012
C            6.43634244610688       -3.89031141740415       -0.20832685531668
C            4.64394067076201       -2.26772965092043        0.05110151782271
C            6.97656859352234       -1.52986127721142       -0.18871158773962
C           -8.66774973723055       -5.53988203290339       -0.58447807515964
C           -6.10692801179704       -4.72949118330270        0.13549836215409
C           -7.78170746140966       -3.25401512378938       -0.84826264806323
C           -3.77805360326999       -3.98976115746112        0.45041411652959
C           -5.51639014548474       -2.36976485996917       -0.25598506083850
C           -7.20129763617838       -0.59722035400486       -0.79898165391744
C           -1.44378788980139       -3.27074923011775        0.63444268840779
C           -3.20209338119754       -1.63137857020447        0.12066654487257
C           -4.94929067949061        0.03162659583617       -0.18621323275391
C           -6.71812034688623        1.70935488483483       -0.26984327678095
C           -8.77313594874819       -4.26840426572395       -1.00074448546785
C           -6.50177004527692       -3.44281764565619       -0.32821939417802
C           -4.18412428770281       -2.66161490461822        0.10152094249070
C           -5.88521006237096       -1.00273604646412       -0.43572071082945
C           -7.60876986324832        0.70196680682806       -0.67207933854728
C            0.93021203914729       -2.57622569180684        0.54158561251775
C           -6.22825252437356        4.02076418837270        0.23015448709433
C            3.25191600238885        6.87904126764003        0.25984549106446
C           -0.85516398353709       -0.92728407758408        0.25017922526334
C            8.51030607911985        1.86178453673995       -0.23739516878466
C           -2.62179947499030        0.75516283903949        0.07115709850452
C            6.78312635973942        3.55941313128620       -0.02706713204307
C           -4.40641418377239        2.43557452644435        0.03103219872520
C            4.99910111167901        5.21214467170336        0.14557763908210
C            3.26695148888446       -1.93172153583444        0.22028936861388
C           -3.86243514628528        4.83626921245660        0.14825780464670
C            1.49779436460549       -0.22262469236251        0.19554585163109
C           -5.59828149812932        6.65629448914960        0.13946456642974
C           -0.28511767363832        1.46347206787760        0.13233627557112
C            9.22170901886165        4.15896656593820       -0.31114403566995
C           -2.07059766485104        3.14688023603706        0.09891069900940
C            5.59991535279698       -1.22241821228553       -0.04637784846757
C           -1.50034119559491        5.53273781980342        0.01475171009719
C            3.83116600645654        0.46569495209014        0.08541003232588
C           -3.28335164850401        7.21142759238089       -0.22676392509314
C            2.06374538144599        2.15688461576265        0.11020865790475
C           -5.01059988152918        8.87959868315440       -0.55674148216977
C            0.28715859647708        3.84265204156333        0.10781624869871
C            7.92587896479290       -0.50832936108345       -0.24476310573000
C            0.85653465363480        6.22642919784873        0.07611356217178
C            6.17595103335732        1.16164932833142       -0.05832054527367
C           -0.89836203073065        7.87118078520710       -0.12254504600059
C            4.42087097194866        2.84560618396610        0.05892227212475
C            2.63888568668814        4.54119669056889        0.12265659752161
C           -1.83435626431323       -1.94839100049135        0.30823195581103
C            7.55270141279641        0.82120127935885       -0.17285180553262
C            0.42357038290107        7.56037711960406       -0.00803301737390
C           -3.58507492581351       -0.28399646135886       -0.00034384914248
C            5.79503839476073        2.52496032062660       -0.00767245192051
C           -5.35108385151363        1.39101089104475       -0.14063062349934
C            4.01590645732347        4.19793761851802        0.10651676673914
C           -7.13340517060024        3.02322724754548       -0.01577514718870
C            2.24645945468786        5.89280649715803        0.15105115731150
C            0.52400365730357       -1.24510573114936        0.30391001381646
C           -1.25421438605592        0.43009119014910        0.14420555616438
C            8.16934331575900        3.18066209455246       -0.16871940907599
C           -3.02698967610829        2.11336016684577        0.06372352673416
C            6.37376241246292        4.88856289529355        0.06269364206780
C           -4.82802488940479        3.78123154733286        0.16135005862656
C            4.57081390960058        6.55113875822867        0.26417684103217
C            2.86564306037353       -0.56402937110981        0.17350895440909
C           -4.25740385633024        6.22188535137035        0.04627037063643
C            1.09311049196597        1.13335266745079        0.13872811780157
C           -5.96137950679833        7.95844384428878       -0.14463819644981
C           -0.69110198862184        2.81665197082355        0.10873799867323
C            9.06353412430621        5.48339263136033       -0.24864774236229
C           -2.49420065130120        4.50621976881171        0.08274676704780
C            5.20812965566454        0.13643338610553        0.00263906437387
C           -1.88935631791278        6.87562324886001       -0.12695244544375
C            3.43895220530450        1.81900260106842        0.08301285273993
C           -3.68913656572881        8.51089364764255       -0.56813951549150
C            1.65682771152435        3.51360316228429        0.10915662844672
C           -0.11910863661026        5.20380085932971        0.06944705557441
H           -5.20967772261284       -7.02080357743663        1.12899679226562
H           -0.96067140697221       -8.24102283174919        0.73987275360226
H            2.72033973859353       -8.95255947301416       -0.96427051345332
H           -6.76516868943288       -6.97340473612527       -0.64435830126072
H           -2.87727013948338       -7.64494719178318        1.39514660971834
H            1.32739754976870       -8.70766734928478        0.42390088364236
H            6.84623616195649       -8.05516721780839       -1.42642813601617
H            8.40639917821645       -3.12323114249360       -0.36256137551456
H            4.92685981282978       -9.58148314508969       -1.80331761901274
H           -9.47645441019982       -6.24462825002022       -0.72770935906685
H           -9.67425342078367       -3.95641550435994       -1.52282668815214
H           -9.44631040654065       -1.50246672007577       -0.91764968029353
H           -8.62992688809414        0.96983033110951       -0.91025613003101
H            2.98161897377258        7.91768238053216        0.35514230414871
H            9.54881770834776        1.58313395395574       -0.35196535027514
H           10.20312781163810        3.75048470181000       -0.52263526391008
H            7.28290206336603        6.88141781952470       -1.01702464825596
H           -5.30425777862208        9.88017183751249       -0.83662910819284
H            8.97025607329751       -0.76734237588868       -0.34449342107416
H           -1.17529357065783        8.91083408418266       -0.17920785640491
H            1.13852909763033        8.36617666694035        0.00037218373021
H           -8.19267752815148        3.24497854128265       -0.00387359223922
H            5.31754299012409        7.32826000577907        0.36668331860879
H           -7.00019639054191        8.24664689169065       -0.05422602844752
H            9.90929208650303        6.14731598671105       -0.37887584787592
H           -2.95440335408120        9.24161541964397       -0.86330502389401
H            7.65932890062297       -5.50155876857860       -1.51387590484575
H           -7.82905947844679        5.78058767092778       -0.18263150063479
P           -6.88167897631288        5.59187617587143        0.83248070521192
P            7.53212388891960        6.28271843254688        0.23042261797397
P            7.13738843658805       -5.55945836090571       -0.21319038239380
P            0.43645461396065       -4.96681920042511        1.71663206374663
P           -7.26738185347537       -6.12128924106023        0.35866294517532
P           -8.28486988307254       -1.73756381834533       -1.66975453796209
