132
 energy: -239.810693194824 gnorm: 0.053709025190 xtb: 6.7.1pre (5071a88)
C           -4.41515800000000       -6.39669600000000        0.72872500000000
C           -0.21099700000000       -7.47322000000000        1.04264300000000
C           -2.07451600000000       -5.74133500000000        0.88514300000000
C            3.81543800000000       -8.50414400000000       -0.03976000000000
C            2.17254500000000       -6.74712200000000        0.58930100000000
C           -3.11765000000000       -6.72269300000000        0.92177900000000
C           -4.82155100000000       -5.06237000000000        0.38192200000000
C            1.13161900000000       -7.72702000000000        0.88891900000000
C           -0.75677000000000       -6.15001200000000        1.09666500000000
C           -2.45786500000000       -4.34377300000000        0.63075400000000
C            6.00905900000000       -7.93127600000000       -0.80057300000000
C            4.43319500000000       -6.12214600000000       -0.26082800000000
C            2.78369400000000       -4.34856000000000        0.29156800000000
C            5.04531400000000       -3.63267500000000       -0.35663100000000
C            7.35092300000000       -2.87472400000000       -0.67267000000000
C            5.06214600000000       -8.90575800000000       -0.46468800000000
C            3.47418700000000       -7.13527800000000        0.08934000000000
C            1.90826800000000       -5.39289600000000        0.71234200000000
C           -0.08984400000000       -3.51439800000000        0.73230600000000
C            5.70232900000000       -6.57849800000000       -0.73081500000000
C            4.09283600000000       -4.69894800000000       -0.14430600000000
C            2.32805700000000       -2.96254300000000        0.30310600000000
C            6.41801500000000       -3.87835700000000       -0.70913300000000
C            4.64879800000000       -2.27572300000000       -0.16010200000000
C            6.99290400000000       -1.52729800000000       -0.41607700000000
C           -8.78055200000000       -5.59771000000000       -0.59964500000000
C           -6.14759200000000       -4.79601800000000        0.06000500000000
C           -7.86047900000000       -3.30123800000000       -0.89097100000000
C           -3.80205800000000       -4.03381400000000        0.34246800000000
C           -5.57085400000000       -2.38788100000000       -0.31817000000000
C           -7.27614700000000       -0.59386100000000       -0.84380900000000
C           -1.45746700000000       -3.28318300000000        0.53118200000000
C           -3.23887300000000       -1.63509600000000        0.04873500000000
C           -4.99574600000000        0.03948800000000       -0.24962800000000
C           -6.77029600000000        1.72909100000000       -0.34424900000000
C           -8.87699700000000       -4.32333600000000       -1.02427400000000
C           -6.57008200000000       -3.48595100000000       -0.38692500000000
C           -4.22352400000000       -2.68323400000000        0.01797700000000
C           -5.94523100000000       -1.00262800000000       -0.48837600000000
C           -7.67547700000000        0.71318200000000       -0.72115100000000
C            0.92368200000000       -2.58382300000000        0.41726900000000
C           -6.29844400000000        4.06149800000000        0.14851400000000
C            3.27495000000000        6.93259200000000        0.25439100000000
C           -0.87504200000000       -0.91942400000000        0.16802700000000
C            8.56389100000000        1.86908500000000       -0.24154000000000
C           -2.65358300000000        0.77323100000000        0.01311200000000
C            6.83105700000000        3.58546300000000        0.00723400000000
C           -4.45063000000000        2.46804300000000       -0.02092900000000
C            5.04273600000000        5.25524700000000        0.17497500000000
C            3.27130800000000       -1.93951100000000        0.07408300000000
C           -3.90803100000000        4.89469900000000        0.13974100000000
C            1.49436000000000       -0.21107400000000        0.10797200000000
C           -5.65196100000000        6.75531700000000        0.18527900000000
C           -0.30123500000000        1.48950100000000        0.08180000000000
C            9.31692800000000        4.16652800000000       -0.19134100000000
C           -2.10065300000000        3.18560800000000        0.07325700000000
C            5.61505800000000       -1.22044500000000       -0.22529300000000
C           -1.51873300000000        5.59363000000000        0.06130700000000
C            3.84284100000000        0.47912600000000        0.00400400000000
C           -3.30078000000000        7.31125400000000       -0.08051300000000
C            2.06722300000000        2.18220600000000        0.07436300000000
C           -5.00709400000000        9.04263000000000       -0.28534500000000
C            0.28200500000000        3.88214400000000        0.09883500000000
C            7.95531700000000       -0.50582600000000       -0.40102200000000
C            0.86243000000000        6.27827600000000        0.11743500000000
C            6.20677000000000        1.17159400000000       -0.11457600000000
C           -0.89298100000000        7.94746500000000        0.01043100000000
C            4.44741900000000        2.87292100000000        0.04925200000000
C            2.65642500000000        4.58020600000000        0.12753100000000
C           -1.85897800000000       -1.94945100000000        0.22250400000000
C            7.59145300000000        0.82569700000000       -0.24288100000000
C            0.43484100000000        7.62578200000000        0.08301900000000
C           -3.62370000000000       -0.27815200000000       -0.06613500000000
C            5.82849900000000        2.54504300000000       -0.01500100000000
C           -5.39863200000000        1.41139400000000       -0.20621600000000
C            4.04758500000000        4.23551700000000        0.11742400000000
C           -7.19390800000000        3.05320000000000       -0.11634800000000
C            2.26210800000000        5.93807200000000        0.16665300000000
C            0.51485300000000       -1.24083800000000        0.20387900000000
C           -1.27804000000000        0.44831300000000        0.07411900000000
C            8.23458200000000        3.19228000000000       -0.12348900000000
C           -3.06134900000000        2.14439000000000        0.01470700000000
C            6.42908000000000        4.92323500000000        0.12940400000000
C           -4.88330700000000        3.82405000000000        0.10747400000000
C            4.60188500000000        6.60635600000000        0.26536700000000
C            2.86822200000000       -0.55706700000000        0.06553200000000
C           -4.29992600000000        6.30797300000000        0.09771800000000
C            1.08782100000000        1.15563200000000        0.07705300000000
C           -5.98965200000000        8.08967400000000       -0.00105400000000
C           -0.70854200000000        2.85173900000000        0.07685200000000
C            9.18515500000000        5.49757500000000       -0.07850900000000
C           -2.52839900000000        4.55963600000000        0.08918000000000
C            5.22718800000000        0.14446000000000       -0.09884600000000
C           -1.89938000000000        6.95204400000000       -0.01401200000000
C            3.45253400000000        1.84085100000000        0.04203800000000
C           -3.68392800000000        8.65526000000000       -0.30319600000000
C            1.66087700000000        3.54912100000000        0.09518800000000
C           -0.12494400000000        5.25424800000000        0.09442400000000
H           -5.15653400000000       -7.18014900000000        0.82661300000000
H           -0.87315400000000       -8.33582200000000        1.03859100000000
H            3.08899600000000       -9.26592200000000        0.21021800000000
H           -6.88738000000000       -7.16362500000000       -0.54744400000000
H           -2.86179400000000       -7.74763200000000        1.16477400000000
H            1.40633200000000       -8.77342100000000        0.86266700000000
H            6.99730200000000       -8.23520300000000       -1.13671700000000
H            8.39332600000000       -3.09828500000000       -0.88784800000000
H            5.30581600000000       -9.96134700000000       -0.53864300000000
H           -9.60611100000000       -6.29117600000000       -0.73773100000000
H           -9.79889900000000       -4.01903200000000       -1.52005900000000
H           -9.58431500000000       -1.52055300000000       -0.96537200000000
H           -8.70245800000000        0.99474700000000       -0.94293900000000
H            3.00778100000000        7.97922600000000        0.32402600000000
H            9.60856300000000        1.58965700000000       -0.35320200000000
H           10.30645600000000        3.74730300000000       -0.36769600000000
H            7.39799500000000        7.05572500000000       -0.81042400000000
H           -5.28004900000000       10.07748500000000       -0.46901900000000
H            9.00306800000000       -0.76358200000000       -0.53289400000000
H           -1.16053600000000        8.99562400000000       -0.00015700000000
H            1.15581800000000        8.43264300000000        0.10303400000000
H           -8.26136300000000        3.26176800000000       -0.13505100000000
H            5.32717200000000        7.40916300000000        0.34050200000000
H           -7.03061000000000        8.39583700000000        0.07014000000000
H           10.06046000000000        6.13881000000000       -0.15188100000000
H           -2.93124400000000        9.40534900000000       -0.50691100000000
H            6.51198300000000       -5.32126500000000       -2.67915200000000
H           -7.92616100000000        5.87461200000000       -0.29852200000000
P           -6.97820300000000        5.64136100000000        0.73497400000000
P            7.63379800000000        6.30145600000000        0.37639900000000
P            7.01586000000000       -5.47480500000000       -1.34963900000000
P            0.44043500000000       -4.94520300000000        1.64372900000000
P           -7.36483100000000       -6.16234200000000        0.34685100000000
P           -8.37688800000000       -1.75834500000000       -1.67912400000000
132
 energy: -239.825608270032 gnorm: 0.028362360393 xtb: 6.7.1pre (5071a88)
C           -4.40948294607584       -6.36987358153776        0.72295931335038
C           -0.20371001229634       -7.44677814349427        1.02866117125900
C           -2.07299030949383       -5.72039840507775        0.88252147792182
C            3.81538399126063       -8.47832626710175       -0.04110564550339
C            2.17054819285078       -6.73287655630380        0.58475936813260
C           -3.11398641209540       -6.69567205950741        0.91560244128107
C           -4.80926037417276       -5.04413258100801        0.37372743693569
C            1.13306729937723       -7.70045425341898        0.88500224640707
C           -0.75129781254385       -6.13146997287462        1.07861340515886
C           -2.45323286248815       -4.33349918087072        0.62630042743893
C            5.99178255717031       -7.90488175614071       -0.80268460681852
C            4.41691047329935       -6.10298918582579       -0.26170573688076
C            2.77722514044977       -4.33530154646826        0.28913791377851
C            5.02781838042557       -3.62660523107627       -0.35712440649659
C            7.32586212687911       -2.86860755569062       -0.67751499478715
C            5.05803549016847       -8.87673465241185       -0.46079124912787
C            3.46801465345408       -7.11677950874754        0.08515901439061
C            1.90341027216172       -5.37895729219191        0.70050539941868
C           -0.08921516406176       -3.51049937314713        0.71653893097663
C            5.67712245418588       -6.55785125663157       -0.73668810056218
C            4.08048252802500       -4.68794796685592       -0.14420384778234
C            2.32262241099146       -2.95658593796880        0.29817400296168
C            6.39229059574770       -3.86868573297325       -0.71701694107937
C            4.63806840639809       -2.27230337806624       -0.15914437562468
C            6.97453322880629       -1.52523869294718       -0.41315749768651
C           -8.74061660428507       -5.57951140053840       -0.59910373757888
C           -6.13373194264152       -4.77864742319935        0.04646613643979
C           -7.84527043061067       -3.28468696127013       -0.86928132872357
C           -3.79354394902334       -4.02305747452811        0.33567313875453
C           -5.55901429604535       -2.38394416936167       -0.31426464768169
C           -7.26015302794258       -0.60019208789991       -0.82702172868831
C           -1.45815795481199       -3.27832021713622        0.52805773950764
C           -3.23381869014915       -1.63355807473037        0.04777247410974
C           -4.98783750539818        0.03756724862101       -0.24396587102112
C           -6.75512931746267        1.72503935694916       -0.34264192364630
C           -8.84700954554581       -4.30575208338872       -1.01373094473580
C           -6.55325649933672       -3.47190711517337       -0.38052127660940
C           -4.21553658793850       -2.67794566044130        0.02063228883640
C           -5.93157579800902       -1.00533362821653       -0.48090458301616
C           -7.65636062363559        0.70737752185368       -0.71586009944315
C            0.92511996993861       -2.57914653153188        0.41228607775497
C           -6.27609176783429        4.05707376715571        0.13434704621648
C            3.27266293817672        6.90962582925308        0.25402652362256
C           -0.87349689471772       -0.91991363187535        0.16558550335152
C            8.54058789535698        1.86625150725387       -0.24079330387834
C           -2.64976144733011        0.77100890056212        0.01270960089473
C            6.81610608590815        3.57542984091974        0.00405566249581
C           -4.44095272680415        2.46350382136682       -0.02619960357713
C            5.03140289864917        5.23889709616753        0.16736080333329
C            3.26415457248639       -1.93586737593398        0.06930726084912
C           -3.89692171520213        4.88241017761440        0.13447701504515
C            1.49192297332995       -0.21089801085267        0.10693627771926
C           -5.63509541597565        6.72996795215925        0.17196193970523
C           -0.30047052835130        1.48564376864852        0.08062096938856
C            9.28387609271072        4.16054945134286       -0.18935477120678
C           -2.09548174926346        3.17898984144828        0.07106409230304
C            5.60066100061688       -1.21902861036049       -0.22342905985556
C           -1.51574892095635        5.57829379168384        0.06063320518487
C            3.83572913116019        0.47753702435496        0.00411977330981
C           -3.29677924713546        7.28940650548559       -0.08099080659538
C            2.06434526813622        2.17805030673426        0.07375158465469
C           -5.00257795913055        9.01170478644054       -0.28364585766225
C            0.28144130619616        3.87342923339232        0.09821788209457
C            7.93398379657510       -0.50530592810981       -0.39829298578191
C            0.86009049212157        6.26127687739522        0.11705664785392
C            6.19324621762833        1.17011298695198       -0.11499201828418
C           -0.89528353119229        7.92266588989669        0.01297219777963
C            4.43907611346945        2.86583991158640        0.04722387181441
C            2.65178390099005        4.56888329296769        0.12616514481513
C           -1.85683597285162       -1.94777336325351        0.21945588410798
C            7.57262249693650        0.82484305805622       -0.24158501366364
C            0.42873930817347        7.60245478168683        0.08419793545509
C           -3.61776596835031       -0.27812606099672       -0.06298190759792
C            5.81774777770109        2.53971064905802       -0.01762214303284
C           -5.38646813036683        1.40764377003719       -0.20456657427407
C            4.03835189793771        4.22451282965937        0.11345455731086
C           -7.17305080868817        3.04919811711412       -0.11869340002906
C            2.25779968269902        5.92327585501870        0.16523358777647
C            0.51421257854181       -1.23929591837633        0.20059055991973
C           -1.27571052619229        0.44612588758316        0.07847515869732
C            8.21098994707766        3.18664934633459       -0.12104402032282
C           -3.05523537741183        2.13942860930172        0.01537623556195
C            6.41298748973855        4.90932877533612        0.11245868016501
C           -4.86732407347739        3.81720613144318        0.10166567893521
C            4.59557662158285        6.58267879117199        0.26389419158250
C            2.86363632298575       -0.55689547127067        0.06598006708475
C           -4.28798041378178        6.28653443465781        0.09374323395715
C            1.08592477154354        1.15314009675555        0.07949715483359
C           -5.97635464083155        8.06130245117136       -0.00207523699048
C           -0.70704848900579        2.84574176809858        0.07899681585292
C            9.14382303475220        5.48703834577808       -0.08623400596913
C           -2.52152187476779        4.54840723667541        0.08556507110729
C            5.21663812862553        0.14385346549443       -0.09863836240365
C           -1.89910806161650        6.93267898579454       -0.01355813836894
C            3.44662483087088        1.83711070103714        0.04207420639211
C           -3.68502373769656        8.62674490337377       -0.30184182252199
C            1.65828048105744        3.54162175802405        0.09615697260420
C           -0.12594573524279        5.24129998891472        0.09423188109790
H           -5.16005196089052       -7.14326247603275        0.82899445502597
H           -0.86427008190478       -8.30705447249659        1.02967347566568
H            3.09553913787904       -9.24292822133065        0.20626893903958
H           -6.89725745747518       -7.10443905465195       -0.57328254248290
H           -2.85829017634756       -7.71773126306327        1.15891940365287
H            1.40738829640755       -8.74513504706776        0.86528608611445
H            6.97852689934674       -8.20448029424904       -1.13738388143215
H            8.36493252211264       -3.09748350965961       -0.88925550061196
H            5.30441196572922       -9.92849145389666       -0.53498590742212
H           -9.56421560853556       -6.27488582100546       -0.72630626056263
H           -9.76338953491720       -4.00084073715752       -1.51668058646222
H           -9.53609467989372       -1.52423871347577       -0.94427873039319
H           -8.68092240281243        0.98364469418201       -0.94152093840114
H            3.00945296304174        7.95426955079390        0.32432783920388
H            9.58250329140494        1.58745944053125       -0.35044102305386
H           10.27320110551926        3.74742300298340       -0.36722003994067
H            7.40754640587685        6.99468846630780       -0.81349541286394
H           -5.27701267983429       10.04374029367750       -0.46358523194285
H            8.97836355324189       -0.76281181524700       -0.52861489261973
H           -1.16004446180252        8.96891691961479        0.00054548885871
H            1.14519567933944        8.40955499705815        0.10471500710929
H           -8.23685358724115        3.26281492089449       -0.13099131717593
H            5.32916136050897        7.37659863211945        0.34463217553186
H           -7.01455662914134        8.36484902546206        0.07461527229793
H           10.01484525685807        6.13279043949674       -0.14801480665981
H           -2.93978564287245        9.38045604168471       -0.50377426978588
H            6.48237526516008       -5.31451388913621       -2.62081432808091
H           -7.87306356192337        5.86124013477551       -0.30418006504246
P           -6.95347713074646        5.62528541055975        0.74289453542145
P            7.60148697334034        6.28094806255934        0.39649791716143
P            7.02018814172010       -5.47006884188308       -1.31227389835508
P            0.44244096213442       -4.93176869918769        1.63856617211815
P           -7.33818049197738       -6.13666163141492        0.36528607385159
P           -8.35173053639270       -1.75679425074344       -1.68204891194201
132
 energy: -239.832338117966 gnorm: 0.011695131068 xtb: 6.7.1pre (5071a88)
C           -4.40044889138221       -6.34232667983487        0.72163110381762
C           -0.20067024124566       -7.42107942454760        1.01588950565278
C           -2.06922386499626       -5.69853139640252        0.87627401124986
C            3.80674360359825       -8.45133050745689       -0.04325044299044
C            2.16440189267285       -6.71523774901726        0.58194132969566
C           -3.10602707981665       -6.66965238520902        0.91099307515913
C           -4.79237208807196       -5.02207285000154        0.37495072864898
C            1.13380264197096       -7.67502619475390        0.88151411470582
C           -0.74557288679173       -6.11223081595042        1.06371243479560
C           -2.44351349078475       -4.32118770157784        0.62122973122893
C            5.97519328933889       -7.87676994831225       -0.79908546562739
C            4.40090734442333       -6.08112073614557       -0.25516425083781
C            2.76618873646297       -4.31972577232129        0.28641836390142
C            5.01015597852148       -3.61836816941764       -0.35219134566018
C            7.30272450959735       -2.86135918279634       -0.67557142333948
C            5.04706071060451       -8.84841499977004       -0.46343748606938
C            3.45738945664502       -7.09531016327377        0.08180239411115
C            1.89544061656419       -5.36148798708349        0.69448687229732
C           -0.08779691782038       -3.50275848925088        0.70477829053530
C            5.65764888340977       -6.53399941866920       -0.72040609396423
C            4.06522805388266       -4.67389123832139       -0.14385531583111
C            2.31466663913442       -2.94843666698638        0.29418853628340
C            6.36889680350354       -3.85824260373912       -0.70604122620029
C            4.62478109896816       -2.26641809011597       -0.15916979342107
C            6.95490400599322       -1.52167977012810       -0.41455338352103
C           -8.71501393704735       -5.55014528166899       -0.57757620366789
C           -6.11749841985293       -4.75437170030180        0.04950258849279
C           -7.82364710164927       -3.26792693509163       -0.85894025878558
C           -3.78076478435091       -4.00874649392689        0.33046643596628
C           -5.54222039378238       -2.37697822383763       -0.31270789169103
C           -7.23723642603671       -0.60050296215336       -0.82039180226043
C           -1.45548435643353       -3.27070970629616        0.52323793856318
C           -3.22427451768874       -1.62961600974924        0.04567375364295
C           -4.97514946895490        0.03702466231725       -0.23883288983262
C           -6.73813575244975        1.72063640888461       -0.34076138471834
C           -8.82105181741560       -4.28126768022188       -0.99896702614833
C           -6.52991007058683       -3.45595170295859       -0.37707124436938
C           -4.20171189133402       -2.67002495009090        0.01989412425138
C           -5.91340449391884       -1.00453457319829       -0.47599223214790
C           -7.63502704038327        0.70428700195320       -0.71363804892941
C            0.92543361187995       -2.57248587214126        0.40605480746933
C           -6.25270537558289        4.04538052705213        0.13228610521802
C            3.26526093471791        6.88856800681161        0.25359560726691
C           -0.87030273586372       -0.91916354222596        0.16132388561345
C            8.51648012615948        1.85960569198892       -0.24014702932454
C           -2.64255656607359        0.76799338124363        0.01255477917389
C            6.79760442683384        3.56156116232416        0.00648591656582
C           -4.42775660366414        2.45571292481329       -0.03026981310297
C            5.01487312370667        5.22036146273051        0.16401961263907
C            3.25503919387566       -1.93041462732138        0.06596924483724
C           -3.88338080475870        4.86572024114410        0.13064845863263
C            1.48807284894585       -0.21080025913270        0.10432568388825
C           -5.61482591166223        6.70233487091576        0.17286611460876
C           -0.29899950361275        1.47984566408960        0.07978847223566
C            9.25365464651574        4.14839935843601       -0.17900100662479
C           -2.08799813397764        3.16898364006303        0.06899858805198
C            5.58403297708337       -1.21685244350253       -0.22347343836456
C           -1.51038584403089        5.55974755154829        0.05912214527370
C            3.82542086382087        0.47477187074013        0.00328485228984
C           -3.28865060079651        7.26392018093590       -0.08486966241962
C            2.05930007078410        2.17155996233098        0.07271790146292
C           -4.99559586018690        8.97823358490047       -0.28579093461653
C            0.28061538971721        3.86140781618185        0.09752501074487
C            7.91256105226482       -0.50560779226078       -0.39783394011038
C            0.85819978153109        6.24269209819531        0.11667938328507
C            6.17636520461866        1.16624120799371       -0.11584334986242
C           -0.89547738709114        7.89832119323156        0.01356611893261
C            4.42630332641240        2.85571251018551        0.04347370909160
C            2.64416058388441        4.55483403527606        0.12321897013410
C           -1.85141045843499       -1.94408622100131        0.21451774901688
C            7.55174782575080        0.82189196469766       -0.24050798150985
C            0.42661113517441        7.57928341627040        0.08572473438796
C           -3.60767420872379       -0.27697967037935       -0.06064837552838
C            5.80232948235452        2.53126571351744       -0.02098893721804
C           -5.37155277088330        1.40330368882585       -0.20293187297314
C            4.02480653144928        4.21018890841430        0.10772660867608
C           -7.15218490715555        3.04200359382630       -0.11684733898191
C            2.25201265524019        5.90678458443782        0.16339982916296
C            0.51326526455473       -1.23673479989820        0.19489874907943
C           -1.27129968870453        0.44324028226540        0.07959480342969
C            8.18572020531469        3.17734737248501       -0.11615932286317
C           -3.04608013336777        2.13190410873191        0.01495972305508
C            6.39209802670893        4.89161021989906        0.11194130342364
C           -4.84940182198242        3.80587925988658        0.09858757712928
C            4.58493024235248        6.55982653540002        0.26334077111494
C            2.85643235500619       -0.55669914839874        0.06464152484448
C           -4.27302905612342        6.26140934635841        0.09184856699523
C            1.08305050610741        1.14904555935164        0.08005717887483
C           -5.96248259171623        8.02892976378103       -0.00071823046713
C           -0.70449360918152        2.83667730082049        0.07970637463388
C            9.10930766931430        5.47078126109540       -0.06924902203075
C           -2.51167569179569        4.53324555369482        0.08254898369504
C            5.20230525931156        0.14227477541207       -0.09848595739348
C           -1.89517479402488        6.91095498960986       -0.01515625726628
C            3.43724201114521        1.83104679102905        0.04099315454673
C           -3.67985928344367        8.59577843021012       -0.30329629899217
C            1.65403464484299        3.53087513826214        0.09580016177726
C           -0.12553786104574        5.22531710744528        0.09355719113839
H           -5.16106220182070       -7.10473033641357        0.83289700560751
H           -0.86282375375671       -8.27753602497115        1.00778520354834
H            3.09103519261738       -9.21637568408713        0.20702764205036
H           -6.88073832812800       -7.05820315669654       -0.59644849883950
H           -2.84955953876427       -7.68882966229496        1.15618901027256
H            1.41148445413637       -8.71779677943833        0.86691822182707
H            6.96075793475374       -8.16801172983638       -1.13799529020819
H            8.33731975239668       -3.09586472553718       -0.89162919795387
H            5.29802406635026       -9.89685585276815       -0.53188816885665
H           -9.52419045152277       -6.25663192113718       -0.71833060350781
H           -9.72529817112460       -3.97640988451473       -1.52154803024981
H           -9.49863184377556       -1.51702120917078       -0.92740250798403
H           -8.65864851765430        0.97345039384651       -0.94158591239898
H            3.00288899945522        7.93143925891718        0.32633831730837
H            9.55615333831235        1.58107168710718       -0.34802571960566
H           10.23889276554742        3.74032228056237       -0.37825137914336
H            7.39039410261923        6.95874858855186       -0.82317562776397
H           -5.27196875034465       10.00782063680361       -0.46172305652342
H            8.95450297453505       -0.76352666428680       -0.52470655893633