      -----------------------------------------------------------      
     |                   =====================                   |     
     |                           x T B                           |     
     |                   =====================                   |     
     |                         S. Grimme                         |     
     |          Mulliken Center for Theoretical Chemistry        |     
     |                    University of Bonn                     |     
      -----------------------------------------------------------      

   * xtb version 6.7.1pre (5071a88) compiled by 'Marcel@Raven' on 2024-07-23

   xtb is free software: you can redistribute it and/or modify it under
   the terms of the GNU Lesser General Public License as published by
   the Free Software Foundation, either version 3 of the License, or
   (at your option) any later version.
   
   xtb is distributed in the hope that it will be useful,
   but WITHOUT ANY WARRANTY; without even the implied warranty of
   MERCHANTABILITY or FITNESS FOR A PARTICULAR PURPOSE.  See the
   GNU Lesser General Public License for more details.
   
   Cite this work as:
   * C. Bannwarth, E. Caldeweyher, S. Ehlert, A. Hansen, P. Pracht,
     J. Seibert, S. Spicher, S. Grimme, WIREs Comput. Mol. Sci., 2020, 11,
     e01493. DOI: 10.1002/wcms.1493
   
   for GFN2-xTB:
   * C. Bannwarth, S. Ehlert and S. Grimme., J. Chem. Theory Comput., 2019,
     15, 1652-1671. DOI: 10.1021/acs.jctc.8b01176
   for GFN1-xTB:
   * S. Grimme, C. Bannwarth, P. Shushkov, J. Chem. Theory Comput., 2017,
     13, 1989-2009. DOI: 10.1021/acs.jctc.7b00118
   for GFN0-xTB:
   * P. Pracht, E. Caldeweyher, S. Ehlert, S. Grimme, ChemRxiv, 2019, preprint.
     DOI: 10.26434/chemrxiv.8326202.v1
   for GFN-FF:
   * S. Spicher and S. Grimme, Angew. Chem. Int. Ed., 2020, 59, 15665-15673.
     DOI: 10.1002/anie.202004239
   
   for ALPB and GBSA implicit solvation:
   * S. Ehlert, M. Stahn, S. Spicher, S. Grimme, J. Chem. Theory Comput.,
     2021, 17, 4250-4261. DOI: 10.1021/acs.jctc.1c00471
   
   for ddCOSMO and CPCM-X implicit solvation:
   * M. Stahn, S. Ehlert, S. Grimme, J. Phys. Chem. A,
     2023, XX, XXXX-XXXX. DOI: 10.1021/acs.jpca.3c04382
   
   for DFT-D4:
   * E. Caldeweyher, C. Bannwarth and S. Grimme, J. Chem. Phys., 2017,
     147, 034112. DOI: 10.1063/1.4993215
   * E. Caldeweyher, S. Ehlert, A. Hansen, H. Neugebauer, S. Spicher,
     C. Bannwarth and S. Grimme, J. Chem. Phys., 2019, 150, 154122.
     DOI: 10.1063/1.5090222
   * E. Caldeweyher, J.-M. Mewes, S. Ehlert and S. Grimme, Phys. Chem. Chem. Phys.
     2020, 22, 8499-8512. DOI: 10.1039/D0CP00502A
   
   for sTDA-xTB:
   * S. Grimme and C. Bannwarth, J. Chem. Phys., 2016, 145, 054103.
     DOI: 10.1063/1.4959605
   
   in the mass-spec context:
   * V. Asgeirsson, C. Bauer and S. Grimme, Chem. Sci., 2017, 8, 4879.
     DOI: 10.1039/c7sc00601b
   * J. Koopman and S. Grimme, ACS Omega 2019, 4, 12, 15120-15133.
     DOI: 10.1021/acsomega.9b02011
   
   for metadynamics refer to:
   * S. Grimme, J. Chem. Theory Comput., 2019, 155, 2847-2862
     DOI: 10.1021/acs.jctc.9b00143
   
   for SPH calculations refer to:
   * S. Spicher and S. Grimme, J. Chem. Theory Comput., 2021, 17, 1701-1714
     DOI: 10.1021/acs.jctc.0c01306
   
   for ONIOM refer to:
   * C. Plett, A. Katbashev, S. Ehlert, S. Grimme, M. Bursch,
     Phys. Chem. Chem. Phys., 2023, 25, 17860-17868. DOI: 10.1039/D3CP02178E
   
   for DIPRO refer to:
   * J. Kohn, N. Gildemeister, S. Grimme, D. Fazzi, A. Hansen,
     J. Chem. Phys., 2023, just accepted.
   
   for PTB refer to:
   * S. Grimme, M. Mueller, A. Hansen, J. Chem. Phys., 2023, 158, 124111.
     DOI: 10.1063/5.0137838
   
   with help from (in alphabetical order)
   P. Atkinson, C. Bannwarth, F. Bohle, G. Brandenburg, E. Caldeweyher
   M. Checinski, S. Dohm, S. Ehlert, S. Ehrlich, I. Gerasimov, C. Hölzer
   A. Katbashev, J. Kohn, J. Koopman, C. Lavigne, S. Lehtola, F. März, M. Müller,
   F. Musil, H. Neugebauer, J. Pisarek, C. Plett, P. Pracht, F. Pultar,
   J. Seibert, P. Shushkov, S. Spicher, M. Stahn, M. Steiner, T. Strunk,
   J. Stückrath, T. Rose, and J. Unsleber
   
 * started run on 2025/12/08 at 00:42:44.297     
   ID    Z sym.   atoms
    1    6 C      1-4, 6-20, 22-159, 161-170
    2    5 B      5, 21, 160
    3    1 H      171-205

           -------------------------------------------------
          |                Calculation Setup                |
           -------------------------------------------------

          program call               : xtb "C:\Users\LENOVO GAMING\Documents\GitHub\molecular-conductivity-sim\results\2nm-3Bdoped-1.5percent\xtbopt.xyz" --sp
          coordinate file            : C:\Users\LENOVO GAMING\Documents\GitHub\molecular-conductivity-sim\results\2nm-3Bdoped-1.5percent\xtbopt.xyz
          omp threads                :                    16


           -------------------------------------------------
          |                 G F N 2 - x T B                 |
           -------------------------------------------------

        Reference                      10.1021/acs.jctc.8b01176
      * Hamiltonian:
        H0-scaling (s, p, d)           1.850000    2.230000    2.230000
        zeta-weighting                 0.500000
      * Dispersion:
        s8                             2.700000
        a1                             0.520000
        a2                             5.000000
        s9                             5.000000
      * Repulsion:
        kExp                           1.500000    1.000000
        rExp                           1.000000
      * Coulomb:
        alpha                          2.000000
        third order                    shell-resolved
        anisotropic                    true
        a3                             3.000000
        a5                             4.000000
        cn-shift                       1.200000
        cn-exp                         4.000000
        max-rad                        5.000000

q/qsh data taken from xtbrestart
CAMM data taken from xtbrestart

          ...................................................
          :                      SETUP                      :
          :.................................................:
          :  # basis functions                 715          :
          :  # atomic orbitals                 715          :
          :  # shells                          375          :
          :  # electrons                       712          :
          :  max. iterations                   250          :
          :  Hamiltonian                  GFN2-xTB          :
          :  restarted?                       true          :
          :  GBSA solvation                  false          :
          :  PC potential                    false          :
          :  electronic temp.          300.0000000     K    :
          :  accuracy                    1.0000000          :
          :  -> integral cutoff          0.2500000E+02      :
          :  -> integral neglect         0.1000000E-07      :
          :  -> SCF convergence          0.1000000E-05 Eh   :
          :  -> wf. convergence          0.1000000E-03 e    :
          :  Broyden damping             0.4000000          :
          :  net charge                          0          :
          :  unpaired electrons                  0          :
          ...................................................

 iter      E             dE          RMSdq      gap      omega  full diag
   1   -388.0798214 -0.388080E+03  0.247E-05    0.03       0.0  T
   2   -388.0798213  0.147007E-06  0.573E-04    0.03      12.2  T
   3   -388.0798214 -0.146845E-06  0.338E-05    0.03     206.5  T

   *** convergence criteria satisfied after 3 iterations ***

         #    Occupation            Energy/Eh            Energy/eV
      -------------------------------------------------------------
         1        2.0000           -0.6648620             -18.0918
       ...           ...                  ...                  ...
       350        2.0000           -0.3726089             -10.1392
       351        2.0000           -0.3701276             -10.0717
       352        2.0000           -0.3603610              -9.8059
       353        2.0000           -0.3574762              -9.7274
       354        2.0000           -0.3546396              -9.6502
       355        2.0000           -0.3366882              -9.1618
       356        1.2898           -0.3190467              -8.6817 (HOMO)
       357        0.7087           -0.3179098              -8.6508 (LUMO)
       358        0.0015           -0.3116236              -8.4797
       359                         -0.2977778              -8.1029
       360                         -0.2943543              -8.0098
       361                         -0.2857610              -7.7760
       ...                                ...                  ...
       715                          0.7937728              21.5997
      -------------------------------------------------------------
                  HL-Gap            0.0011369 Eh            0.0309 eV
             Fermi-level           -0.3184798 Eh           -8.6663 eV

 SCC (total)                   0 d,  0 h,  0 min,  0.535 sec
 SCC setup                      ...        0 min,  0.002 sec (  0.374%)
 Dispersion                     ...        0 min,  0.018 sec (  3.365%)
 classical contributions        ...        0 min,  0.000 sec (  0.000%)
 integral evaluation            ...        0 min,  0.044 sec (  8.224%)
 iterations                     ...        0 min,  0.325 sec ( 60.748%)
 molecular gradient             ...        0 min,  0.136 sec ( 25.421%)
 printout                       ...        0 min,  0.010 sec (  1.869%)

         :::::::::::::::::::::::::::::::::::::::::::::::::::::
         ::                     SUMMARY                     ::
         :::::::::::::::::::::::::::::::::::::::::::::::::::::
         :: total energy            -380.573826019582 Eh    ::
         :: gradient norm              0.000299881365 Eh/a0 ::
         :: HOMO-LUMO gap              0.030937515614 eV    ::
         ::.................................................::
         :: SCC energy              -388.096680075047 Eh    ::
         :: -> isotropic ES            0.056962384041 Eh    ::
         :: -> anisotropic ES          0.022534357278 Eh    ::
         :: -> anisotropic XC          0.125663316476 Eh    ::
         :: -> dispersion             -0.494327206940 Eh    ::
         :: repulsion energy           7.522854055465 Eh    ::
         :: add. restraining           0.000000000000 Eh    ::
         :: total charge              -0.000000000000 e     ::
         :::::::::::::::::::::::::::::::::::::::::::::::::::::

           -------------------------------------------------
          |                Property Printout                |
           -------------------------------------------------

    * Orbital Energies and Occupations

         #    Occupation            Energy/Eh            Energy/eV
      -------------------------------------------------------------
         1        2.0000           -0.6648620             -18.0918
       ...           ...                  ...                  ...
       344        2.0000           -0.3809453             -10.3660
       345        2.0000           -0.3794776             -10.3261
       346        2.0000           -0.3786675             -10.3041
       347        2.0000           -0.3783159             -10.2945
       348        2.0000           -0.3746422             -10.1945
       349        2.0000           -0.3740762             -10.1791
       350        2.0000           -0.3726089             -10.1392
       351        2.0000           -0.3701276             -10.0717
       352        2.0000           -0.3603610              -9.8059
       353        2.0000           -0.3574762              -9.7274
       354        2.0000           -0.3546396              -9.6502
       355        2.0000           -0.3366882              -9.1618
       356        1.2898           -0.3190467              -8.6817 (HOMO)
       357        0.7087           -0.3179098              -8.6508 (LUMO)
       358        0.0015           -0.3116236              -8.4797
       359                         -0.2977778              -8.1029
       360                         -0.2943543              -8.0098
       361                         -0.2857610              -7.7760
       362                         -0.2831945              -7.7061
       363                         -0.2830437              -7.7020
       364                         -0.2773262              -7.5464
       365                         -0.2663589              -7.2480
       366                         -0.2638846              -7.1807
       367                         -0.2609403              -7.1005
       ...                                ...                  ...
       715                          0.7937728              21.5997
      -------------------------------------------------------------
                  HL-Gap            0.0011369 Eh            0.0309 eV
             Fermi-level           -0.3184798 Eh           -8.6663 eV

     #   Z          covCN         q      C6AA      α(0)
     1   6 C        2.923    -0.025    28.634     8.775
     2   6 C        2.911    -0.033    28.811     8.802
     3   6 C        2.926    -0.029    28.737     8.791
     4   6 C        2.980     0.005    27.910     8.666
     5   5 B        2.758     0.213    18.131     7.124
     6   6 C        2.891    -0.072    29.794     8.949
     7   6 C        2.981     0.006    27.878     8.661
     8   6 C        2.975    -0.004    28.118     8.698
     9   6 C        2.923    -0.027    28.682     8.783
    10   6 C        2.886    -0.071    29.755     8.943
    11   6 C        2.981     0.001    28.008     8.681
    12   6 C        2.986    -0.000    28.022     8.683
    13   6 C        2.927    -0.045    29.125     8.850
    14   6 C        2.978     0.010    27.786     8.647
    15   6 C        2.994     0.001    27.986     8.678
    16   6 C        2.989    -0.000    28.023     8.684
    17   6 C        2.917    -0.039    28.977     8.827
    18   6 C        2.980     0.011    27.757     8.642
    19   6 C        2.992     0.003    27.956     8.673
    20   6 C        2.984     0.005    27.911     8.666
    21   5 B        1.903     0.256    36.157    12.658
    22   6 C        2.889    -0.073    29.818     8.953
    23   6 C        3.013     0.001    27.994     8.679
    24   6 C        2.970    -0.020    28.499     8.757
    25   6 C        2.916    -0.040    28.994     8.830
    26   6 C        2.889    -0.073    29.813     8.952
    27   6 C        3.014     0.001    27.996     8.679
    28   6 C        2.982     0.005    27.913     8.666
    29   6 C        2.923    -0.040    29.006     8.832
    30   6 C        2.983     0.013    27.721     8.637
    31   6 C        2.993     0.004    27.936     8.670
    32   6 C        2.978     0.006    27.875     8.661
    33   6 C        2.912    -0.029    28.728     8.789
    34   6 C        2.923    -0.039    28.959     8.825
    35   6 C        2.982     0.004    27.929     8.669
    36   6 C        2.920    -0.038    28.945     8.823
    37   6 C        2.920    -0.037    28.928     8.820
    38   6 C        2.982     0.004    27.927     8.669
    39   6 C        2.983     0.001    27.988     8.678
    40   6 C        2.989     0.000    28.012     8.682
    41   6 C        2.990     0.001    28.004     8.681
    42   6 C        2.987    -0.000    28.029     8.684
    43   6 C        2.989    -0.001    28.046     8.687
    44   6 C        2.986    -0.001    28.051     8.688
    45   6 C        2.987    -0.001    28.049     8.688
    46   6 C        2.989    -0.001    28.050     8.688
    47   6 C        2.991    -0.002    28.077     8.692
    48   6 C        2.989    -0.000    28.029     8.685
    49   6 C        2.990    -0.001    28.034     8.685
    50   6 C        2.989    -0.000    28.029     8.684
    51   6 C        2.988    -0.002    28.076     8.692
    52   6 C        2.988    -0.001    28.043     8.687
    53   6 C        2.991    -0.000    28.028     8.684
    54   6 C        2.989     0.000    28.013     8.682
    55   6 C        2.984     0.001    27.998     8.680
    56   6 C        2.985    -0.002    28.059     8.689
    57   6 C        2.988    -0.001    28.052     8.688
    58   6 C        2.989    -0.001    28.054     8.688
    59   6 C        2.986    -0.003    28.086     8.693
    60   6 C        2.984    -0.001    28.054     8.688
    61   6 C        2.987    -0.001    28.054     8.688
    62   6 C        2.987    -0.000    28.022     8.683
    63   6 C        2.981     0.002    27.971     8.675
    64   6 C        2.989     0.001    27.993     8.679
    65   6 C        2.992     0.001    27.992     8.679
    66   6 C        2.982     0.005    27.905     8.665
    67   6 C        2.920    -0.037    28.924     8.819
    68   6 C        2.920    -0.038    28.942     8.822
    69   6 C        2.982     0.004    27.930     8.669
    70   6 C        2.919    -0.037    28.924     8.819
    71   6 C        2.919    -0.037    28.925     8.820
    72   6 C        2.981     0.005    27.912     8.666
    73   6 C        2.987    -0.001    28.038     8.686
    74   6 C        2.991     0.001    28.001     8.680
    75   6 C        2.991     0.001    27.997     8.680
    76   6 C        2.987    -0.000    28.026     8.684
    77   6 C        2.989    -0.001    28.039     8.686
    78   6 C        2.989    -0.000    28.026     8.684
    79   6 C        2.988    -0.001    28.049     8.688
    80   6 C        2.990    -0.001    28.043     8.687
    81   6 C        2.990    -0.001    28.047     8.687
    82   6 C        2.990     0.000    28.019     8.683
    83   6 C        2.990    -0.001    28.041     8.686
    84   6 C        2.990     0.000    28.018     8.683
    85   6 C        2.990    -0.001    28.044     8.687
    86   6 C        2.990    -0.001    28.041     8.686
    87   6 C        2.990    -0.001    28.036     8.686
    88   6 C        2.990     0.000    28.013     8.682
    89   6 C        2.990    -0.001    28.034     8.685
    90   6 C        2.990    -0.000    28.021     8.683
    91   6 C        2.990    -0.001    28.049     8.688
    92   6 C        2.990    -0.001    28.047     8.687
    93   6 C        2.988    -0.001    28.051     8.688
    94   6 C        2.989     0.000    28.016     8.683
    95   6 C        2.989    -0.001    28.050     8.688
    96   6 C        2.988    -0.000    28.030     8.685
    97   6 C        2.982     0.003    27.940     8.671
    98   6 C        2.992     0.001    27.997     8.680
    99   6 C        2.992     0.001    27.995     8.679
   100   6 C        2.982     0.005    27.909     8.666
   101   6 C        2.919    -0.037    28.921     8.819
   102   6 C        2.919    -0.037    28.932     8.821
   103   6 C        2.981     0.004    27.934     8.670
   104   6 C        2.919    -0.037    28.929     8.820
   105   6 C        2.919    -0.037    28.919     8.819
   106   6 C        2.979     0.005    27.914     8.667
   107   6 C        2.987    -0.001    28.040     8.686
   108   6 C        2.990     0.001    28.005     8.681
   109   6 C        2.989     0.001    27.994     8.679
   110   6 C        2.987    -0.001    28.042     8.686
   111   6 C        2.989    -0.001    28.042     8.687
   112   6 C        2.989     0.000    28.018     8.683
   113   6 C        2.988    -0.001    28.049     8.688
   114   6 C        2.990    -0.002    28.074     8.691
   115   6 C        2.989    -0.001    28.049     8.688
   116   6 C        2.990     0.000    28.018     8.683
   117   6 C        2.989    -0.001    28.044     8.687
   118   6 C        2.990    -0.001    28.037     8.686
   119   6 C        2.989    -0.001    28.049     8.688
   120   6 C        2.990    -0.001    28.047     8.687
   121   6 C        2.988    -0.001    28.047     8.687
   122   6 C        2.988    -0.000    28.026     8.684
   123   6 C        2.989    -0.001    28.043     8.687
   124   6 C        2.988    -0.000    28.027     8.684
   125   6 C        2.986    -0.002    28.061     8.689
   126   6 C        2.984    -0.000    28.028     8.684
   127   6 C        2.987    -0.001    28.052     8.688
   128   6 C        2.987     0.000    28.020     8.683
   129   6 C        2.985    -0.002    28.059     8.689
   130   6 C        2.985    -0.001    28.044     8.687
   131   6 C        2.982     0.004    27.931     8.669
   132   6 C        2.991     0.001    28.003     8.681
   133   6 C        2.989     0.001    27.998     8.680
   134   6 C        2.981     0.004    27.932     8.669
   135   6 C        2.920    -0.037    28.931     8.820
   136   6 C        2.920    -0.038    28.934     8.821
   137   6 C        2.976     0.006    27.894     8.663
   138   6 C        2.922    -0.039    28.958     8.825
   139   6 C        2.912    -0.030    28.757     8.793
   140   6 C        2.922    -0.038    28.953     8.824
   141   6 C        2.986     0.000    28.013     8.682
   142   6 C        2.994     0.000    28.013     8.682
   143   6 C        2.979     0.012    27.741     8.640
   144   6 C        2.925    -0.049    29.215     8.864
   145   6 C        2.989     0.000    28.016     8.682
   146   6 C        2.993     0.001    27.988     8.678
   147   6 C        2.974     0.011    27.762     8.643
   148   6 C        2.925    -0.050    29.247     8.869
   149   6 C        2.989    -0.000    28.027     8.684
   150   6 C        2.994     0.001    27.985     8.678
   151   6 C        2.976     0.011    27.765     8.643
   152   6 C        2.925    -0.044    29.104     8.847
   153   6 C        2.985     0.000    28.015     8.682
   154   6 C        2.994     0.000    28.014     8.682
   155   6 C        2.977     0.009    27.813     8.651
   156   6 C        2.924    -0.027    28.686     8.783
   157   6 C        2.976    -0.004    28.122     8.699
   158   6 C        2.980     0.002    27.981     8.677
   159   6 C        2.887    -0.073    29.809     8.951
   160   5 B        2.759     0.214    18.115     7.121
   161   6 C        2.984    -0.000    28.028     8.684
   162   6 C        2.980     0.003    27.955     8.673
   163   6 C        2.887    -0.072    29.790     8.948
   164   6 C        2.923    -0.028    28.702     8.786
   165   6 C        2.978     0.006    27.894     8.663
   166   6 C        2.995     0.005    27.904     8.665
   167   6 C        2.983     0.010    27.791     8.647
   168   6 C        2.923    -0.034    28.858     8.810
   169   6 C        2.923    -0.034    28.853     8.809
   170   6 C        2.913    -0.031    28.767     8.795
   171   1 H        0.926     0.032     2.561     2.502
   172   1 H        0.926     0.027     2.631     2.536
   173   1 H        0.926     0.033     2.548     2.496
   174   1 H        0.939    -0.106     5.756     3.751
   175   1 H        0.926     0.034     2.526     2.486
   176   1 H        0.926     0.031     2.568     2.506
   177   1 H        0.926     0.027     2.624     2.533
   178   1 H        0.926     0.027     2.631     2.537
   179   1 H        0.926     0.029     2.600     2.522
   180   1 H        0.926     0.032     2.551     2.498
   181   1 H        0.926     0.033     2.548     2.496
   182   1 H        0.926     0.033     2.550     2.497
   183   1 H        0.926     0.033     2.546     2.495
   184   1 H        0.926     0.032     2.555     2.499
   185   1 H        0.926     0.033     2.549     2.497
   186   1 H        0.926     0.030     2.583     2.513
   187   1 H        0.926     0.027     2.623     2.533
   188   1 H        0.926     0.029     2.596     2.520
   189   1 H        0.926     0.029     2.599     2.521
   190   1 H        0.926     0.029     2.602     2.522
   191   1 H        0.926     0.031     2.565     2.505
   192   1 H        0.926     0.034     2.532     2.488
   193   1 H        0.939    -0.106     5.759     3.752
   194   1 H        0.926     0.034     2.524     2.485
   195   1 H        0.926     0.033     2.546     2.495
   196   1 H        0.926     0.030     2.587     2.515
   197   1 H        0.926     0.030     2.593     2.518
   198   1 H        0.926     0.033     2.540     2.492
   199   1 H        0.926     0.033     2.539     2.492
   200   1 H        0.926     0.034     2.535     2.490
   201   1 H        0.926     0.033     2.547     2.496
   202   1 H        0.926     0.033     2.543     2.494
   203   1 H        0.926     0.033     2.550     2.497
   204   1 H        0.926     0.032     2.555     2.500
   205   1 H        0.926     0.034     2.536     2.490

 Mol. C6AA /au·bohr⁶  :     920531.706728
 Mol. C8AA /au·bohr⁸  :   25641537.532577
 Mol. α(0) /au        :       1572.713613


Wiberg/Mayer (AO) data.
largest (>0.10) Wiberg bond orders for each atom

 ---------------------------------------------------------------------------
     #   Z sym  total        # sym  WBO       # sym  WBO       # sym  WBO
 ---------------------------------------------------------------------------
     1   6 C    3.970 --     6 C    1.414     2 C    1.405   171 H    0.970
     2   6 C    3.978 --     3 C    1.474     1 C    1.405   172 H    0.970
     3   6 C    3.973 --     2 C    1.474     4 C    1.339   173 H    0.961
     4   6 C    3.975 --     3 C    1.339     7 C    1.299    35 C    1.144
     5   5 B    3.352 --     6 C    1.076    10 C    1.060   174 H    0.970
     6   6 C    3.952 --     1 C    1.414     7 C    1.284     5 B    1.076
     7   6 C    3.976 --     4 C    1.299     6 C    1.284     8 C    1.170
     8   6 C    3.949 --    39 C    1.286    11 C    1.278     7 C    1.170
     9   6 C    3.941 --    10 C    1.533    14 C    1.232   175 H    0.966
    10   6 C    3.940 --     9 C    1.533    11 C    1.190     5 B    1.060
    11   6 C    3.940 --     8 C    1.278    12 C    1.263    10 C    1.190
    12   6 C    3.972 --    11 C    1.263    15 C    1.260    43 C    1.233
    13   6 C    3.853 --    14 C    1.385    18 C    1.306   176 H    0.966
    14   6 C    3.978 --    13 C    1.385     9 C    1.232    15 C    1.204
    15   6 C    3.939 --    12 C    1.260    16 C    1.259    14 C    1.204
    16   6 C    3.976 --    19 C    1.281    15 C    1.259    47 C    1.217
    17   6 C    3.801 --    22 C    1.367    18 C    1.320   177 H    0.968
    18   6 C    3.979 --    17 C    1.320    13 C    1.306    19 C    1.195
    19   6 C    3.937 --    16 C    1.281    20 C    1.244    18 C    1.195
    20   6 C    3.973 --    23 C    1.289    19 C    1.244    51 C    1.216
    21   5 B    2.997 --    22 C    1.340    26 C    1.338
    22   6 C    3.965 --    17 C    1.367    21 B    1.340    23 C    1.107
    23   6 C    3.925 --    20 C    1.289    24 C    1.254    22 C    1.107
    24   6 C    3.959 --    23 C    1.254    27 C    1.254    55 C    1.241
    25   6 C    3.803 --    26 C    1.372    30 C    1.316   178 H    0.968
    26   6 C    3.971 --    25 C    1.372    21 B    1.338    27 C    1.105
    27   6 C    3.940 --    28 C    1.296    24 C    1.254    26 C    1.105
    28   6 C    3.973 --    27 C    1.296    31 C    1.230    59 C    1.221
    29   6 C    3.897 --    33 C    1.494    30 C    1.279   179 H    0.969
    30   6 C    3.985 --    25 C    1.316    29 C    1.279    31 C    1.223
    31   6 C    3.948 --    32 C    1.276    28 C    1.230    30 C    1.223
    32   6 C    3.979 --    34 C    1.375    31 C    1.276    63 C    1.138
    33   6 C    3.983 --    29 C    1.494    34 C    1.396   197 H    0.970
    34   6 C    3.892 --    33 C    1.396    32 C    1.375   198 H    0.962
    35   6 C    3.960 --    36 C    1.322    40 C    1.294     4 C    1.144
    36   6 C    3.964 --    37 C    1.512    35 C    1.322   180 H    0.960
    37   6 C    3.960 --    36 C    1.512    38 C    1.318   181 H    0.960
    38   6 C    3.961 --    37 C    1.318    41 C    1.286    69 C    1.159
    39   6 C    3.963 --     8 C    1.286    44 C    1.248    40 C    1.208
    40   6 C    3.981 --    35 C    1.294    41 C    1.252    39 C    1.208
    41   6 C    3.978 --    38 C    1.286    40 C    1.252    42 C    1.215
    42   6 C    3.957 --    45 C    1.268    73 C    1.259    41 C    1.215
    43   6 C    3.963 --    44 C    1.278    12 C    1.233    48 C    1.231
    44   6 C    3.967 --    43 C    1.278    39 C    1.248    45 C    1.218
    45   6 C    3.957 --    42 C    1.268    46 C    1.256    44 C    1.218
    46   6 C    3.964 --    45 C    1.256    77 C    1.248    49 C    1.242
    47   6 C    3.953 --    48 C    1.271    52 C    1.253    16 C    1.217
    48   6 C    3.964 --    47 C    1.271    49 C    1.243    43 C    1.231
    49   6 C    3.956 --    50 C    1.259    48 C    1.243    46 C    1.242
    50   6 C    3.960 --    49 C    1.259    53 C    1.254    81 C    1.231
    51   6 C    3.953 --    56 C    1.270    52 C    1.249    20 C    1.216
    52   6 C    3.964 --    47 C    1.253    51 C    1.249    53 C    1.245
    53   6 C    3.957 --    50 C    1.254    54 C    1.245    52 C    1.245
    54   6 C    3.961 --    57 C    1.268    53 C    1.245    85 C    1.232
    55   6 C    3.953 --    60 C    1.249    56 C    1.247    24 C    1.241
    56   6 C    3.965 --    51 C    1.270    55 C    1.247    57 C    1.229
    57   6 C    3.952 --    54 C    1.268    58 C    1.243    56 C    1.229
    58   6 C    3.962 --    61 C    1.256    89 C    1.247    57 C    1.243
    59   6 C    3.940 --    60 C    1.286    28 C    1.221    64 C    1.220
    60   6 C    3.968 --    59 C    1.286    55 C    1.249    61 C    1.213
    61   6 C    3.957 --    62 C    1.273    58 C    1.256    60 C    1.213
    62   6 C    3.962 --    61 C    1.273    93 C    1.247    65 C    1.223
    63   6 C    3.949 --    67 C    1.338    64 C    1.283    32 C    1.138
    64   6 C    3.979 --    63 C    1.283    65 C    1.251    59 C    1.220
    65   6 C    3.976 --    66 C    1.279    64 C    1.251    62 C    1.223
    66   6 C    3.964 --    68 C    1.330    65 C    1.279    97 C    1.155
    67   6 C    3.969 --    68 C    1.496    63 C    1.338   199 H    0.960
    68   6 C    3.954 --    67 C    1.496    66 C    1.330   200 H    0.960
    69   6 C    3.958 --    70 C    1.318    74 C    1.285    38 C    1.159
    70   6 C    3.959 --    71 C    1.514    69 C    1.318   182 H    0.960
    71   6 C    3.961 --    70 C    1.514    72 C    1.319   183 H    0.960
    72   6 C    3.956 --    71 C    1.319    75 C    1.285   103 C    1.157
    73   6 C    3.958 --    78 C    1.265    42 C    1.259    74 C    1.218
    74   6 C    3.978 --    69 C    1.285    75 C    1.250    73 C    1.218
    75   6 C    3.978 --    72 C    1.285    74 C    1.250    76 C    1.218
    76   6 C    3.955 --    79 C    1.270   107 C    1.253    75 C    1.218
    77   6 C    3.962 --    78 C    1.261    46 C    1.248    82 C    1.237
    78   6 C    3.959 --    73 C    1.265    77 C    1.261    79 C    1.219
    79   6 C    3.960 --    76 C    1.270    80 C    1.256    78 C    1.219
    80   6 C    3.961 --    79 C    1.256   111 C    1.249    83 C    1.241
    81   6 C    3.957 --    82 C    1.265    86 C    1.248    50 C    1.231
    82   6 C    3.957 --    81 C    1.265    83 C    1.242    77 C    1.237
    83   6 C    3.958 --    84 C    1.262    82 C    1.242    80 C    1.241
    84   6 C    3.957 --    83 C    1.262    87 C    1.251   115 C    1.232
    85   6 C    3.958 --    90 C    1.265    86 C    1.248    54 C    1.232
    86   6 C    3.960 --    87 C    1.249    81 C    1.248    85 C    1.248
    87   6 C    3.959 --    84 C    1.251    86 C    1.249    88 C    1.246
    88   6 C    3.957 --    91 C    1.267    87 C    1.246   119 C    1.231
    89   6 C    3.961 --    94 C    1.255    58 C    1.247    90 C    1.243
    90   6 C    3.957 --    85 C    1.265    89 C    1.243    91 C    1.236
    91   6 C    3.957 --    88 C    1.267    92 C    1.240    90 C    1.236
    92   6 C    3.961 --    95 C    1.255   123 C    1.249    91 C    1.240
    93   6 C    3.956 --    94 C    1.274    62 C    1.247    98 C    1.220
    94   6 C    3.961 --    93 C    1.274    89 C    1.255    95 C    1.216
    95   6 C    3.960 --    96 C    1.274    92 C    1.255    94 C    1.216
    96   6 C    3.956 --    95 C    1.274   127 C    1.248    99 C    1.219
    97   6 C    3.957 --   101 C    1.323    98 C    1.284    66 C    1.155
    98   6 C    3.978 --    97 C    1.284    99 C    1.250    93 C    1.220
    99   6 C    3.978 --   100 C    1.284    98 C    1.250    96 C    1.219
   100   6 C    3.957 --   102 C    1.323    99 C    1.284   131 C    1.155
   101   6 C    3.960 --   102 C    1.508    97 C    1.323   201 H    0.960
   102   6 C    3.960 --   101 C    1.508   100 C    1.323   202 H    0.960
   103   6 C    3.964 --   104 C    1.326   108 C    1.282    72 C    1.157
   104   6 C    3.952 --   105 C    1.499   103 C    1.326   184 H    0.960
   105   6 C    3.969 --   104 C    1.499   106 C    1.336   185 H    0.961
   106   6 C    3.947 --   105 C    1.336   109 C    1.283   137 C    1.138
   107   6 C    3.961 --   112 C    1.270    76 C    1.253   108 C    1.220
   108   6 C    3.976 --   103 C    1.282   109 C    1.250   107 C    1.220
   109   6 C    3.981 --   106 C    1.283   108 C    1.250   110 C    1.223
   110   6 C    3.937 --   113 C    1.279   141 C    1.230   109 C    1.223
   111   6 C    3.964 --   112 C    1.258    80 C    1.249   116 C    1.239
   112   6 C    3.958 --   107 C    1.270   111 C    1.258   113 C    1.215
   113   6 C    3.969 --   110 C    1.279   114 C    1.255   112 C    1.215
   114   6 C    3.949 --   113 C    1.255   117 C    1.247   145 C    1.236
   115   6 C    3.961 --   116 C    1.268   120 C    1.245    84 C    1.232
   116   6 C    3.953 --   115 C    1.268   111 C    1.239   117 C    1.235
   117   6 C    3.965 --   118 C    1.266   114 C    1.247   116 C    1.235
   118   6 C    3.950 --   117 C    1.266   121 C    1.254   149 C    1.220
   119   6 C    3.961 --   124 C    1.265   120 C    1.250    88 C    1.231
   120   6 C    3.956 --   119 C    1.250   121 C    1.248   115 C    1.245
   121   6 C    3.964 --   118 C    1.254   120 C    1.248   122 C    1.245
   122   6 C    3.956 --   125 C    1.277   121 C    1.245   153 C    1.219
   123   6 C    3.960 --   128 C    1.255    92 C    1.249   124 C    1.240
   124   6 C    3.952 --   119 C    1.265   123 C    1.240   125 C    1.235
   125   6 C    3.965 --   122 C    1.277   124 C    1.235   126 C    1.232
   126   6 C    3.961 --   157 C    1.271   129 C    1.241   125 C    1.232
   127   6 C    3.962 --   128 C    1.273    96 C    1.248   132 C    1.221
   128   6 C    3.958 --   127 C    1.273   123 C    1.255   129 C    1.214
   129   6 C    3.968 --   130 C    1.291   126 C    1.241   128 C    1.214
   130   6 C    3.948 --   129 C    1.291   161 C    1.227   133 C    1.217
   131   6 C    3.964 --   135 C    1.331   132 C    1.279   100 C    1.155
   132   6 C    3.977 --   131 C    1.279   133 C    1.253   127 C    1.221
   133   6 C    3.980 --   134 C    1.285   132 C    1.253   130 C    1.217
   134   6 C    3.951 --   136 C    1.338   133 C    1.285   165 C    1.137
   135   6 C    3.955 --   136 C    1.495   131 C    1.331   203 H    0.961
   136   6 C    3.969 --   135 C    1.495   134 C    1.338   204 H    0.960
   137   6 C    3.979 --   138 C    1.376   142 C    1.274   106 C    1.138
   138   6 C    3.886 --   139 C    1.392   137 C    1.376   186 H    0.962
   139   6 C    3.983 --   140 C    1.498   138 C    1.392   187 H    0.970
   140   6 C    3.891 --   139 C    1.498   143 C    1.275   188 H    0.969
   141   6 C    3.974 --   146 C    1.287   142 C    1.239   110 C    1.230
   142   6 C    3.945 --   137 C    1.274   141 C    1.239   143 C    1.217
   143   6 C    3.985 --   144 C    1.331   140 C    1.275   142 C    1.217
   144   6 C    3.783 --   147 C    1.333   143 C    1.331   189 H    0.967
   145   6 C    3.974 --   146 C    1.266   150 C    1.256   114 C    1.236
   146   6 C    3.950 --   141 C    1.287   145 C    1.266   147 C    1.176
   147   6 C    3.985 --   144 C    1.333   148 C    1.320   146 C    1.176
   148   6 C    3.764 --   151 C    1.334   147 C    1.320   190 H    0.967
   149   6 C    3.975 --   150 C    1.284   154 C    1.255   118 C    1.220
   150   6 C    3.940 --   149 C    1.284   145 C    1.256   151 C    1.183
   151   6 C    3.980 --   148 C    1.334   152 C    1.310   150 C    1.183
   152   6 C    3.826 --   155 C    1.369   151 C    1.310   191 H    0.966
   153   6 C    3.971 --   158 C    1.278   154 C    1.261   122 C    1.219
   154   6 C    3.934 --   153 C    1.261   149 C    1.255   155 C    1.205
   155   6 C    3.978 --   152 C    1.369   156 C    1.248   154 C    1.205
   156   6 C    3.926 --   159 C    1.507   155 C    1.248   192 H    0.966
   157   6 C    3.949 --   126 C    1.271   158 C    1.236   162 C    1.230
   158   6 C    3.918 --   153 C    1.278   157 C    1.236   159 C    1.207
   159   6 C    3.943 --   156 C    1.507   158 C    1.207   160 B    1.071
   160   5 B    3.345 --   159 C    1.071   163 C    1.064   193 H    0.970
   161   6 C    3.975 --   162 C    1.296   166 C    1.231   130 C    1.227
   162   6 C    3.943 --   161 C    1.296   157 C    1.230   163 C    1.206
   163   6 C    3.953 --   164 C    1.512   162 C    1.206   160 B    1.064
   164   6 C    3.947 --   163 C    1.512   167 C    1.255   194 H    0.966
   165   6 C    3.982 --   169 C    1.387   166 C    1.265   134 C    1.137
   166   6 C    3.981 --   165 C    1.265   167 C    1.249   161 C    1.231
   167   6 C    3.985 --   168 C    1.311   164 C    1.255   166 C    1.249
   168   6 C    3.942 --   170 C    1.480   167 C    1.311   195 H    0.968
   169   6 C    3.938 --   170 C    1.406   165 C    1.387   205 H    0.961
   170   6 C    3.983 --   168 C    1.480   169 C    1.406   196 H    0.970
   171   1 H    0.998 --     1 C    0.970
   172   1 H    0.998 --     2 C    0.970
   173   1 H    0.998 --     3 C    0.961
   174   1 H    0.988 --     5 B    0.970
   175   1 H    0.997 --     9 C    0.966
   176   1 H    0.998 --    13 C    0.966
   177   1 H    0.998 --    17 C    0.968
   178   1 H    0.998 --    25 C    0.968
   179   1 H    0.998 --    29 C    0.969
   180   1 H    0.998 --    36 C    0.960
   181   1 H    0.998 --    37 C    0.960
   182   1 H    0.998 --    70 C    0.960
   183   1 H    0.998 --    71 C    0.960
   184   1 H    0.998 --   104 C    0.960
   185   1 H    0.998 --   105 C    0.961
   186   1 H    0.999 --   138 C    0.962
   187   1 H    0.998 --   139 C    0.970
   188   1 H    0.998 --   140 C    0.969
   189   1 H    0.998 --   144 C    0.967
   190   1 H    0.998 --   148 C    0.967
   191   1 H    0.998 --   152 C    0.966
   192   1 H    0.997 --   156 C    0.966
   193   1 H    0.988 --   160 B    0.970
   194   1 H    0.997 --   164 C    0.966
   195   1 H    0.998 --   168 C    0.968
   196   1 H    0.998 --   170 C    0.970
   197   1 H    0.998 --    33 C    0.970
   198   1 H    0.998 --    34 C    0.962
   199   1 H    0.998 --    67 C    0.960
   200   1 H    0.998 --    68 C    0.960
   201   1 H    0.998 --   101 C    0.960
   202   1 H    0.998 --   102 C    0.960
   203   1 H    0.998 --   135 C    0.961
   204   1 H    0.998 --   136 C    0.960
   205   1 H    0.998 --   169 C    0.961
 ---------------------------------------------------------------------------

Topologies differ in total number of bonds
Writing topology from bond orders to xtbtopo.mol

molecular dipole:
                 x           y           z       tot (Debye)
 q only:       -1.989       1.158      -0.053
   full:       -2.209       1.198      -0.080       6.391
molecular quadrupole (traceless):
                xx          xy          yy          xz          yz          zz
 q only:       24.895     -13.277      12.861       5.449       0.446     -37.756
  q+dip:       55.591     -21.105      65.369       6.909       1.620    -120.959
   full:       25.130     -20.952      30.784       8.001       1.184     -55.914


           -------------------------------------------------
          | TOTAL ENERGY             -380.573826019582 Eh   |
          | GRADIENT NORM               0.000299881365 Eh/α |
          | HOMO-LUMO GAP               0.030937515614 eV   |
           -------------------------------------------------

------------------------------------------------------------------------
 * finished run on 2025/12/08 at 00:42:44.938     
------------------------------------------------------------------------
 total:
 * wall-time:     0 d,  0 h,  0 min,  0.637 sec
 *  cpu-time:     0 d,  0 h,  0 min,  8.906 sec
 * ratio c/w:    13.982 speedup
 SCF:
 * wall-time:     0 d,  0 h,  0 min,  0.538 sec
 *  cpu-time:     0 d,  0 h,  0 min,  7.641 sec
 * ratio c/w:    14.202 speedup

normal termination of xtb
