      -----------------------------------------------------------      
     |                   =====================                   |     
     |                           x T B                           |     
     |                   =====================                   |     
     |                         S. Grimme                         |     
     |          Mulliken Center for Theoretical Chemistry        |     
     |                    University of Bonn                     |     
      -----------------------------------------------------------      

   * xtb version 6.7.1pre (5071a88) compiled by 'Marcel@Raven' on 2024-07-23

   xtb is free software: you can redistribute it and/or modify it under
   the terms of the GNU Lesser General Public License as published by
   the Free Software Foundation, either version 3 of the License, or
   (at your option) any later version.
   
   xtb is distributed in the hope that it will be useful,
   but WITHOUT ANY WARRANTY; without even the implied warranty of
   MERCHANTABILITY or FITNESS FOR A PARTICULAR PURPOSE.  See the
   GNU Lesser General Public License for more details.
   
   Cite this work as:
   * C. Bannwarth, E. Caldeweyher, S. Ehlert, A. Hansen, P. Pracht,
     J. Seibert, S. Spicher, S. Grimme, WIREs Comput. Mol. Sci., 2020, 11,
     e01493. DOI: 10.1002/wcms.1493
   
   for GFN2-xTB:
   * C. Bannwarth, S. Ehlert and S. Grimme., J. Chem. Theory Comput., 2019,
     15, 1652-1671. DOI: 10.1021/acs.jctc.8b01176
   for GFN1-xTB:
   * S. Grimme, C. Bannwarth, P. Shushkov, J. Chem. Theory Comput., 2017,
     13, 1989-2009. DOI: 10.1021/acs.jctc.7b00118
   for GFN0-xTB:
   * P. Pracht, E. Caldeweyher, S. Ehlert, S. Grimme, ChemRxiv, 2019, preprint.
     DOI: 10.26434/chemrxiv.8326202.v1
   for GFN-FF:
   * S. Spicher and S. Grimme, Angew. Chem. Int. Ed., 2020, 59, 15665-15673.
     DOI: 10.1002/anie.202004239
   
   for ALPB and GBSA implicit solvation:
   * S. Ehlert, M. Stahn, S. Spicher, S. Grimme, J. Chem. Theory Comput.,
     2021, 17, 4250-4261. DOI: 10.1021/acs.jctc.1c00471
   
   for ddCOSMO and CPCM-X implicit solvation:
   * M. Stahn, S. Ehlert, S. Grimme, J. Phys. Chem. A,
     2023, XX, XXXX-XXXX. DOI: 10.1021/acs.jpca.3c04382
   
   for DFT-D4:
   * E. Caldeweyher, C. Bannwarth and S. Grimme, J. Chem. Phys., 2017,
     147, 034112. DOI: 10.1063/1.4993215
   * E. Caldeweyher, S. Ehlert, A. Hansen, H. Neugebauer, S. Spicher,
     C. Bannwarth and S. Grimme, J. Chem. Phys., 2019, 150, 154122.
     DOI: 10.1063/1.5090222
   * E. Caldeweyher, J.-M. Mewes, S. Ehlert and S. Grimme, Phys. Chem. Chem. Phys.
     2020, 22, 8499-8512. DOI: 10.1039/D0CP00502A
   
   for sTDA-xTB:
   * S. Grimme and C. Bannwarth, J. Chem. Phys., 2016, 145, 054103.
     DOI: 10.1063/1.4959605
   
   in the mass-spec context:
   * V. Asgeirsson, C. Bauer and S. Grimme, Chem. Sci., 2017, 8, 4879.
     DOI: 10.1039/c7sc00601b
   * J. Koopman and S. Grimme, ACS Omega 2019, 4, 12, 15120-15133.
     DOI: 10.1021/acsomega.9b02011
   
   for metadynamics refer to:
   * S. Grimme, J. Chem. Theory Comput., 2019, 155, 2847-2862
     DOI: 10.1021/acs.jctc.9b00143
   
   for SPH calculations refer to:
   * S. Spicher and S. Grimme, J. Chem. Theory Comput., 2021, 17, 1701-1714
     DOI: 10.1021/acs.jctc.0c01306
   
   for ONIOM refer to:
   * C. Plett, A. Katbashev, S. Ehlert, S. Grimme, M. Bursch,
     Phys. Chem. Chem. Phys., 2023, 25, 17860-17868. DOI: 10.1039/D3CP02178E
   
   for DIPRO refer to:
   * J. Kohn, N. Gildemeister, S. Grimme, D. Fazzi, A. Hansen,
     J. Chem. Phys., 2023, just accepted.
   
   for PTB refer to:
   * S. Grimme, M. Mueller, A. Hansen, J. Chem. Phys., 2023, 158, 124111.
     DOI: 10.1063/5.0137838
   
   with help from (in alphabetical order)
   P. Atkinson, C. Bannwarth, F. Bohle, G. Brandenburg, E. Caldeweyher
   M. Checinski, S. Dohm, S. Ehlert, S. Ehrlich, I. Gerasimov, C. Hölzer
   A. Katbashev, J. Kohn, J. Koopman, C. Lavigne, S. Lehtola, F. März, M. Müller,
   F. Musil, H. Neugebauer, J. Pisarek, C. Plett, P. Pracht, F. Pultar,
   J. Seibert, P. Shushkov, S. Spicher, M. Stahn, M. Steiner, T. Strunk,
   J. Stückrath, T. Rose, and J. Unsleber
   
 * started run on 2025/12/08 at 00:41:37.598     
   ID    Z sym.   atoms
    1    6 C      1-4, 6-20, 22-159, 161-170
    2    5 B      5, 21, 160
    3    1 H      171-205

           -------------------------------------------------
          |                Calculation Setup                |
           -------------------------------------------------

          program call               : xtb "C:\Users\LENOVO GAMING\Documents\GitHub\molecular-conductivity-sim\dataset\2nm-3Bdoped-1.5percent.xyz" --opt --parallel 4
          coordinate file            : C:\Users\LENOVO GAMING\Documents\GitHub\molecular-conductivity-sim\dataset\2nm-3Bdoped-1.5percent.xyz
          omp threads                :                     4


           -------------------------------------------------
          |                 G F N 2 - x T B                 |
           -------------------------------------------------

        Reference                      10.1021/acs.jctc.8b01176
      * Hamiltonian:
        H0-scaling (s, p, d)           1.850000    2.230000    2.230000
        zeta-weighting                 0.500000
      * Dispersion:
        s8                             2.700000
        a1                             0.520000
        a2                             5.000000
        s9                             5.000000
      * Repulsion:
        kExp                           1.500000    1.000000
        rExp                           1.000000
      * Coulomb:
        alpha                          2.000000
        third order                    shell-resolved
        anisotropic                    true
        a3                             3.000000
        a5                             4.000000
        cn-shift                       1.200000
        cn-exp                         4.000000
        max-rad                        5.000000


          ...................................................
          :                      SETUP                      :
          :.................................................:
          :  # basis functions                 715          :
          :  # atomic orbitals                 715          :
          :  # shells                          375          :
          :  # electrons                       712          :
          :  max. iterations                   250          :
          :  Hamiltonian                  GFN2-xTB          :
          :  restarted?                      false          :
          :  GBSA solvation                  false          :
          :  PC potential                    false          :
          :  electronic temp.          300.0000000     K    :
          :  accuracy                    1.0000000          :
          :  -> integral cutoff          0.2500000E+02      :
          :  -> integral neglect         0.1000000E-07      :
          :  -> SCF convergence          0.1000000E-05 Eh   :
          :  -> wf. convergence          0.1000000E-03 e    :
          :  Broyden damping             0.4000000          :
          :  net charge                          0          :
          :  unpaired electrons                  0          :
          ...................................................

 iter      E             dE          RMSdq      gap      omega  full diag
   1   -387.0150329 -0.387015E+03  0.559E+00    0.36       0.0  T
   2   -383.8746141  0.314042E+01  0.449E+00    0.10       1.0  T
   3   -325.7668092  0.581078E+02  0.559E+00    0.05       1.0  T
   4   -119.4325379  0.206334E+03  0.107E+01    0.01       1.0  T
   5   -326.6619101 -0.207229E+03  0.714E+00    0.02       1.0  T
   6   -381.6265260 -0.549646E+02  0.336E+00    0.06       1.0  T
   7   -377.2805187  0.434601E+01  0.308E+00    0.01       1.0  T
   8   -374.5541666  0.272635E+01  0.313E+00    0.04       1.0  T
   9   -386.3584241 -0.118043E+02  0.229E+00    0.32       1.0  T
  10   -386.7673278 -0.408904E+00  0.185E+00    0.16       1.0  T
  11   -386.8688149 -0.101487E+00  0.173E+00    0.28       1.0  T
  12   -387.0890657 -0.220251E+00  0.148E+00    0.10       1.0  T
  13   -387.3691138 -0.280048E+00  0.123E+00    0.20       1.0  T
  14   -387.4260569 -0.569432E-01  0.111E+00    0.13       1.0  T
  15   -387.4847189 -0.586620E-01  0.927E-01    0.09       1.0  T
  16   -387.5568271 -0.721082E-01  0.538E-01    0.06       1.0  T
  17   -387.4800315  0.767956E-01  0.517E-01    0.08       1.0  T
  18   -387.4878036 -0.777212E-02  0.730E-01    0.16       1.0  T
  19   -387.5434745 -0.556708E-01  0.606E-01    0.07       1.0  T
  20   -387.5635734 -0.200989E-01  0.429E-01    0.03       1.0  T
  21   -387.5182648  0.453085E-01  0.672E-01    0.11       1.0  T
  22   -387.5189843 -0.719448E-03  0.614E-01    0.12       1.0  T
  23   -387.5466177 -0.276334E-01  0.476E-01    0.09       1.0  T
  24   -387.5780441 -0.314264E-01  0.300E-01    0.06       1.0  T
  25   -387.5837559 -0.571175E-02  0.236E-01    0.05       1.0  T
  26   -387.5910684 -0.731256E-02  0.129E-01    0.04       1.0  T
  27   -387.5943717 -0.330325E-02  0.457E-02    0.04       1.0  T
  28   -387.5948153 -0.443597E-03  0.183E-02    0.03       1.0  T
  29   -387.5949088 -0.935115E-04  0.865E-03    0.03       1.0  T
  30   -387.5948744  0.344238E-04  0.178E-02    0.03       1.0  T
  31   -387.5948894 -0.149993E-04  0.130E-02    0.03       1.0  T
  32   -387.5949078 -0.184370E-04  0.726E-03    0.03       1.0  T
  33   -387.5949177 -0.983854E-05  0.196E-03    0.03       3.6  T
  34   -387.5949194 -0.172807E-05  0.210E-03    0.03       3.3  T
  35   -387.5949204 -0.984302E-06  0.127E-03    0.03       5.5  T
  36   -387.5949209 -0.570677E-06  0.945E-04    0.03       7.4  T
  37   -387.5949211 -0.158379E-06  0.165E-04    0.03      42.3  T

   *** convergence criteria satisfied after 37 iterations ***

         #    Occupation            Energy/Eh            Energy/eV
      -------------------------------------------------------------
         1        2.0000           -0.6618429             -18.0097
       ...           ...                  ...                  ...
       350        2.0000           -0.3720817             -10.1249
       351        2.0000           -0.3696557             -10.0588
       352        2.0000           -0.3601129              -9.7992
       353        2.0000           -0.3571227              -9.7178
       354        2.0000           -0.3545038              -9.6465
       355        2.0000           -0.3370343              -9.1712
       356        1.2960           -0.3193180              -8.6891 (HOMO)
       357        0.7025           -0.3181553              -8.6574 (LUMO)
       358        0.0014           -0.3118546              -8.4860
       359                         -0.2984119              -8.1202
       360                         -0.2948966              -8.0245
       361                         -0.2865984              -7.7987
       ...                                ...                  ...
       715                          0.7725706              21.0227
      -------------------------------------------------------------
                  HL-Gap            0.0011627 Eh            0.0316 eV
             Fermi-level           -0.3187381 Eh           -8.6733 eV

 SCC (total)                   0 d,  0 h,  0 min,  5.768 sec
 SCC setup                      ...        0 min,  0.002 sec (  0.035%)
 Dispersion                     ...        0 min,  0.013 sec (  0.225%)
 classical contributions        ...        0 min,  0.001 sec (  0.017%)
 integral evaluation            ...        0 min,  0.072 sec (  1.248%)
 iterations                     ...        0 min,  5.314 sec ( 92.129%)
 molecular gradient             ...        0 min,  0.352 sec (  6.103%)
 printout                       ...        0 min,  0.014 sec (  0.243%)

         :::::::::::::::::::::::::::::::::::::::::::::::::::::
         ::                     SUMMARY                     ::
         :::::::::::::::::::::::::::::::::::::::::::::::::::::
         :: total energy            -380.546515516425 Eh    ::
         :: gradient norm              0.060564119197 Eh/a0 ::
         :: HOMO-LUMO gap              0.031638750494 eV    ::
         ::.................................................::
         :: SCC energy              -387.611518720528 Eh    ::
         :: -> isotropic ES            0.055948679960 Eh    ::
         :: -> anisotropic ES          0.023106230690 Eh    ::
         :: -> anisotropic XC          0.135438384480 Eh    ::
         :: -> dispersion             -0.487658219374 Eh    ::
         :: repulsion energy           7.065003204103 Eh    ::
         :: add. restraining           0.000000000000 Eh    ::
         :: total charge              -0.000000002006 e     ::
         :::::::::::::::::::::::::::::::::::::::::::::::::::::

      ----------------------------------------------------------- 
     |                   =====================                   |
     |                        A N C O P T                        |
     |                   =====================                   |
     |               Approximate Normal Coordinate               |
     |                Rational Function Optimizer                |
      ----------------------------------------------------------- 
      ----------------------------------------------------------- 
     |                   =====================                   |
     |                        A N C O P T                        |
     |                   =====================                   |
     |               Approximate Normal Coordinate               |
     |                Rational Function Optimizer                |
      ----------------------------------------------------------- 

          ...................................................
          :                      SETUP                      :
          :.................................................:
          :   optimization level            normal          :
          :   max. optcycles                   615          :
          :   ANC micro-cycles                  20          :
          :   degrees of freedom               609          :
          :.................................................:
          :   RF solver                   davidson          :
          :   write xtbopt.log                true          :
          :   linear?                        false          :
          :   energy convergence         0.5000000E-05 Eh   :
          :   grad. convergence          0.1000000E-02 Eh/α :
          :   maxmium RF displ.          1.0000000          :
          :   Hlow (freq-cutoff)         0.1000000E-01      :
          :   Hmax (freq-cutoff)         5.0000000          :
          :   S6 in model hess.         20.0000000          :
          ...................................................

generating ANC from exact Hessian ...
Using Lindh-Hessian (1995)
 Shifting diagonal of input Hessian by   9.928840099500329E-003
 Lowest  eigenvalues of input Hessian
    0.000000    0.000000    0.000000    0.000000    0.000000    0.000000
    0.010000    0.010062    0.010077    0.010196    0.010213    0.010613
    0.010653    0.010707    0.010777    0.010966    0.011529    0.011636
 Highest eigenvalues
    2.104556    2.109869    2.113154    2.130704    2.135503    2.146806
 

........................................................................
.............................. CYCLE    1 ..............................
........................................................................

 iter      E             dE          RMSdq      gap      omega  full diag
   1   -387.5949211 -0.387595E+03  0.285E-04    0.03       0.0  T
   2   -387.5949059  0.151620E-04  0.583E-03    0.03       1.2  T
   3   -387.5949191 -0.131201E-04  0.214E-03    0.03       3.3  T
   4   -387.5949206 -0.157875E-05  0.106E-03    0.03       6.6  T
   5   -387.5949209 -0.290814E-06  0.665E-04    0.03      10.5  T
   6   -387.5949210 -0.107990E-06  0.440E-04    0.03      15.9  T
     SCC iter.                  ...        0 min,  0.857 sec
     gradient                   ...        0 min,  0.359 sec
 * total energy  :  -380.5465155 Eh     change        0.6423613E-07 Eh
   gradient norm :     0.0605639 Eh/α   predicted     0.0000000E+00 (-100.00%)
   displ. norm   :     0.5482169 α      lambda       -0.1964753E-01
   maximum displ.:     0.4596235 α      in ANC's #46, #82, #185, ...

........................................................................
.............................. CYCLE    2 ..............................
........................................................................

 iter      E             dE          RMSdq      gap      omega  full diag
   1   -387.7765726 -0.387777E+03  0.982E-02    0.03       0.0  T
   2   -387.6813310  0.952416E-01  0.467E-01    0.18       1.0  T
   3   -387.7684142 -0.870832E-01  0.148E-01    0.02       1.0  T
   4   -387.7720394 -0.362514E-02  0.109E-01    0.05       1.0  T
   5   -387.7756312 -0.359188E-02  0.566E-02    0.04       1.0  T
   6   -387.7766625 -0.103129E-02  0.275E-02    0.03       1.0  T
   7   -387.7769211 -0.258611E-03  0.119E-02    0.03       1.0  T
   8   -387.7769795 -0.583888E-04  0.172E-03    0.03       4.1  T
   9   -387.7769802 -0.665124E-06  0.711E-04    0.03       9.8  T
  10   -387.7769803 -0.113759E-06  0.343E-04    0.03      20.4  T
     SCC iter.                  ...        0 min,  1.450 sec
     gradient                   ...        0 min,  0.352 sec
 * total energy  :  -380.5617849 Eh     change       -0.1526948E-01 Eh
   gradient norm :     0.0277228 Eh/α   predicted    -0.1277677E-01 ( -16.32%)
   displ. norm   :     0.6225482 α      lambda       -0.1163841E-01
   maximum displ.:     0.5658677 α      in ANC's #46, #26, #82, ...

........................................................................
.............................. CYCLE    3 ..............................
........................................................................

 iter      E             dE          RMSdq      gap      omega  full diag
   1   -387.9432262 -0.387943E+03  0.964E-02    0.03       0.0  T
   2   -387.8340891  0.109137E+00  0.499E-01    0.21       1.0  T
   3   -387.9347162 -0.100627E+00  0.152E-01    0.03       1.0  T
   4   -387.9354842 -0.767999E-03  0.139E-01    0.05       1.0  T
   5   -387.9426193 -0.713505E-02  0.532E-02    0.04       1.0  T
   6   -387.9436089 -0.989564E-03  0.224E-02    0.03       1.0  T
   7   -387.9437729 -0.164094E-03  0.101E-02    0.03       1.0  T
   8   -387.9438038 -0.308119E-04  0.505E-03    0.03       1.4  T
   9   -387.9438142 -0.104873E-04  0.660E-04    0.03      10.6  T
  10   -387.9438143 -0.416886E-07  0.535E-04    0.03      13.1  T
  11   -387.9438141  0.214547E-06  0.850E-04    0.03       8.2  T
     SCC iter.                  ...        0 min,  1.601 sec
     gradient                   ...        0 min,  0.371 sec
 * total energy  :  -380.5700831 Eh     change       -0.8298197E-02 Eh
   gradient norm :     0.0120630 Eh/α   predicted    -0.8074944E-02 (  -2.69%)
   displ. norm   :     0.4718755 α      lambda       -0.4037800E-02
   maximum displ.:     0.4409603 α      in ANC's #46, #26, #82, ...

........................................................................
.............................. CYCLE    4 ..............................
........................................................................

 iter      E             dE          RMSdq      gap      omega  full diag
   1   -388.0434374 -0.388043E+03  0.682E-02    0.03       0.0  T
   2   -387.9718827  0.715547E-01  0.403E-01    0.13       1.0  T
   3   -388.0343869 -0.625042E-01  0.150E-01    0.03       1.0  T
   4   -388.0419272 -0.754036E-02  0.640E-02    0.04       1.0  T
   5   -388.0427816 -0.854343E-03  0.445E-02    0.04       1.0  T
   6   -388.0434052 -0.623583E-03  0.230E-02    0.03       1.0  T
   7   -388.0435718 -0.166583E-03  0.117E-02    0.03       1.0  T
   8   -388.0436097 -0.379454E-04  0.668E-03    0.03       1.0  T
   9   -388.0436285 -0.188452E-04  0.567E-04    0.03      12.3  T
  10   -388.0436284  0.142704E-06  0.757E-04    0.03       9.2  T
  11   -388.0436286 -0.184943E-06  0.394E-04    0.03      17.7  T
     SCC iter.                  ...        0 min,  1.641 sec
     gradient                   ...        0 min,  0.363 sec
 * total energy  :  -380.5727085 Eh     change       -0.2625353E-02 Eh
   gradient norm :     0.0078560 Eh/α   predicted    -0.2469478E-02 (  -5.94%)
   displ. norm   :     0.2101536 α      lambda       -0.6471274E-03
   maximum displ.:     0.1889704 α      in ANC's #46, #26, #27, ...

........................................................................
.............................. CYCLE    5 ..............................
........................................................................

 iter      E             dE          RMSdq      gap      omega  full diag
   1   -388.0783393 -0.388078E+03  0.316E-02    0.03       0.0  T
   2   -388.0693882  0.895116E-02  0.143E-01    0.05       1.0  T
   3   -388.0735651 -0.417694E-02  0.106E-01    0.02       1.0  T
   4   -388.0782761 -0.471099E-02  0.149E-02    0.03       1.0  T
   5   -388.0783211 -0.450319E-04  0.888E-03    0.03       1.0  T
   6   -388.0783477 -0.265323E-04  0.404E-03    0.03       1.7  T
   7   -388.0783528 -0.508604E-05  0.207E-03    0.03       3.4  T
   8   -388.0783529 -0.116421E-06  0.190E-03    0.03       3.7  T
   9   -388.0783541 -0.124396E-05  0.802E-04    0.03       8.7  T
  10   -388.0783544 -0.273531E-06  0.118E-04    0.03      59.2  T
  11   -388.0783544 -0.536039E-08  0.344E-05    0.03     203.0  T
     SCC iter.                  ...        0 min,  1.598 sec
     gradient                   ...        0 min,  0.350 sec
 * total energy  :  -380.5730723 Eh     change       -0.3638084E-03 Eh
   gradient norm :     0.0033858 Eh/α   predicted    -0.3378557E-03 (  -7.13%)
   displ. norm   :     0.0427494 α      lambda       -0.3509896E-04
   maximum displ.:     0.0231114 α      in ANC's #26, #46, #1, ...

........................................................................
.............................. CYCLE    6 ..............................
........................................................................

 iter      E             dE          RMSdq      gap      omega  full diag
   1   -388.0801129 -0.388080E+03  0.712E-03    0.03       0.0  T
   2   -388.0800607  0.521384E-04  0.117E-02    0.03       1.0  T
   3   -388.0791334  0.927337E-03  0.471E-02    0.04       1.0  T
   4   -388.0801095 -0.976160E-03  0.323E-03    0.03       2.2  T
   5   -388.0801119 -0.232836E-05  0.174E-03    0.03       4.0  T
   6   -388.0801130 -0.111756E-05  0.519E-04    0.03      13.5  T
   7   -388.0801131 -0.880470E-07  0.241E-04    0.03      29.0  T
   8   -388.0801131 -0.224063E-07  0.856E-05    0.03      81.6  T
     SCC iter.                  ...        0 min,  1.136 sec
     gradient                   ...        0 min,  0.340 sec
 * total energy  :  -380.5730963 Eh     change       -0.2405514E-04 Eh
   gradient norm :     0.0013475 Eh/α   predicted    -0.1766119E-04 ( -26.58%)
   displ. norm   :     0.0688660 α      lambda       -0.1673897E-04
   maximum displ.:     0.0366610 α      in ANC's #1, #26, #4, ...

........................................................................
.............................. CYCLE    7 ..............................
........................................................................

 iter      E             dE          RMSdq      gap      omega  full diag
   1   -388.0788841 -0.388079E+03  0.879E-03    0.03       0.0  T
   2   -388.0787986  0.854636E-04  0.148E-02    0.03       1.0  T
   3   -388.0772215  0.157709E-02  0.615E-02    0.04       1.0  T
   4   -388.0788737 -0.165218E-02  0.577E-03    0.03       1.2  T
   5   -388.0788826 -0.887193E-05  0.209E-03    0.03       3.3  T
   6   -388.0788842 -0.158490E-05  0.697E-04    0.03      10.0  T
   7   -388.0788843 -0.169715E-06  0.312E-04    0.03      22.4  T
   8   -388.0788844 -0.295123E-07  0.183E-04    0.03      38.1  T
     SCC iter.                  ...        0 min,  1.157 sec
     gradient                   ...        0 min,  0.340 sec
 * total energy  :  -380.5731105 Eh     change       -0.1414856E-04 Eh
   gradient norm :     0.0014195 Eh/α   predicted    -0.8388948E-05 ( -40.71%)
   displ. norm   :     0.0563001 α      lambda       -0.8788167E-05
   maximum displ.:     0.0328670 α      in ANC's #1, #4, #9, ...

........................................................................
.............................. CYCLE    8 ..............................
........................................................................

 iter      E             dE          RMSdq      gap      omega  full diag
   1   -388.0781438 -0.388078E+03  0.562E-03    0.03       0.0  T
   2   -388.0780250  0.118738E-03  0.168E-02    0.03       1.0  T
   3   -388.0780211  0.394504E-05  0.169E-02    0.03       1.0  T
   4   -388.0781420 -0.120946E-03  0.248E-03    0.03       2.8  T
   5   -388.0781439 -0.186165E-05  0.386E-04    0.03      18.1  T
   6   -388.0781439 -0.265633E-07  0.230E-04    0.03      30.3  T
   7   -388.0781439 -0.180518E-07  0.980E-05    0.03      71.3  T
     SCC iter.                  ...        0 min,  1.005 sec
     gradient                   ...        0 min,  0.342 sec
 * total energy  :  -380.5731225 Eh     change       -0.1200292E-04 Eh
   gradient norm :     0.0014456 Eh/α   predicted    -0.4400942E-05 ( -63.33%)
   displ. norm   :     0.1924849 α      lambda       -0.2861535E-04
   maximum displ.:     0.1048466 α      in ANC's #1, #4, #9, ...

........................................................................
.............................. CYCLE    9 ..............................
........................................................................

 iter      E             dE          RMSdq      gap      omega  full diag
   1   -388.0773393 -0.388077E+03  0.188E-02    0.03       0.0  T
   2   -388.0748446  0.249463E-02  0.761E-02    0.04       1.0  T
   3   -388.0765471 -0.170250E-02  0.435E-02    0.03       1.0  T
   4   -388.0773381 -0.790983E-03  0.376E-03    0.03       1.9  T
   5   -388.0773420 -0.392016E-05  0.128E-03    0.03       5.5  T
   6   -388.0773421 -0.487851E-07  0.105E-03    0.03       6.7  T
   7   -388.0773424 -0.267652E-06  0.649E-04    0.03      10.8  T
   8   -388.0773425 -0.148558E-06  0.259E-04    0.03      26.9  T
     SCC iter.                  ...        0 min,  1.136 sec
     gradient                   ...        0 min,  0.355 sec
 * total energy  :  -380.5731594 Eh     change       -0.3693617E-04 Eh
   gradient norm :     0.0013677 Eh/α   predicted    -0.1454531E-04 ( -60.62%)
   displ. norm   :     0.4273405 α      lambda       -0.5364465E-04
   maximum displ.:     0.2297822 α      in ANC's #1, #4, #9, ...

........................................................................
.............................. CYCLE   10 ..............................
........................................................................

 iter      E             dE          RMSdq      gap      omega  full diag
   1   -388.0762936 -0.388076E+03  0.411E-02    0.03       0.0  T
   2   -388.0715010  0.479256E-02  0.107E-01    0.05       1.0  T
   3   -388.0622260  0.927496E-02  0.180E-01    0.03       1.0  T
   4   -388.0762922 -0.140661E-01  0.500E-03    0.03       1.4  T
   5   -388.0762965 -0.432558E-05  0.327E-03    0.03       2.1  T
   6   -388.0762953  0.117101E-05  0.346E-03    0.03       2.0  T
   7   -388.0762977 -0.237141E-05  0.248E-03    0.03       2.8  T
   8   -388.0763002 -0.245656E-05  0.617E-04    0.03      11.3  T
   9   -388.0763003 -0.129429E-06  0.137E-04    0.03      50.9  T
  10   -388.0763003 -0.597674E-08  0.579E-05    0.03     120.5  T
     SCC iter.                  ...        0 min,  1.460 sec
     gradient                   ...        0 min,  0.358 sec
 * total energy  :  -380.5732261 Eh     change       -0.6670683E-04 Eh
   gradient norm :     0.0023015 Eh/α   predicted    -0.2900023E-04 ( -56.53%)
   displ. norm   :     0.4069631 α      lambda       -0.6947786E-04
   maximum displ.:     0.2183038 α      in ANC's #1, #4, #9, ...

........................................................................
.............................. CYCLE   11 ..............................
........................................................................

 iter      E             dE          RMSdq      gap      omega  full diag
   1   -388.0755374 -0.388076E+03  0.381E-02    0.03       0.0  T
   2   -388.0740813  0.145609E-02  0.615E-02    0.04       1.0  T
   3   -388.0411526  0.329286E-01  0.280E-01    0.04       1.0  T
   4   -388.0755362 -0.343835E-01  0.332E-03    0.03       2.1  T
   5   -388.0755383 -0.218320E-05  0.214E-03    0.03       3.3  T
   6   -388.0755385 -0.128662E-06  0.173E-03    0.03       4.0  T
   7   -388.0755385 -0.344283E-07  0.164E-03    0.03       4.3  T
   8   -388.0755396 -0.111844E-05  0.246E-04    0.03      28.4  T
   9   -388.0755396 -0.767051E-08  0.146E-04    0.03      47.7  T
  10   -388.0755396 -0.908199E-08  0.206E-05    0.03     338.9  T
     SCC iter.                  ...        0 min,  1.450 sec
     gradient                   ...        0 min,  0.366 sec
 * total energy  :  -380.5732873 Eh     change       -0.6112800E-04 Eh
   gradient norm :     0.0026345 Eh/α   predicted    -0.4049275E-04 ( -33.76%)
   displ. norm   :     0.5053402 α      lambda       -0.8408051E-04
   maximum displ.:     0.2718549 α      in ANC's #1, #4, #9, ...

........................................................................
.............................. CYCLE   12 ..............................
........................................................................

 iter      E             dE          RMSdq      gap      omega  full diag
   1   -388.0755421 -0.388076E+03  0.472E-02    0.03       0.0  T
   2   -388.0751157  0.426392E-03  0.415E-02    0.03       1.0  T
   3   -387.9496787  0.125437E+00  0.535E-01    0.09       1.0  T
   4   -388.0755292 -0.125850E+00  0.599E-03    0.03       1.2  T
   5   -388.0755334 -0.426229E-05  0.516E-03    0.03       1.4  T
   6   -388.0755431 -0.967718E-05  0.983E-04    0.03       7.1  T
   7   -388.0755429  0.197362E-06  0.107E-03    0.03       6.5  T
   8   -388.0755426  0.269731E-06  0.129E-03    0.03       5.4  T
   9   -388.0755433 -0.624975E-06  0.529E-04    0.03      13.2  T
  10   -388.0755434 -0.126532E-06  0.168E-05    0.03     415.8  T
     SCC iter.                  ...        0 min,  1.462 sec
     gradient                   ...        0 min,  0.345 sec
 * total energy  :  -380.5733610 Eh     change       -0.7376135E-04 Eh
   gradient norm :     0.0024781 Eh/α   predicted    -0.5277687E-04 ( -28.45%)
   displ. norm   :     0.5210040 α      lambda       -0.8642166E-04
   maximum displ.:     0.2827828 α      in ANC's #1, #4, #9, ...

........................................................................
.............................. CYCLE   13 ..............................
........................................................................

 iter      E             dE          RMSdq      gap      omega  full diag
   1   -388.0766123 -0.388077E+03  0.489E-02    0.03       0.0  T
   2   -388.0764914  0.120900E-03  0.336E-02    0.03       1.0  T
   3   -387.9917573  0.847341E-01  0.436E-01    0.15       1.0  T
   4   -388.0764315 -0.846742E-01  0.202E-02    0.03       1.0  T
   5   -388.0766039 -0.172428E-03  0.516E-03    0.03       1.4  T
   6   -388.0766084 -0.443334E-05  0.325E-03    0.03       2.2  T
   7   -388.0766112 -0.285239E-05  0.216E-03    0.03       3.2  T
   8   -388.0766133 -0.202658E-05  0.271E-04    0.03      25.8  T
   9   -388.0766133 -0.174521E-07  0.994E-05    0.03      70.3  T
  10   -388.0766132  0.268846E-07  0.264E-04    0.03      26.5  T
     SCC iter.                  ...        0 min,  1.459 sec
     gradient                   ...        0 min,  0.371 sec
 * total energy  :  -380.5734330 Eh     change       -0.7193434E-04 Eh
   gradient norm :     0.0017258 Eh/α   predicted    -0.5494398E-04 ( -23.62%)
   displ. norm   :     0.6887087 α      lambda       -0.6872087E-04
   maximum displ.:     0.3792511 α      in ANC's #1, #4, #9, ...

........................................................................
.............................. CYCLE   14 ..............................
........................................................................

 iter      E             dE          RMSdq      gap      omega  full diag
   1   -388.0789371 -0.388079E+03  0.652E-02    0.03       0.0  T
   2   -388.0769995  0.193759E-02  0.775E-02    0.03       1.0  T
   3   -388.0055895  0.714101E-01  0.406E-01    0.13       1.0  T
   4   -388.0777945 -0.722050E-01  0.508E-02    0.04       1.0  T
   5   -388.0787986 -0.100416E-02  0.184E-02    0.03       1.0  T
   6   -388.0789352 -0.136571E-03  0.391E-03    0.03       1.8  T
   7   -388.0789295  0.568692E-05  0.511E-03    0.03       1.4  T
   8   -388.0789389 -0.938439E-05  0.208E-03    0.03       3.4  T
   9   -388.0789407 -0.183317E-05  0.249E-04    0.03      28.0  T
  10   -388.0789406  0.146642E-06  0.624E-04    0.03      11.2  T
  11   -388.0789406 -0.508948E-07  0.514E-04    0.03      13.6  T
     SCC iter.                  ...        0 min,  1.579 sec
     gradient                   ...        0 min,  0.365 sec
 * total energy  :  -380.5735012 Eh     change       -0.6824684E-04 Eh
   gradient norm :     0.0011097 Eh/α   predicted    -0.4160500E-04 ( -39.04%)
   displ. norm   :     0.2509077 α      lambda       -0.2170681E-04
   maximum displ.:     0.1431017 α      in ANC's #1, #4, #9, ...

........................................................................
.............................. CYCLE   15 ..............................
........................................................................

 iter      E             dE          RMSdq      gap      omega  full diag
   1   -388.0804436 -0.388080E+03  0.246E-02    0.03       0.0  T
   2   -388.0800278  0.415815E-03  0.344E-02    0.03       1.0  T
   3   -388.0673715  0.126563E-01  0.172E-01    0.06       1.0  T
   4   -388.0804120 -0.130405E-01  0.873E-03    0.03       1.0  T
   5   -388.0804393 -0.273305E-04  0.347E-03    0.03       2.0  T
   6   -388.0804439 -0.459131E-05  0.933E-04    0.03       7.5  T
   7   -388.0804438  0.131136E-06  0.112E-03    0.03       6.3  T
   8   -388.0804442 -0.420132E-06  0.527E-04    0.03      13.2  T
   9   -388.0804443 -0.119877E-06  0.466E-05    0.03     149.9  T
     SCC iter.                  ...        0 min,  1.312 sec
     gradient                   ...        0 min,  0.380 sec
 * total energy  :  -380.5735275 Eh     change       -0.2633393E-04 Eh
   gradient norm :     0.0011125 Eh/α   predicted    -0.1115970E-04 ( -57.62%)
   displ. norm   :     0.2339935 α      lambda       -0.2783936E-04
   maximum displ.:     0.1312494 α      in ANC's #1, #4, #5, ...

........................................................................
.............................. CYCLE   16 ..............................
........................................................................

 iter      E             dE          RMSdq      gap      omega  full diag
   1   -388.0806884 -0.388081E+03  0.261E-02    0.03       0.0  T
   2   -388.0805604  0.128007E-03  0.233E-02    0.03       1.0  T
   3   -388.0468757  0.336847E-01  0.276E-01    0.08       1.0  T
   4   -388.0806639 -0.337882E-01  0.779E-03    0.03       1.0  T
   5   -388.0806841 -0.202268E-04  0.364E-03    0.03       1.9  T
   6   -388.0806886 -0.450219E-05  0.660E-04    0.03      10.6  T
   7   -388.0806886 -0.218650E-07  0.586E-04    0.03      11.9  T
   8   -388.0806884  0.248756E-06  0.909E-04    0.03       7.7  T
     SCC iter.                  ...        0 min,  1.179 sec
     gradient                   ...        0 min,  0.353 sec
 * total energy  :  -380.5735595 Eh     change       -0.3193880E-04 Eh
   gradient norm :     0.0011599 Eh/α   predicted    -0.1425856E-04 ( -55.36%)
   displ. norm   :     0.2284069 α      lambda       -0.2243023E-04
   maximum displ.:     0.1281039 α      in ANC's #1, #4, #5, ...

........................................................................
.............................. CYCLE   17 ..............................
........................................................................

 iter      E             dE          RMSdq      gap      omega  full diag
   1   -388.0794687 -0.388079E+03  0.258E-02    0.03       0.0  T
   2   -388.0791907  0.278019E-03  0.293E-02    0.03       1.0  T
   3   -388.0478610  0.313297E-01  0.267E-01    0.04       1.0  T
   4   -388.0794653 -0.316044E-01  0.354E-03    0.03       2.0  T
   5   -388.0794681 -0.278901E-05  0.200E-03    0.03       3.5  T
   6   -388.0794690 -0.890194E-06  0.895E-04    0.03       7.8  T
   7   -388.0794692 -0.186013E-06  0.496E-04    0.03      14.1  T
     SCC iter.                  ...        0 min,  1.062 sec
     gradient                   ...        0 min,  0.358 sec
 * total energy  :  -380.5735832 Eh     change       -0.2369676E-04 Eh
   gradient norm :     0.0008221 Eh/α   predicted    -0.1147593E-04 ( -51.57%)
   displ. norm   :     0.1250403 α      lambda       -0.1029791E-04
   maximum displ.:     0.0687388 α      in ANC's #1, #4, #16, ...

........................................................................
.............................. CYCLE   18 ..............................
........................................................................

 iter      E             dE          RMSdq      gap      omega  full diag
   1   -388.0795493 -0.388080E+03  0.152E-02    0.03       0.0  T
   2   -388.0788291  0.720223E-03  0.414E-02    0.04       1.0  T
   3   -388.0779635  0.865613E-03  0.603E-02    0.03       1.0  T
   4   -388.0795462 -0.158274E-02  0.355E-03    0.03       2.0  T
   5   -388.0795501 -0.391995E-05  0.692E-04    0.03      10.1  T
   6   -388.0795501 -0.123350E-07  0.580E-04    0.03      12.0  T
   7   -388.0795502 -0.495825E-07  0.430E-04    0.03      16.2  T
     SCC iter.                  ...        0 min,  1.017 sec
     gradient                   ...        0 min,  0.321 sec
 * total energy  :  -380.5735949 Eh     change       -0.1173390E-04 Eh
   gradient norm :     0.0005506 Eh/α   predicted    -0.5185391E-05 ( -55.81%)
   displ. norm   :     0.1255303 α      lambda       -0.1127508E-04
   maximum displ.:     0.0665605 α      in ANC's #1, #4, #16, ...

........................................................................
.............................. CYCLE   19 ..............................
........................................................................

 iter      E             dE          RMSdq      gap      omega  full diag
   1   -388.0791485 -0.388079E+03  0.164E-02    0.03       0.0  T
   2   -388.0782523  0.896159E-03  0.461E-02    0.04       1.0  T
   3   -388.0775783  0.674022E-03  0.601E-02    0.03       1.0  T
   4   -388.0791486 -0.157028E-02  0.188E-03    0.03       3.7  T
   5   -388.0791495 -0.920551E-06  0.729E-04    0.03       9.6  T
   6   -388.0791494  0.675066E-07  0.743E-04    0.03       9.4  T
     SCC iter.                  ...        0 min,  0.874 sec
     gradient                   ...        0 min,  0.362 sec
 * total energy  :  -380.5736073 Eh     change       -0.1240224E-04 Eh
   gradient norm :     0.0007289 Eh/α   predicted    -0.5677796E-05 ( -54.22%)
   displ. norm   :     0.1559447 α      lambda       -0.1368933E-04
   maximum displ.:     0.0822916 α      in ANC's #1, #4, #12, ...

........................................................................
.............................. CYCLE   20 ..............................
........................................................................

 iter      E             dE          RMSdq      gap      omega  full diag
   1   -388.0787115 -0.388079E+03  0.212E-02    0.03       0.0  T
   2   -388.0786243  0.872184E-04  0.190E-02    0.03       1.0  T
   3   -388.0462985  0.323258E-01  0.270E-01    0.04       1.0  T
   4   -388.0787109 -0.324123E-01  0.153E-03    0.03       4.6  T
   5   -388.0787108  0.981160E-07  0.151E-03    0.03       4.6  T
   6   -388.0787113 -0.492758E-06  0.108E-03    0.03       6.5  T
   7   -388.0787117 -0.429441E-06  0.436E-04    0.03      16.0  T
   8   -388.0787117 -0.312896E-07  0.332E-04    0.03      21.1  T
     SCC iter.                  ...        0 min,  1.159 sec
     gradient                   ...        0 min,  0.373 sec
 * total energy  :  -380.5736216 Eh     change       -0.1433005E-04 Eh
   gradient norm :     0.0009663 Eh/α   predicted    -0.6921036E-05 ( -51.70%)
   displ. norm   :     0.1403821 α      lambda       -0.1150575E-04
   maximum displ.:     0.0757597 α      in ANC's #1, #4, #9, ...
 * RMSD in coord.:     0.2993205 α      energy gain  -0.2710613E-01 Eh

generating ANC from exact Hessian ...
Using Lindh-Hessian (1995)
 Shifting diagonal of input Hessian by   9.921496862116824E-003
 Lowest  eigenvalues of input Hessian
    0.000000    0.000000    0.000000    0.000000    0.000000    0.000000
    0.010000    0.010063    0.010078    0.010212    0.010234    0.010672
    0.010713    0.010767    0.010860    0.011032    0.011662    0.011782
 Highest eigenvalues
    2.183713    2.196468    2.202597    2.213995    2.227975    2.236466
 

........................................................................
.............................. CYCLE   21 ..............................
........................................................................

 iter      E             dE          RMSdq      gap      omega  full diag
   1   -388.0793419 -0.388079E+03  0.190E-02    0.03       0.0  T
   2   -388.0792834  0.584667E-04  0.162E-02    0.03       1.0  T
   3   -388.0505773  0.287060E-01  0.255E-01    0.04       1.0  T
   4   -388.0793409 -0.287636E-01  0.169E-03    0.03       4.1  T
   5   -388.0793415 -0.612228E-06  0.121E-03    0.03       5.8  T
   6   -388.0793419 -0.337556E-06  0.684E-04    0.03      10.2  T
   7   -388.0793419 -0.680972E-07  0.513E-04    0.03      13.6  T
     SCC iter.                  ...        0 min,  1.010 sec
     gradient                   ...        0 min,  0.361 sec
 * total energy  :  -380.5736347 Eh     change       -0.1309293E-04 Eh
   gradient norm :     0.0009076 Eh/α   predicted     0.0000000E+00 (-100.00%)
   displ. norm   :     0.0279566 α      lambda       -0.5059329E-05
   maximum displ.:     0.0129685 α      in ANC's #16, #9, #1, ...

........................................................................
.............................. CYCLE   22 ..............................
........................................................................

 iter      E             dE          RMSdq      gap      omega  full diag
   1   -388.0793086 -0.388079E+03  0.447E-03    0.03       0.0  T
   2   -388.0787222  0.586337E-03  0.366E-02    0.03       1.0  T
   3   -388.0793015 -0.579320E-03  0.507E-03    0.03       1.4  T
   4   -388.0793087 -0.717950E-05  0.126E-03    0.03       5.5  T
   5   -388.0793092 -0.448197E-06  0.446E-04    0.03      15.6  T
   6   -388.0793092 -0.624336E-07  0.192E-04    0.03      36.4  T
     SCC iter.                  ...        0 min,  0.879 sec
     gradient                   ...        0 min,  0.367 sec
 * total energy  :  -380.5736416 Eh     change       -0.6866450E-05 Eh
   gradient norm :     0.0004206 Eh/α   predicted    -0.2688669E-05 ( -60.84%)
   displ. norm   :     0.1110226 α      lambda       -0.1524671E-04
   maximum displ.:     0.0521235 α      in ANC's #16, #9, #1, ...

........................................................................
.............................. CYCLE   23 ..............................
........................................................................

 iter      E             dE          RMSdq      gap      omega  full diag
   1   -388.0796698 -0.388080E+03  0.156E-02    0.03       0.0  T
   2   -388.0760366  0.363317E-02  0.915E-02    0.02       1.0  T
   3   -388.0796680 -0.363139E-02  0.960E-03    0.03       1.0  T
   4   -388.0796704 -0.240882E-05  0.311E-03    0.03       2.2  T
   5   -388.0796729 -0.247312E-05  0.170E-03    0.03       4.1  T
   6   -388.0796738 -0.900503E-06  0.677E-04    0.03      10.3  T
   7   -388.0796739 -0.817019E-07  0.434E-04    0.03      16.1  T
     SCC iter.                  ...        0 min,  1.003 sec
     gradient                   ...        0 min,  0.360 sec
 * total energy  :  -380.5736567 Eh     change       -0.1512809E-04 Eh
   gradient norm :     0.0010718 Eh/α   predicted    -0.7668814E-05 ( -49.31%)
   displ. norm   :     0.0958211 α      lambda       -0.8232120E-05
   maximum displ.:     0.0464079 α      in ANC's #9, #1, #16, ...

........................................................................
.............................. CYCLE   24 ..............................
........................................................................

 iter      E             dE          RMSdq      gap      omega  full diag
   1   -388.0797567 -0.388080E+03  0.125E-02    0.03       0.0  T
   2   -388.0793411  0.415584E-03  0.317E-02    0.03       1.0  T
   3   -388.0787534  0.587716E-03  0.479E-02    0.04       1.0  T
   4   -388.0797563 -0.100290E-02  0.163E-03    0.03       4.3  T
   5   -388.0797568 -0.519204E-06  0.102E-03    0.03       6.8  T
   6   -388.0797572 -0.388157E-06  0.319E-04    0.03      21.9  T
   7   -388.0797572 -0.119309E-07  0.198E-04    0.03      35.2  T
     SCC iter.                  ...        0 min,  1.023 sec
     gradient                   ...        0 min,  0.366 sec
 * total energy  :  -380.5736658 Eh     change       -0.9015779E-05 Eh
   gradient norm :     0.0012357 Eh/α   predicted    -0.4133087E-05 ( -54.16%)
   displ. norm   :     0.1134806 α      lambda       -0.9132291E-05
   maximum displ.:     0.0572067 α      in ANC's #9, #1, #16, ...

........................................................................
.............................. CYCLE   25 ..............................
........................................................................

 iter      E             dE          RMSdq      gap      omega  full diag
   1   -388.0794861 -0.388079E+03  0.134E-02    0.03       0.0  T
   2   -388.0794762  0.987956E-05  0.925E-03    0.03       1.0  T
   3   -388.0618786  0.175976E-01  0.199E-01    0.03       1.0  T
   4   -388.0794856 -0.176070E-01  0.123E-03    0.03       5.7  T
   5   -388.0794856  0.784959E-07  0.132E-03    0.03       5.3  T
   6   -388.0794861 -0.518214E-06  0.510E-04    0.03      13.7  T
   7   -388.0794862 -0.950205E-07  0.158E-04    0.03      44.3  T
     SCC iter.                  ...        0 min,  1.018 sec
     gradient                   ...        0 min,  0.363 sec
 * total energy  :  -380.5736765 Eh     change       -0.1072799E-04 Eh
   gradient norm :     0.0009118 Eh/α   predicted    -0.4596882E-05 ( -57.15%)
   displ. norm   :     0.1307422 α      lambda       -0.1040170E-04
   maximum displ.:     0.0691875 α      in ANC's #9, #1, #8, ...

........................................................................
.............................. CYCLE   26 ..............................
........................................................................

 iter      E             dE          RMSdq      gap      omega  full diag
   1   -388.0792256 -0.388079E+03  0.151E-02    0.03       0.0  T
   2   -388.0778820  0.134358E-02  0.558E-02    0.04       1.0  T
   3   -388.0786168 -0.734790E-03  0.379E-02    0.03       1.0  T
   4   -388.0792214 -0.604575E-03  0.360E-03    0.03       1.9  T
   5   -388.0792272 -0.578308E-05  0.665E-04    0.03      10.5  T
   6   -388.0792269  0.258120E-06  0.955E-04    0.03       7.3  T
   7   -388.0792272 -0.318038E-06  0.419E-04    0.03      16.7  T
     SCC iter.                  ...        0 min,  1.023 sec
     gradient                   ...        0 min,  0.355 sec
 * total energy  :  -380.5736883 Eh     change       -0.1177803E-04 Eh
   gradient norm :     0.0004391 Eh/α   predicted    -0.5245992E-05 ( -55.46%)
   displ. norm   :     0.1199883 α      lambda       -0.8030604E-05
   maximum displ.:     0.0668236 α      in ANC's #1, #9, #8, ...

........................................................................
.............................. CYCLE   27 ..............................
........................................................................

 iter      E             dE          RMSdq      gap      omega  full diag
   1   -388.0792295 -0.388079E+03  0.136E-02    0.03       0.0  T
   2   -388.0783034  0.926067E-03  0.465E-02    0.04       1.0  T
   3   -388.0786077 -0.304228E-03  0.381E-02    0.03       1.0  T
   4   -388.0792260 -0.618314E-03  0.366E-03    0.03       1.9  T
   5   -388.0792301 -0.413055E-05  0.117E-03    0.03       5.9  T
   6   -388.0792305 -0.394820E-06  0.665E-04    0.03      10.5  T
   7   -388.0792306 -0.107950E-06  0.413E-04    0.03      16.9  T
     SCC iter.                  ...        0 min,  1.034 sec
     gradient                   ...        0 min,  0.351 sec
 * total energy  :  -380.5736977 Eh     change       -0.9491105E-05 Eh
   gradient norm :     0.0006347 Eh/α   predicted    -0.4043086E-05 ( -57.40%)
   displ. norm   :     0.1185903 α      lambda       -0.7696409E-05
   maximum displ.:     0.0682800 α      in ANC's #1, #9, #4, ...

........................................................................
.............................. CYCLE   28 ..............................
........................................................................

 iter      E             dE          RMSdq      gap      omega  full diag
   1   -388.0793137 -0.388079E+03  0.139E-02    0.03       0.0  T
   2   -388.0789562  0.357454E-03  0.295E-02    0.03       1.0  T
   3   -388.0769378  0.201846E-02  0.735E-02    0.02       1.0  T
   4   -388.0793117 -0.237392E-02  0.244E-03    0.03       2.9  T
   5   -388.0793141 -0.237712E-05  0.606E-04    0.03      11.5  T
   6   -388.0793139  0.147567E-06  0.767E-04    0.03       9.1  T
   7   -388.0793141 -0.214536E-06  0.306E-04    0.03      22.9  T
     SCC iter.                  ...        0 min,  1.037 sec
     gradient                   ...        0 min,  0.361 sec
 * total energy  :  -380.5737077 Eh     change       -0.9993301E-05 Eh
   gradient norm :     0.0008165 Eh/α   predicted    -0.3876600E-05 ( -61.21%)
   displ. norm   :     0.1696037 α      lambda       -0.1158421E-04
   maximum displ.:     0.0981094 α      in ANC's #1, #9, #4, ...

........................................................................
.............................. CYCLE   29 ..............................
........................................................................

 iter      E             dE          RMSdq      gap      omega  full diag
   1   -388.0795082 -0.388080E+03  0.201E-02    0.03       0.0  T
   2   -388.0794748  0.334484E-04  0.148E-02    0.03       1.0  T
   3   -388.0413007  0.381741E-01  0.293E-01    0.04       1.0  T
   4   -388.0795078 -0.382071E-01  0.140E-03    0.03       5.0  T
   5   -388.0795071  0.677571E-06  0.198E-03    0.03       3.5  T
   6   -388.0795082 -0.111974E-05  0.595E-04    0.03      11.7  T
   7   -388.0795083 -0.927611E-07  0.320E-04    0.03      21.8  T
   8   -388.0795083  0.377228E-07  0.395E-04    0.03      17.7  T
     SCC iter.                  ...        0 min,  1.170 sec
     gradient                   ...        0 min,  0.363 sec
 * total energy  :  -380.5737230 Eh     change       -0.1522035E-04 Eh
   gradient norm :     0.0008757 Eh/α   predicted    -0.5866274E-05 ( -61.46%)
   displ. norm   :     0.2828881 α      lambda       -0.1894750E-04
   maximum displ.:     0.1634535 α      in ANC's #1, #9, #4, ...

........................................................................
.............................. CYCLE   30 ..............................
........................................................................

 iter      E             dE          RMSdq      gap      omega  full diag
   1   -388.0794555 -0.388079E+03  0.335E-02    0.03       0.0  T
   2   -388.0794529  0.261436E-05  0.203E-02    0.03       1.0  T
   3   -388.0669352  0.125177E-01  0.167E-01    0.06       1.0  T
   4   -388.0794555 -0.125204E-01  0.115E-03    0.03       6.1  T
   5   -388.0794553  0.295075E-06  0.133E-03    0.03       5.2  T
   6   -388.0794557 -0.441077E-06  0.636E-04    0.03      11.0  T
   7   -388.0794557 -0.155233E-07  0.476E-04    0.03      14.7  T
     SCC iter.                  ...        0 min,  1.054 sec
     gradient                   ...        0 min,  0.354 sec
 * total energy  :  -380.5737470 Eh     change       -0.2402473E-04 Eh
   gradient norm :     0.0008331 Eh/α   predicted    -0.9814868E-05 ( -59.15%)
   displ. norm   :     0.3994304 α      lambda       -0.2378290E-04
   maximum displ.:     0.2318728 α      in ANC's #1, #9, #4, ...

........................................................................
.............................. CYCLE   31 ..............................
........................................................................

 iter      E             dE          RMSdq      gap      omega  full diag
   1   -388.0790430 -0.388079E+03  0.450E-02    0.03       0.0  T
   2   -388.0786360  0.407047E-03  0.409E-02    0.03       1.0  T
   3   -388.0113237  0.673122E-01  0.389E-01    0.12       1.0  T
   4   -388.0788990 -0.675753E-01  0.182E-02    0.03       1.0  T
   5   -388.0790390 -0.139949E-03  0.384E-03    0.03       1.8  T
   6   -388.0790433 -0.430264E-05  0.150E-03    0.03       4.7  T
   7   -388.0790428  0.532010E-06  0.177E-03    0.03       3.9  T
   8   -388.0790434 -0.639404E-06  0.118E-03    0.03       5.9  T
   9   -388.0790440 -0.606692E-06  0.184E-04    0.03      37.9  T
  10   -388.0790440  0.275543E-07  0.308E-04    0.03      22.6  T
     SCC iter.                  ...        0 min,  1.459 sec
     gradient                   ...        0 min,  0.352 sec
 * total energy  :  -380.5737746 Eh     change       -0.2763516E-04 Eh
   gradient norm :     0.0008584 Eh/α   predicted    -0.1273845E-04 ( -53.90%)
   displ. norm   :     0.3733978 α      lambda       -0.1868103E-04
   maximum displ.:     0.2193043 α      in ANC's #1, #9, #4, ...

........................................................................
.............................. CYCLE   32 ..............................
........................................................................

 iter      E             dE          RMSdq      gap      omega  full diag
   1   -388.0788535 -0.388079E+03  0.411E-02    0.03       0.0  T
   2   -388.0788275  0.260260E-04  0.259E-02    0.03       1.0  T
   3   -388.0233524  0.554751E-01  0.352E-01    0.11       1.0  T
   4   -388.0788403 -0.554879E-01  0.574E-03    0.03       1.2  T
   5   -388.0788501 -0.974795E-05  0.363E-03    0.03       1.9  T
   6   -388.0788538 -0.371088E-05  0.895E-04    0.03       7.8  T
   7   -388.0788531  0.700852E-06  0.149E-03    0.03       4.7  T
   8   -388.0788540 -0.933850E-06  0.335E-04    0.03      20.9  T
   9   -388.0788540 -0.394809E-07  0.144E-04    0.03      48.6  T
     SCC iter.                  ...        0 min,  1.317 sec
     gradient                   ...        0 min,  0.359 sec
 * total energy  :  -380.5737947 Eh     change       -0.2010023E-04 Eh
   gradient norm :     0.0008796 Eh/α   predicted    -0.9922216E-05 ( -50.64%)
   displ. norm   :     0.2499591 α      lambda       -0.1161149E-04
   maximum displ.:     0.1499739 α      in ANC's #1, #9, #4, ...

........................................................................
.............................. CYCLE   33 ..............................
........................................................................

 iter      E             dE          RMSdq      gap      omega  full diag
   1   -388.0792814 -0.388079E+03  0.252E-02    0.03       0.0  T
   2   -388.0792806  0.784511E-06  0.150E-02    0.03       1.0  T
   3   -388.0745997  0.468086E-02  0.102E-01    0.02       1.0  T
   4   -388.0792697 -0.467000E-02  0.526E-03    0.03       1.3  T
   5   -388.0792812 -0.115033E-04  0.111E-03    0.03       6.3  T
   6   -388.0792811  0.695456E-07  0.972E-04    0.03       7.2  T
   7   -388.0792815 -0.336031E-06  0.438E-04    0.03      15.9  T
     SCC iter.                  ...        0 min,  1.020 sec
     gradient                   ...        0 min,  0.369 sec
 * total energy  :  -380.5738075 Eh     change       -0.1277080E-04 Eh
   gradient norm :     0.0006031 Eh/α   predicted    -0.5969488E-05 ( -53.26%)
   displ. norm   :     0.1633244 α      lambda       -0.7140591E-05
   maximum displ.:     0.1007276 α      in ANC's #1, #9, #4, ...

........................................................................
.............................. CYCLE   34 ..............................
........................................................................

 iter      E             dE          RMSdq      gap      omega  full diag
   1   -388.0797189 -0.388080E+03  0.157E-02    0.03       0.0  T
   2   -388.0797171  0.181607E-05  0.953E-03    0.03       1.0  T
   3   -388.0723605  0.735662E-02  0.128E-01    0.05       1.0  T
   4   -388.0797181 -0.735762E-02  0.170E-03    0.03       4.1  T
   5   -388.0797187 -0.564048E-06  0.106E-03    0.03       6.6  T
   6   -388.0797189 -0.267081E-06  0.433E-04    0.03      16.1  T
   7   -388.0797190 -0.539214E-07  0.243E-04    0.03      28.7  T
     SCC iter.                  ...        0 min,  1.016 sec
     gradient                   ...        0 min,  0.350 sec
 * total energy  :  -380.5738159 Eh     change       -0.8384199E-05 Eh
   gradient norm :     0.0004122 Eh/α   predicted    -0.3614150E-05 ( -56.89%)
   displ. norm   :     0.1118470 α      lambda       -0.4837766E-05
   maximum displ.:     0.0709251 α      in ANC's #1, #9, #4, ...

........................................................................
.............................. CYCLE   35 ..............................
........................................................................

 iter      E             dE          RMSdq      gap      omega  full diag
   1   -388.0798318 -0.388080E+03  0.108E-02    0.03       0.0  T
   2   -388.0795789  0.252971E-03  0.246E-02    0.03       1.0  T
   3   -388.0784458  0.113306E-02  0.560E-02    0.03       1.0  T
   4   -388.0798315 -0.138571E-02  0.142E-03    0.03       4.9  T
   5   -388.0798321 -0.597990E-06  0.452E-04    0.03      15.5  T
   6   -388.0798321 -0.800634E-08  0.371E-04    0.03      18.8  T
     SCC iter.                  ...        0 min,  0.879 sec
     gradient                   ...        0 min,  0.364 sec
 * total energy  :  -380.5738215 Eh     change       -0.5662567E-05 Eh
   gradient norm :     0.0003174 Eh/α   predicted    -0.2434824E-05 ( -57.00%)
   displ. norm   :     0.0820615 α      lambda       -0.3665690E-05
   maximum displ.:     0.0529232 α      in ANC's #1, #4, #9, ...

........................................................................
.............................. CYCLE   36 ..............................
........................................................................

 iter      E             dE          RMSdq      gap      omega  full diag
   1   -388.0798213 -0.388080E+03  0.836E-03    0.03       0.0  T
   2   -388.0797606  0.607308E-04  0.127E-02    0.03       1.0  T
   3   -388.0780223  0.173836E-02  0.635E-02    0.03       1.0  T
   4   -388.0798208 -0.179857E-02  0.135E-03    0.03       5.2  T
   5   -388.0798214 -0.575819E-06  0.403E-04    0.03      17.3  T
   6   -388.0798214 -0.199627E-07  0.272E-04    0.03      25.7  T
     SCC iter.                  ...        0 min,  0.880 sec
     gradient                   ...        0 min,  0.358 sec
 * total energy  :  -380.5738260 Eh     change       -0.4455134E-05 Eh
   gradient norm :     0.0003010 Eh/α   predicted    -0.1840177E-05 ( -58.70%)
   displ. norm   :     0.0766482 α      lambda       -0.3560547E-05
   maximum displ.:     0.0486845 α      in ANC's #1, #4, #9, ...

   *** GEOMETRY OPTIMIZATION CONVERGED AFTER 36 ITERATIONS ***

------------------------------------------------------------------------
 total energy gain   :        -0.0273105 Eh      -17.1376 kcal/mol
 total RMSD          :         0.3839748 a0        0.2032 Å
 total power (kW/mol):        -1.9917681 (step)   -1.2048 (real)
------------------------------------------------------------------------

 ANCopt (total)                0 d,  0 h,  0 min, 59.515 sec
 optimizer setup                ...        0 min,  0.004 sec (  0.007%)
 model hessian                  ...        0 min,  0.346 sec (  0.581%)
 ANC generation                 ...        0 min,  0.147 sec (  0.247%)
 coordinate transformation      ...        0 min,  0.012 sec (  0.020%)
 single point calculation       ...        0 min, 58.895 sec ( 98.958%)
 optimization log               ...        0 min,  0.071 sec (  0.119%)
 hessian update                 ...        0 min,  0.010 sec (  0.017%)
 rational function              ...        0 min,  0.018 sec (  0.030%)

================
 final structure:
================
205
 xtb: 6.7.1pre (5071a88)
C           -9.93862375639235       -8.39532199993337        1.65910737078980
C           -9.23610158906708       -9.58612735505164        1.71644754435434
C           -7.89452483498528       -9.58683951880736        1.41514261409763
C           -7.21764552417226       -8.40996130911458        1.06421085606387
B          -10.11372496144578       -5.89456777965200        1.28310958452445
C           -9.30952180302650       -7.19356778472842        1.34968193403296
C           -7.91736062006528       -7.18379747771207        1.07212766918373
C           -7.20962385298736       -5.95098710708521        0.81594136092841
C           -9.93422158702127       -3.41992147055298        0.85830011656423
C           -9.30526062239602       -4.63219816909181        0.96244118720683
C           -7.88307973832970       -4.70417460551698        0.78168546703488
C           -7.15449677787289       -3.50778204976484        0.56201752947227
C           -9.90880712520685       -1.01533637499529        0.45732243075792
C           -9.24018005570127       -2.21879348054001        0.59727335421898
C           -7.82339309653126       -2.26365793555076        0.47850308758576
C           -7.10809997707135       -1.06110109336298        0.27234835338358
C           -9.89165194867276        1.37384875999283        0.01911165537823
C           -9.21449564712188        0.17288702021332        0.21222074939494
C           -7.79005937227291        0.16617874392756        0.14494123238338
C           -7.08025296992597        1.38125431451499       -0.05229404134606
B           -9.70585813619507        3.88818537917703       -0.50843496525964
C           -9.21656522130624        2.56122565929172       -0.22328513448878
C           -7.76071213473008        2.60470908278377       -0.23404976799163
C           -7.04672277046201        3.82604833766398       -0.42154890430990
C           -9.74015717225989        6.39392372076014       -1.10422045351673
C           -9.13847468986758        5.18643755300659       -0.78334711161947
C           -7.68970476402166        5.07616024322992       -0.67066461948472
C           -6.94317277998691        6.26337819093260       -0.82461855495117
C           -9.62511534206115        8.76350901481826       -1.65442712339207
C           -8.99571317997023        7.55552704642860       -1.30177280907430
C           -7.58474437651786        7.50064518633815       -1.12635075983957
C           -6.84330427705203        8.69528944010992       -1.26653211035329
C           -8.87932662419213        9.89894503159236       -1.83560246583493
C           -7.50612932383379        9.86592939930944       -1.63891109219872
C           -5.82119704208790       -8.43789439592810        0.71248273537453
C           -5.14094782602257       -9.64534562175281        0.51517143145656
C           -3.80484309613877       -9.67508589810362        0.23135673140414
C           -3.05176736356860       -8.49778531732734        0.14329012529803
C           -5.80891395028713       -5.98371973271483        0.60759587620826
C           -5.11566756775142       -7.22995785569992        0.54344331121139
C           -3.71862193279915       -7.26277933374317        0.28908293951149
C           -2.98299541171854       -6.04933574054715        0.18659499792816
C           -5.74447958711932       -3.54104203413262        0.41808457875170
C           -5.07478363644881       -4.78138317626921        0.43078624423944
C           -3.66173200507009       -4.81439563263976        0.25955991180523
C           -2.93197385636286       -3.60716931229851        0.15237269207206
C           -5.69289231725420       -1.09309508728188        0.19040078071780
C           -5.01916409790071       -2.33079181664294        0.25549513337182
C           -3.60837411142918       -2.36334982607651        0.15682663065750
C           -2.88279863127808       -1.15500444527672        0.05890906379150
C           -5.65873154658286        1.35376229455241       -0.06755780238514
C           -4.97594879196610        0.11703157707890        0.04482173461288
C           -3.56210975019735        0.08437809655686        0.01231109768024
C           -2.83524510094870        1.29574826185378       -0.06192776680323
C           -5.62272158925810        3.79465462460223       -0.35702509813951
C           -4.93779724636182        2.56153579389683       -0.19196959608300
C           -3.51741141606816        2.52895660684924       -0.15126255447646
C           -2.77978183461724        3.73634994609128       -0.19105179509639
C           -5.52875296452615        6.22731671462758       -0.67731371346700
C           -4.87556758913624        4.99812767283825       -0.45432110661164
C           -3.45596943120642        4.97024564160355       -0.32411036943119
C           -2.71702971628119        6.17282248716282       -0.32383836879289
C           -5.42515396615843        8.66626009964877       -1.00872024788472
C           -4.78252878730455        7.43803233195802       -0.73925462130384
C           -3.38230100198333        7.41451294312750       -0.50924905152574
C           -2.64822877866487        8.62023731267857       -0.47727810229333
C           -4.66348806339145        9.83716019555927       -1.00118095558051
C           -3.32168187093683        9.81814049184950       -0.73354417891907
C           -1.63354525387412       -8.52818871792777       -0.08607675957003
C           -0.93959076574124       -9.73154626753989       -0.26714311739304
C            0.41563640227940       -9.75769804701833       -0.44265395071457
C            1.17910582517181       -8.58346775072221       -0.44126343546772
C           -1.57905511129027       -6.08059672880731        0.01220276687636
C           -0.90062738788246       -7.32390652348281       -0.11604541171646
C            0.50892580832015       -7.35229375937394       -0.28123991120784
C            1.24861438618225       -6.13788425950235       -0.27737898199543
C           -1.52168004388554       -3.63774009246483        0.03419774280607
C           -0.84508296578219       -4.87548566289024       -0.03614593485567
C            0.57128325657441       -4.90535825228890       -0.15869083473862
C            1.30218101378811       -3.69563525044766       -0.15784769749928
C           -1.46659515321388       -1.18692446925956        0.00691825215776
C           -0.78976121602350       -2.42492127479357       -0.01303087714785
C            0.62416922972843       -2.45461822015602       -0.08097147248590
C            1.35553660726329       -1.24663252734350       -0.07020522964111
C           -1.41724131054959        1.26320730518550       -0.04257111976014
C           -0.73608988161388        0.02360621186402       -0.02182233816933
C            0.67818893083621       -0.00640434506439       -0.02939653064419
C            1.41245728984201        1.20305679744281        0.00670290447305
C           -1.36677188692731        3.70665160910534       -0.09608287213492
C           -0.68429972039086        2.46827916624619       -0.03954789859825
C            0.73181957777977        2.43786248854642        0.01824578188001
C            1.46574071621811        3.64614624857642        0.09401842309638
C           -1.31055402049833        6.14566765054093       -0.14951593408943
C           -0.63331966598420        4.91358104990553       -0.05371945657237
C            0.78272147741465        4.88283592480629        0.08362244613778
C            1.50950478880146        6.08337095021779        0.21374960593942
C           -1.24125683466355        8.59573128601348       -0.18597019032611
C           -0.57626735088198        7.35929061673441       -0.05795393111388
C            0.82283635525632        7.32733006031146        0.17540411329602
C            1.53556833711612        8.53041719509661        0.35551822503433
C           -0.50002544043752        9.77191379015821       -0.02318143230564
C            0.83959179537681        9.74020400541943        0.25028989879016
C            2.60931249747011       -8.60998720456213       -0.58815787454738
C            3.31244547276620       -9.80659902929260       -0.76988481844365
C            4.67716432404202       -9.82915010685809       -0.87875541913640
C            5.43947891106950       -8.65940734432860       -0.81015686856141
C            2.66001564096091       -6.16575706812422       -0.39125180261699
C            3.34292453951943       -7.40534910511597       -0.54075762154303
C            4.75940655105699       -7.43105690209299       -0.64575111038496
C            5.48940031300689       -6.21339167522941       -0.57963561553798
C            2.71426702508224       -3.72364663657068       -0.23687363090093
C            3.39089746820678       -4.95935644766871       -0.35425622616067
C            4.81061983985734       -4.98593898962880       -0.43652747214860
C            5.53836157828083       -3.77552754725550       -0.37020674267329
C            2.77253539309912       -1.27506855653182       -0.10254533616574
C            3.44605004428195       -2.51121559461193       -0.19410636374807
C            4.86131212718444       -2.53918023070184       -0.24402025932148
C            5.59043445874842       -1.33329537770489       -0.16480180687405
C            2.83092557578680        1.17472609553270        0.03091137281102
C            3.50618053395688       -0.06550502912063       -0.03984886844833
C            4.92025781671892       -0.09344152170939       -0.05011946551782
C            5.65472634365194        1.11454839429088        0.05639744326705
C            2.87859798550516        3.61592007027372        0.18065427870617
C            3.56503079156348        2.37828719273436        0.12670701573287
C            4.98405175089177        2.35032633913122        0.16460749536135
C            5.72559909749069        3.55537166534503        0.31558099956502
C            2.91800523375558        6.05024133284805        0.36813955697369
C            3.60685634387571        4.81916145102670        0.32497510485173
C            5.02808887811609        4.78846521811035        0.42728234351518
C            5.73731373720012        5.98603816828019        0.64293081060040
C            2.94628547323282        8.48958846998791        0.62641935038778
C            3.63586967037889        7.25859121336642        0.58068696167478
C            5.04299862757515        7.22403195843449        0.75867247523509
C            5.74399158088517        8.41835765721672        1.03723483365802
C            3.66762731404214        9.64638830088542        0.93621037177383
C            5.02021963680723        9.60870651308665        1.14302889649787
C            6.88184493486382       -8.68715082405555       -0.90046327208410
C            7.60194160050875       -9.87125257179921       -1.06237098449447
C            8.98911642119157       -9.87363574743108       -1.13736653469741
C            9.69361145305790       -8.70052968374329       -1.05124008214712
C            6.90708425974465       -6.23700833679556       -0.65824728572736
C            7.59347019868575       -7.46870947881596       -0.81515408810168
C            9.01714528916290       -7.47541415756471       -0.88873497755089
C            9.71809930582947       -6.27185071761659       -0.79694820214715
C            6.95365439344605       -3.80096150765588       -0.43053407119336
C            7.63087416042010       -5.03141000317696       -0.57619442560735
C            9.06123450155367       -5.05105903785462       -0.64057225107629
C            9.76562991997798       -3.84805351888790       -0.54285141103920
C            7.00838331721387       -1.36347267993422       -0.20124663095476
C            7.68218656247701       -2.59271806718849       -0.34108704698617
C            9.11073995088383       -2.62640428111321       -0.39047962017426
C            9.81597609483919       -1.42333172973339       -0.27944991485260
C            7.07591113436731        1.08495251593697        0.05255953635640
C            7.73739600813313       -0.15764397463092       -0.09251025806656
C            9.15879063507967       -0.21013432909701       -0.12592856256996
C            9.86992152728842        0.99798061871453        0.00877938067059
C            7.14356961547815        3.52694074879269        0.35542740937488
C            7.81900450139616        2.28001025379801        0.19535801084098
C            9.24958858004570        2.21172997728866        0.17715076862281
B           10.08657347488944        3.47643422333874        0.37006591194154
C            7.15461291861957        5.95854468453554        0.73871158732896
C            7.85784408074289        4.74668348817467        0.56523960305529
C            9.28967639529350        4.76058546284978        0.61189486697175
C            9.94729527312796        5.93573693970971        0.87776804324057
C            7.17818544827510        8.39126811851482        1.19430580795619
C            7.86013593786517        7.16532734388044        1.00857359664522
C            9.27378572506078        7.15067484603763        1.10307586869474
C            9.97927174258632        8.32381231818642        1.40351599233138
C            7.91855030236161        9.53078905449089        1.50458191667460
C            9.30079363847772        9.49933456021636        1.61238090445450
H          -10.99804544174011       -8.38578152988222        1.87028296651683
H           -9.73231298679219      -10.50645477009249        1.98871681994911
H           -7.36008405135092      -10.52117963753226        1.47218015590258
H          -11.27074627751666       -5.86092378486390        1.45973514097986
H          -11.00715881768827       -3.36781727213949        0.97984084915217
H          -10.98666345343116       -0.99005362066352        0.53044369723725
H          -10.97148904811485        1.37885664654879        0.04447641634538
H          -10.81521803885097        6.43453688582885       -1.20176843814722
H          -10.69721766854662        8.77311411065160       -1.78418445456531
H           -5.66872471463314      -10.58331755623450        0.56717838701675
H           -3.33916646275630      -10.63564810300043        0.08695628405203
H           -1.46649812864186      -10.67118755016078       -0.27178899763832
H            0.88925241074965      -10.71637130004092       -0.57404263784222
H            2.78707463081729      -10.74543632562547       -0.82865326162094
H            5.15779843666092      -10.78379914642372       -1.01636907382292
H            7.09305306331229      -10.81843830196673       -1.13276863310250
H            9.50982005237137      -10.81205816371567       -1.26325144512492
H           10.77232213970152       -8.69644680221877       -1.10666771984630
H           10.79744804059601       -6.28552356628534       -0.84851378243442
H           10.84516043374228       -3.86570266943908       -0.58470683923958
H           10.89613004109629       -1.44041369288453       -0.30861474172923
H           10.94997700309609        0.95768717376323       -0.01199124794283
H           11.25689792240954        3.46291188859229        0.34801912156691
H           11.02747963785004        5.93593388881242        0.92095421877264
H           11.05661452295795        8.28408128447573        1.47074580905171
H            9.83698831212354       10.40530898251717        1.85453523800258
H           -9.35406913736533       10.82564514042026       -2.12317208059494
H           -6.95547503972336       10.77935257220600       -1.78963357579768
H           -5.12841343607728       10.79024123981424       -1.19091004524171
H           -2.79000215481509       10.75491788990947       -0.73834236813658
H           -0.97893071155681       10.73419537438444       -0.09690347675327
H            1.35620364765724       10.67871756133562        0.36514582468166
H            3.16596827777707       10.59544034405584        1.02857733132066
H            5.52206214072372       10.53252575516604        1.37888390086668
H            7.42454972016565       10.47414418805904        1.67036335128178
 
 Bond Distances (Angstroems)
 ---------------------------
C1-C2=1.3838         C1-C6=1.3913         C1-H171=1.0803       C2-C1=1.3838         C2-C3=1.3750         C2-H172=1.0804       
C3-C2=1.3750         C3-C4=1.4023         C3-H173=1.0779       C4-C3=1.4023         C4-C7=1.4118         C4-C35=1.4403        
B5-C6=1.5292         B5-C10=1.5330        B5-H174=1.1709       C6-C1=1.3913         C6-B5=1.5292         C6-C7=1.4196         
C7-C4=1.4118         C7-C6=1.4196         C7-C8=1.4444         C8-C7=1.4444         C8-C11=1.4175        C8-C39=1.4165        
C9-C10=1.3697        C9-C14=1.4116        C9-H175=1.0811       C10-B5=1.5330        C10-C9=1.3697        C10-C11=1.4354       
C11-C8=1.4175        C11-C10=1.4354       C11-C12=1.4179       C12-C11=1.4179       C12-C15=1.4150       C12-C43=1.4177       
C13-C14=1.3838       C13-C18=1.3979       C13-H176=1.0806      C14-C9=1.4116        C14-C13=1.3838       C14-C15=1.4225       
C15-C12=1.4150       C15-C14=1.4225       C15-C16=1.4143       C16-C15=1.4143       C16-C19=1.4098       C16-C47=1.4179       
C17-C18=1.3922       C17-C22=1.3872       C17-H177=1.0801      C18-C13=1.3979       C18-C17=1.3922       C18-C19=1.4260       
C19-C16=1.4098       C19-C18=1.4260       C19-C20=1.4210       C20-C19=1.4210       C20-C23=1.4117       C20-C51=1.4219       
B21-C22=1.4428       B21-C26=1.4432       C22-C17=1.3872       C22-B21=1.4428       C22-C23=1.4565       C23-C20=1.4117       
C23-C22=1.4565       C23-C24=1.4271       C24-C23=1.4271       C24-C27=1.4277       C24-C55=1.4258       C25-C26=1.3867       
C25-C30=1.3938       C25-H178=1.0802      C26-B21=1.4432       C26-C25=1.3867       C26-C27=1.4573       C27-C24=1.4277       
C27-C26=1.4573       C27-C28=1.4109       C28-C27=1.4109       C28-C31=1.4260       C28-C59=1.4225       C29-C30=1.4070       
C29-C33=1.3705       C29-H179=1.0800      C30-C25=1.3938       C30-C29=1.4070       C30-C31=1.4229       C31-C28=1.4260       
C31-C30=1.4229       C31-C32=1.4130       C32-C31=1.4130       C32-C34=1.3959       C32-C63=1.4417       C33-C29=1.3705       
C33-C34=1.3876       C33-H197=1.0802      C34-C32=1.3959       C34-C33=1.3876       C34-H198=1.0772      C35-C4=1.4403        
C35-C36=1.3999       C35-C40=1.4091       C36-C35=1.3999       C36-C37=1.3662       C36-H180=1.0775      C37-C36=1.3662       
[...]
    13   6 C       18   6 C                                       1.3978621
    17   6 C       18   6 C                                       1.3921714
    16   6 C       19   6 C                                       1.4097934
    18   6 C       19   6 C                                       1.4260402
    19   6 C       20   6 C                                       1.4209630
    17   6 C       22   6 C                                       1.3872140
    21   5 B       22   6 C                                       1.4427545
    20   6 C       23   6 C                                       1.4117017
    23   6 C       24   6 C                                       1.4270973
    21   5 B       26   6 C                                       1.4432463
    25   6 C       26   6 C                                       1.3867245
    24   6 C       27   6 C                                       1.4276781
    27   6 C       28   6 C                                       1.4108503
    25   6 C       30   6 C                                       1.3937526
    29   6 C       30   6 C                                       1.4070298
    28   6 C       31   6 C                                       1.4260037
    30   6 C       31   6 C                                       1.4228908
    31   6 C       32   6 C                                       1.4129966
    29   6 C       33   6 C                                       1.3704892
    32   6 C       34   6 C                                       1.3958515
    33   6 C       34   6 C                                       1.3876054
    35   6 C       36   6 C                                       1.3998606
    36   6 C       37   6 C                                       1.3662399
    37   6 C       38   6 C                                       1.4003270
     8   6 C       39   6 C                                       1.4164985
    35   6 C       40   6 C                                       1.4090625
    39   6 C       40   6 C                                       1.4275209
    38   6 C       41   6 C                                       1.4110956
    40   6 C       41   6 C                                       1.4203920
    41   6 C       42   6 C                                       1.4227072
    12   6 C       43   6 C                                       1.4177347
    39   6 C       44   6 C                                       1.4197967
    43   6 C       44   6 C                                       1.4096455
    42   6 C       45   6 C                                       1.4110580
    44   6 C       45   6 C                                       1.4237709
    45   6 C       46   6 C                                       1.4147197
    16   6 C       47   6 C                                       1.4179394
    43   6 C       48   6 C                                       1.4202901
    47   6 C       48   6 C                                       1.4106880
    46   6 C       49   6 C                                       1.4158476
    48   6 C       49   6 C                                       1.4146110
    49   6 C       50   6 C                                       1.4128505
    20   6 C       51   6 C                                       1.4218693
    47   6 C       52   6 C                                       1.4140750
    51   6 C       52   6 C                                       1.4171537
    50   6 C       53   6 C                                       1.4141091
    52   6 C       53   6 C                                       1.4145898
    53   6 C       54   6 C                                       1.4146596
    24   6 C       55   6 C                                       1.4258081
    51   6 C       56   6 C                                       1.4120700
    55   6 C       56   6 C                                       1.4201926
    54   6 C       57   6 C                                       1.4121384
    56   6 C       57   6 C                                       1.4213426
    57   6 C       58   6 C                                       1.4154433
    28   6 C       59   6 C                                       1.4225270
    55   6 C       60   6 C                                       1.4198779
    59   6 C       60   6 C                                       1.4097102
    58   6 C       61   6 C                                       1.4133058
    60   6 C       61   6 C                                       1.4258301
    61   6 C       62   6 C                                       1.4114614
    59   6 C       64   6 C                                       1.4235589
    63   6 C       64   6 C                                       1.4121341
    62   6 C       65   6 C                                       1.4208302
    64   6 C       65   6 C                                       1.4191878
    65   6 C       66   6 C                                       1.4119688
    63   6 C       67   6 C                                       1.3968533
    66   6 C       68   6 C                                       1.3979212
    67   6 C       68   6 C                                       1.3683696
    69   6 C       70   6 C                                       1.4008667
    70   6 C       71   6 C                                       1.3667952
    71   6 C       72   6 C                                       1.4006087
    42   6 C       73   6 C                                       1.4150755
    69   6 C       74   6 C                                       1.4100931
    73   6 C       74   6 C                                       1.4221573
    72   6 C       75   6 C                                       1.4108645
    74   6 C       75   6 C                                       1.4194843
    75   6 C       76   6 C                                       1.4219511
    46   6 C       77   6 C                                       1.4155666
    73   6 C       78   6 C                                       1.4118590
    77   6 C       78   6 C                                       1.4123549
    76   6 C       79   6 C                                       1.4113770
    78   6 C       79   6 C                                       1.4219716
    79   6 C       80   6 C                                       1.4133798
    50   6 C       81   6 C                                       1.4175171
    77   6 C       82   6 C                                       1.4173445
    81   6 C       82   6 C                                       1.4110771
    80   6 C       83   6 C                                       1.4162392
    82   6 C       83   6 C                                       1.4158734
    83   6 C       84   6 C                                       1.4121770
    54   6 C       85   6 C                                       1.4185093
    81   6 C       86   6 C                                       1.4141601
    85   6 C       86   6 C                                       1.4145703
    84   6 C       87   6 C                                       1.4137297
    86   6 C       87   6 C                                       1.4146176
    87   6 C       88   6 C                                       1.4153621
    58   6 C       89   6 C                                       1.4165093
    85   6 C       90   6 C                                       1.4104648
    89   6 C       90   6 C                                       1.4151082
    88   6 C       91   6 C                                       1.4100165
    90   6 C       91   6 C                                       1.4176246
    91   6 C       92   6 C                                       1.4157442
    62   6 C       93   6 C                                       1.4174978
    89   6 C       94   6 C                                       1.4129493
    93   6 C       94   6 C                                       1.4092058
    92   6 C       95   6 C                                       1.4128075
    94   6 C       95   6 C                                       1.4230183
    95   6 C       96   6 C                                       1.4094083
    93   6 C       98   6 C                                       1.4214224
    97   6 C       98   6 C                                       1.4097465
    96   6 C       99   6 C                                       1.4214143
    98   6 C       99   6 C                                       1.4187914
    99   6 C      100   6 C                                       1.4099103
    97   6 C      101   6 C                                       1.3997606
   100   6 C      102   6 C                                       1.3996574
   101   6 C      102   6 C                                       1.3676135
   103   6 C      104   6 C                                       1.3997503
   104   6 C      105   6 C                                       1.3692404
   105   6 C      106   6 C                                       1.3979012
    76   6 C      107   6 C                                       1.4162619
   103   6 C      108   6 C                                       1.4112359
   107   6 C      108   6 C                                       1.4231322
   106   6 C      109   6 C                                       1.4136382
   108   6 C      109   6 C                                       1.4206006
   109   6 C      110   6 C                                       1.4212569
    80   6 C      111   6 C                                       1.4145731
   107   6 C      112   6 C                                       1.4110137
   111   6 C      112   6 C                                       1.4137137
   110   6 C      113   6 C                                       1.4099161
   112   6 C      113   6 C                                       1.4223527
   113   6 C      114   6 C                                       1.4138963
    84   6 C      115   6 C                                       1.4176531
   111   6 C      116   6 C                                       1.4168009
   115   6 C      116   6 C                                       1.4106967
   114   6 C      117   6 C                                       1.4152293
   116   6 C      117   6 C                                       1.4164182
   117   6 C      118   6 C                                       1.4114013
    88   6 C      119   6 C                                       1.4189578
   115   6 C      120   6 C                                       1.4160545
   119   6 C      120   6 C                                       1.4139130
   118   6 C      121   6 C                                       1.4140462
   120   6 C      121   6 C                                       1.4143906
   121   6 C      122   6 C                                       1.4177552
    92   6 C      123   6 C                                       1.4158338
   119   6 C      124   6 C                                       1.4130276
   123   6 C      124   6 C                                       1.4162753
   122   6 C      125   6 C                                       1.4101990
   124   6 C      125   6 C                                       1.4198025
   125   6 C      126   6 C                                       1.4229617
    96   6 C      127   6 C                                       1.4173241
   123   6 C      128   6 C                                       1.4138525
   127   6 C      128   6 C                                       1.4113600
   126   6 C      129   6 C                                       1.4210974
   128   6 C      129   6 C                                       1.4252408
   129   6 C      130   6 C                                       1.4084337
   127   6 C      132   6 C                                       1.4214836
   131   6 C      132   6 C                                       1.4117268
   130   6 C      133   6 C                                       1.4241133
   132   6 C      133   6 C                                       1.4187619
   133   6 C      134   6 C                                       1.4125871
   131   6 C      135   6 C                                       1.3980310
   134   6 C      136   6 C                                       1.3971288
   135   6 C      136   6 C                                       1.3688317
   137   6 C      138   6 C                                       1.3952959
   138   6 C      139   6 C                                       1.3892028
   139   6 C      140   6 C                                       1.3710978
   110   6 C      141   6 C                                       1.4200583
   137   6 C      142   6 C                                       1.4136081
   141   6 C      142   6 C                                       1.4187436
   140   6 C      143   6 C                                       1.4088729
   142   6 C      143   6 C                                       1.4255912
   143   6 C      144   6 C                                       1.3958247
   114   6 C      145   6 C                                       1.4168064
   141   6 C      146   6 C                                       1.4085710
   145   6 C      146   6 C                                       1.4120366
   144   6 C      147   6 C                                       1.3950833
   146   6 C      147   6 C                                       1.4319433
   147   6 C      148   6 C                                       1.3974781
   118   6 C      149   6 C                                       1.4187383
   145   6 C      150   6 C                                       1.4137229
   149   6 C      150   6 C                                       1.4087621
   148   6 C      151   6 C                                       1.3944624
   150   6 C      151   6 C                                       1.4298040
   151   6 C      152   6 C                                       1.3989530
   122   6 C      153   6 C                                       1.4214982
   149   6 C      154   6 C                                       1.4132609
   153   6 C      154   6 C                                       1.4151515
   152   6 C      155   6 C                                       1.3882758
   154   6 C      155   6 C                                       1.4227562
   155   6 C      156   6 C                                       1.4083307
   126   6 C      157   6 C                                       1.4188153
   153   6 C      158   6 C                                       1.4144761
   157   6 C      158   6 C                                       1.4271197
   156   6 C      159   6 C                                       1.3734445
   158   6 C      159   6 C                                       1.4323285
   159   6 C      160   5 B                                       1.5288025
   130   6 C      161   6 C                                       1.4207981
   157   6 C      162   6 C                                       1.4289793
   161   6 C      162   6 C                                       1.4118196
   160   5 B      163   6 C                                       1.5305460
   162   6 C      163   6 C                                       1.4326598
   163   6 C      164   6 C                                       1.3726371
   161   6 C      166   6 C                                       1.4236969
   165   6 C      166   6 C                                       1.4150915
   164   6 C      167   6 C                                       1.4072858
   166   6 C      167   6 C                                       1.4168809
   167   6 C      168   6 C                                       1.4015087
   165   6 C      169   6 C                                       1.3938865
   168   6 C      170   6 C                                       1.3732480
   169   6 C      170   6 C                                       1.3867974
     1   6 C      171   1 H                                       1.0803058
     2   6 C      172   1 H                                       1.0804439
     3   6 C      173   1 H                                       1.0779016
     5   5 B      174   1 H                                       1.1709087
     9   6 C      175   1 H                                       1.0810557
    13   6 C      176   1 H                                       1.0806296
    17   6 C      177   1 H                                       1.0801467
    25   6 C      178   1 H                                       1.0802412
    29   6 C      179   1 H                                       1.0799689
    36   6 C      180   1 H                                       1.0775179
    37   6 C      181   1 H                                       1.0772122
    70   6 C      182   1 H                                       1.0773017
    71   6 C      183   1 H                                       1.0773253
   104   6 C      184   1 H                                       1.0774432
   105   6 C      185   1 H                                       1.0776371
   138   6 C      186   1 H                                       1.0775363
   139   6 C      187   1 H                                       1.0805629
   140   6 C      188   1 H                                       1.0801416
   144   6 C      189   1 H                                       1.0806664
   148   6 C      190   1 H                                       1.0804859
   152   6 C      191   1 H                                       1.0806827
   156   6 C      192   1 H                                       1.0810065
   160   5 B      193   1 H                                       1.1706103
   164   6 C      194   1 H                                       1.0810474
   168   6 C      195   1 H                                       1.0801695
   170   6 C      196   1 H                                       1.0802469
    33   6 C      197   1 H                                       1.0802083
    34   6 C      198   1 H                                       1.0771627
    67   6 C      199   1 H                                       1.0772727
    68   6 C      200   1 H                                       1.0771529 (min)
   101   6 C      201   1 H                                       1.0773910
   102   6 C      202   1 H                                       1.0774449
   135   6 C      203   1 H                                       1.0774477
   136   6 C      204   1 H                                       1.0774580
   169   6 C      205   1 H                                       1.0777009

 * 4 distinct bonds (by element types)

   Z      Z             #   av. dist./Å        max./Å        min./Å
   1 H    5 B           2     1.1707595     1.1709087     1.1706103
   1 H    6 C          33     1.0789975     1.0810557     1.0771529
   5 B    6 C           6     1.5012612     1.5329776     1.4427545
   6 C    6 C         219     1.4105017     1.4326598     1.3662399


optimized geometry written to: xtbopt.xyz


           -------------------------------------------------
          | TOTAL ENERGY             -380.573826018528 Eh   |
          | GRADIENT NORM               0.000300021565 Eh/α |
          | HOMO-LUMO GAP               0.030940860545 eV   |
           -------------------------------------------------

------------------------------------------------------------------------
 * finished run on 2025/12/08 at 00:42:44.264     
------------------------------------------------------------------------
 total:
 * wall-time:     0 d,  0 h,  1 min,  6.664 sec
 *  cpu-time:     0 d,  0 h,  4 min, 21.734 sec
 * ratio c/w:     3.926 speedup
 SCF:
 * wall-time:     0 d,  0 h,  0 min,  5.772 sec
 *  cpu-time:     0 d,  0 h,  0 min, 22.734 sec
 * ratio c/w:     3.939 speedup
 ANC optimizer:
 * wall-time:     0 d,  0 h,  1 min,  0.756 sec
 *  cpu-time:     0 d,  0 h,  3 min, 58.484 sec
 * ratio c/w:     3.925 speedup

normal termination of xtb
