205
 energy: -380.573826018528 gnorm: 0.000300021565 xtb: 6.7.1pre (5071a88)
C           -9.93862375639235       -8.39532199993337        1.65910737078980
C           -9.23610158906708       -9.58612735505164        1.71644754435434
C           -7.89452483498528       -9.58683951880736        1.41514261409763
C           -7.21764552417226       -8.40996130911458        1.06421085606387
B          -10.11372496144578       -5.89456777965200        1.28310958452445
C           -9.30952180302650       -7.19356778472842        1.34968193403296
C           -7.91736062006528       -7.18379747771207        1.07212766918373
C           -7.20962385298736       -5.95098710708521        0.81594136092841
C           -9.93422158702127       -3.41992147055298        0.85830011656423
C           -9.30526062239602       -4.63219816909181        0.96244118720683
C           -7.88307973832970       -4.70417460551698        0.78168546703488
C           -7.15449677787289       -3.50778204976484        0.56201752947227
C           -9.90880712520685       -1.01533637499529        0.45732243075792
C           -9.24018005570127       -2.21879348054001        0.59727335421898
C           -7.82339309653126       -2.26365793555076        0.47850308758576
C           -7.10809997707135       -1.06110109336298        0.27234835338358
C           -9.89165194867276        1.37384875999283        0.01911165537823
C           -9.21449564712188        0.17288702021332        0.21222074939494
C           -7.79005937227291        0.16617874392756        0.14494123238338
C           -7.08025296992597        1.38125431451499       -0.05229404134606
B           -9.70585813619507        3.88818537917703       -0.50843496525964
C           -9.21656522130624        2.56122565929172       -0.22328513448878
C           -7.76071213473008        2.60470908278377       -0.23404976799163
C           -7.04672277046201        3.82604833766398       -0.42154890430990
C           -9.74015717225989        6.39392372076014       -1.10422045351673
C           -9.13847468986758        5.18643755300659       -0.78334711161947
C           -7.68970476402166        5.07616024322992       -0.67066461948472
C           -6.94317277998691        6.26337819093260       -0.82461855495117
C           -9.62511534206115        8.76350901481826       -1.65442712339207
C           -8.99571317997023        7.55552704642860       -1.30177280907430
C           -7.58474437651786        7.50064518633815       -1.12635075983957
C           -6.84330427705203        8.69528944010992       -1.26653211035329
C           -8.87932662419213        9.89894503159236       -1.83560246583493
C           -7.50612932383379        9.86592939930944       -1.63891109219872
C           -5.82119704208790       -8.43789439592810        0.71248273537453
C           -5.14094782602257       -9.64534562175281        0.51517143145656
C           -3.80484309613877       -9.67508589810362        0.23135673140414
C           -3.05176736356860       -8.49778531732734        0.14329012529803
C           -5.80891395028713       -5.98371973271483        0.60759587620826
C           -5.11566756775142       -7.22995785569992        0.54344331121139
C           -3.71862193279915       -7.26277933374317        0.28908293951149
C           -2.98299541171854       -6.04933574054715        0.18659499792816
C           -5.74447958711932       -3.54104203413262        0.41808457875170
C           -5.07478363644881       -4.78138317626921        0.43078624423944
C           -3.66173200507009       -4.81439563263976        0.25955991180523
C           -2.93197385636286       -3.60716931229851        0.15237269207206
C           -5.69289231725420       -1.09309508728188        0.19040078071780
C           -5.01916409790071       -2.33079181664294        0.25549513337182
C           -3.60837411142918       -2.36334982607651        0.15682663065750
C           -2.88279863127808       -1.15500444527672        0.05890906379150
C           -5.65873154658286        1.35376229455241       -0.06755780238514
C           -4.97594879196610        0.11703157707890        0.04482173461288
C           -3.56210975019735        0.08437809655686        0.01231109768024
C           -2.83524510094870        1.29574826185378       -0.06192776680323
C           -5.62272158925810        3.79465462460223       -0.35702509813951
C           -4.93779724636182        2.56153579389683       -0.19196959608300
C           -3.51741141606816        2.52895660684924       -0.15126255447646
C           -2.77978183461724        3.73634994609128       -0.19105179509639
C           -5.52875296452615        6.22731671462758       -0.67731371346700
C           -4.87556758913624        4.99812767283825       -0.45432110661164
C           -3.45596943120642        4.97024564160355       -0.32411036943119
C           -2.71702971628119        6.17282248716282       -0.32383836879289
C           -5.42515396615843        8.66626009964877       -1.00872024788472
C           -4.78252878730455        7.43803233195802       -0.73925462130384
C           -3.38230100198333        7.41451294312750       -0.50924905152574
C           -2.64822877866487        8.62023731267857       -0.47727810229333
C           -4.66348806339145        9.83716019555927       -1.00118095558051
C           -3.32168187093683        9.81814049184950       -0.73354417891907
C           -1.63354525387412       -8.52818871792777       -0.08607675957003
C           -0.93959076574124       -9.73154626753989       -0.26714311739304
C            0.41563640227940       -9.75769804701833       -0.44265395071457
C            1.17910582517181       -8.58346775072221       -0.44126343546772
C           -1.57905511129027       -6.08059672880731        0.01220276687636
C           -0.90062738788246       -7.32390652348281       -0.11604541171646
C            0.50892580832015       -7.35229375937394       -0.28123991120784
C            1.24861438618225       -6.13788425950235       -0.27737898199543
C           -1.52168004388554       -3.63774009246483        0.03419774280607
C           -0.84508296578219       -4.87548566289024       -0.03614593485567
C            0.57128325657441       -4.90535825228890       -0.15869083473862
C            1.30218101378811       -3.69563525044766       -0.15784769749928
C           -1.46659515321388       -1.18692446925956        0.00691825215776
C           -0.78976121602350       -2.42492127479357       -0.01303087714785
C            0.62416922972843       -2.45461822015602       -0.08097147248590
C            1.35553660726329       -1.24663252734350       -0.07020522964111
C           -1.41724131054959        1.26320730518550       -0.04257111976014
C           -0.73608988161388        0.02360621186402       -0.02182233816933
C            0.67818893083621       -0.00640434506439       -0.02939653064419
C            1.41245728984201        1.20305679744281        0.00670290447305
C           -1.36677188692731        3.70665160910534       -0.09608287213492
C           -0.68429972039086        2.46827916624619       -0.03954789859825
C            0.73181957777977        2.43786248854642        0.01824578188001
C            1.46574071621811        3.64614624857642        0.09401842309638
C           -1.31055402049833        6.14566765054093       -0.14951593408943
C           -0.63331966598420        4.91358104990553       -0.05371945657237
C            0.78272147741465        4.88283592480629        0.08362244613778
C            1.50950478880146        6.08337095021779        0.21374960593942
C           -1.24125683466355        8.59573128601348       -0.18597019032611
C           -0.57626735088198        7.35929061673441       -0.05795393111388
C            0.82283635525632        7.32733006031146        0.17540411329602
C            1.53556833711612        8.53041719509661        0.35551822503433
C           -0.50002544043752        9.77191379015821       -0.02318143230564
C            0.83959179537681        9.74020400541943        0.25028989879016
C            2.60931249747011       -8.60998720456213       -0.58815787454738
C            3.31244547276620       -9.80659902929260       -0.76988481844365
C            4.67716432404202       -9.82915010685809       -0.87875541913640
C            5.43947891106950       -8.65940734432860       -0.81015686856141
C            2.66001564096091       -6.16575706812422       -0.39125180261699
C            3.34292453951943       -7.40534910511597       -0.54075762154303
C            4.75940655105699       -7.43105690209299       -0.64575111038496
C            5.48940031300689       -6.21339167522941       -0.57963561553798
C            2.71426702508224       -3.72364663657068       -0.23687363090093
C            3.39089746820678       -4.95935644766871       -0.35425622616067
C            4.81061983985734       -4.98593898962880       -0.43652747214860
C            5.53836157828083       -3.77552754725550       -0.37020674267329
C            2.77253539309912       -1.27506855653182       -0.10254533616574
C            3.44605004428195       -2.51121559461193       -0.19410636374807
C            4.86131212718444       -2.53918023070184       -0.24402025932148
C            5.59043445874842       -1.33329537770489       -0.16480180687405
C            2.83092557578680        1.17472609553270        0.03091137281102
C            3.50618053395688       -0.06550502912063       -0.03984886844833
C            4.92025781671892       -0.09344152170939       -0.05011946551782
C            5.65472634365194        1.11454839429088        0.05639744326705
C            2.87859798550516        3.61592007027372        0.18065427870617
C            3.56503079156348        2.37828719273436        0.12670701573287
C            4.98405175089177        2.35032633913122        0.16460749536135
C            5.72559909749069        3.55537166534503        0.31558099956502
C            2.91800523375558        6.05024133284805        0.36813955697369
C            3.60685634387571        4.81916145102670        0.32497510485173
C            5.02808887811609        4.78846521811035        0.42728234351518
C            5.73731373720012        5.98603816828019        0.64293081060040
C            2.94628547323282        8.48958846998791        0.62641935038778
C            3.63586967037889        7.25859121336642        0.58068696167478
C            5.04299862757515        7.22403195843449        0.75867247523509
C            5.74399158088517        8.41835765721672        1.03723483365802
C            3.66762731404214        9.64638830088542        0.93621037177383
C            5.02021963680723        9.60870651308665        1.14302889649787
C            6.88184493486382       -8.68715082405555       -0.90046327208410
C            7.60194160050875       -9.87125257179921       -1.06237098449447
C            8.98911642119157       -9.87363574743108       -1.13736653469741
C            9.69361145305790       -8.70052968374329       -1.05124008214712
C            6.90708425974465       -6.23700833679556       -0.65824728572736
C            7.59347019868575       -7.46870947881596       -0.81515408810168
C            9.01714528916290       -7.47541415756471       -0.88873497755089
C            9.71809930582947       -6.27185071761659       -0.79694820214715
C            6.95365439344605       -3.80096150765588       -0.43053407119336
C            7.63087416042010       -5.03141000317696       -0.57619442560735
C            9.06123450155367       -5.05105903785462       -0.64057225107629
C            9.76562991997798       -3.84805351888790       -0.54285141103920
C            7.00838331721387       -1.36347267993422       -0.20124663095476
C            7.68218656247701       -2.59271806718849       -0.34108704698617
C            9.11073995088383       -2.62640428111321       -0.39047962017426
C            9.81597609483919       -1.42333172973339       -0.27944991485260
C            7.07591113436731        1.08495251593697        0.05255953635640
C            7.73739600813313       -0.15764397463092       -0.09251025806656
C            9.15879063507967       -0.21013432909701       -0.12592856256996
C            9.86992152728842        0.99798061871453        0.00877938067059
C            7.14356961547815        3.52694074879269        0.35542740937488
C            7.81900450139616        2.28001025379801        0.19535801084098
C            9.24958858004570        2.21172997728866        0.17715076862281
B           10.08657347488944        3.47643422333874        0.37006591194154
C            7.15461291861957        5.95854468453554        0.73871158732896
C            7.85784408074289        4.74668348817467        0.56523960305529
C            9.28967639529350        4.76058546284978        0.61189486697175
C            9.94729527312796        5.93573693970971        0.87776804324057
C            7.17818544827510        8.39126811851482        1.19430580795619
C            7.86013593786517        7.16532734388044        1.00857359664522
C            9.27378572506078        7.15067484603763        1.10307586869474
C            9.97927174258632        8.32381231818642        1.40351599233138
C            7.91855030236161        9.53078905449089        1.50458191667460
C            9.30079363847772        9.49933456021636        1.61238090445450
H          -10.99804544174011       -8.38578152988222        1.87028296651683
H           -9.73231298679219      -10.50645477009249        1.98871681994911
H           -7.36008405135092      -10.52117963753226        1.47218015590258
H          -11.27074627751666       -5.86092378486390        1.45973514097986
H          -11.00715881768827       -3.36781727213949        0.97984084915217
H          -10.98666345343116       -0.99005362066352        0.53044369723725
H          -10.97148904811485        1.37885664654879        0.04447641634538
H          -10.81521803885097        6.43453688582885       -1.20176843814722
H          -10.69721766854662        8.77311411065160       -1.78418445456531
H           -5.66872471463314      -10.58331755623450        0.56717838701675
H           -3.33916646275630      -10.63564810300043        0.08695628405203
H           -1.46649812864186      -10.67118755016078       -0.27178899763832
H            0.88925241074965      -10.71637130004092       -0.57404263784222
H            2.78707463081729      -10.74543632562547       -0.82865326162094
H            5.15779843666092      -10.78379914642372       -1.01636907382292
H            7.09305306331229      -10.81843830196673       -1.13276863310250
H            9.50982005237137      -10.81205816371567       -1.26325144512492
H           10.77232213970152       -8.69644680221877       -1.10666771984630
H           10.79744804059601       -6.28552356628534       -0.84851378243442
H           10.84516043374228       -3.86570266943908       -0.58470683923958
H           10.89613004109629       -1.44041369288453       -0.30861474172923
H           10.94997700309609        0.95768717376323       -0.01199124794283
H           11.25689792240954        3.46291188859229        0.34801912156691
H           11.02747963785004        5.93593388881242        0.92095421877264
H           11.05661452295795        8.28408128447573        1.47074580905171
H            9.83698831212354       10.40530898251717        1.85453523800258
H           -9.35406913736533       10.82564514042026       -2.12317208059494
H           -6.95547503972336       10.77935257220600       -1.78963357579768
H           -5.12841343607728       10.79024123981424       -1.19091004524171
H           -2.79000215481509       10.75491788990947       -0.73834236813658
H           -0.97893071155681       10.73419537438444       -0.09690347675327
H            1.35620364765724       10.67871756133562        0.36514582468166
H            3.16596827777707       10.59544034405584        1.02857733132066
H            5.52206214072372       10.53252575516604        1.37888390086668
H            7.42454972016565       10.47414418805904        1.67036335128178
