205
 energy: -380.546515452189 gnorm: 0.060563922643 xtb: 6.7.1pre (5071a88)
C          -10.11358100000000       -8.48036800000000        1.19373600000000
C           -9.41894300000000       -9.68928600000000        1.25159400000000
C           -8.04369500000000       -9.68172100000000        1.08849400000000
C           -7.31688900000000       -8.48762000000000        0.87012500000000
B          -10.22097900000000       -5.95984800000000        0.91921000000000
C           -9.44477800000000       -7.26786100000000        0.99099400000000
C           -8.02027800000000       -7.25481900000000        0.83624700000000
C           -7.28604900000000       -6.00599800000000        0.65024800000000
C          -10.03817900000000       -3.47062400000000        0.60801700000000
C           -9.40444100000000       -4.68612200000000        0.70309300000000
C           -7.96120600000000       -4.75262200000000        0.59689100000000
C           -7.21795100000000       -3.54584800000000        0.43218500000000
C           -9.99765900000000       -1.04383500000000        0.29790800000000
C           -9.32756700000000       -2.25348800000000        0.41879100000000
C           -7.89451600000000       -2.29417700000000        0.35043700000000
C           -7.16642400000000       -1.08124100000000        0.19569200000000
C           -9.98120000000000        1.36833300000000       -0.03953300000000
C           -9.29382700000000        0.15800500000000        0.11791800000000
C           -7.85490100000000        0.15462100000000        0.08384200000000
C           -7.12882900000000        1.37942100000000       -0.06454200000000
B           -9.70867000000000        3.90541100000000       -0.43862200000000
C           -9.28429200000000        2.55329800000000       -0.21366300000000
C           -7.81709400000000        2.61141200000000       -0.21233500000000
C           -7.09537500000000        3.85225000000000       -0.35406800000000
C           -9.85261800000000        6.44677900000000       -0.87320600000000
C           -9.21676300000000        5.23879400000000       -0.64263900000000
C           -7.75427800000000        5.12003400000000       -0.54870000000000
C           -7.01061800000000        6.32071600000000       -0.66264800000000
C           -9.76420000000000        8.85945300000000       -1.26153600000000
C           -9.11057300000000        7.63021700000000       -1.01205500000000
C           -7.68050400000000        7.57246200000000       -0.88662400000000
C           -6.94117700000000        8.78341400000000       -0.99278700000000
C           -9.02521100000000       10.01841600000000       -1.38747900000000
C           -7.63335600000000        9.97748300000000       -1.25175000000000
C           -5.87596900000000       -8.50979400000000        0.67845700000000
C           -5.15898800000000       -9.72180100000000        0.63861000000000
C           -3.79884600000000       -9.74849100000000        0.44815700000000
C           -3.05444800000000       -8.56244100000000        0.29425400000000
C           -5.86511100000000       -6.03664800000000        0.51863500000000
C           -5.16235300000000       -7.29306400000000        0.51876600000000
C           -3.74022400000000       -7.32041100000000        0.34529300000000
C           -3.00143000000000       -6.09552200000000        0.22931200000000
C           -5.79382800000000       -3.57571000000000        0.34047300000000
C           -5.11969500000000       -4.82337600000000        0.37352500000000
C           -3.68821100000000       -4.85367300000000        0.25452200000000
C           -2.95207200000000       -3.63686400000000        0.16062900000000
C           -5.73759700000000       -1.10925500000000        0.14817000000000
C           -5.05805100000000       -2.35321500000000        0.21390800000000
C           -3.63481900000000       -2.38395000000000        0.14599700000000
C           -2.90155800000000       -1.16713200000000        0.07044100000000
C           -5.69713800000000        1.35726500000000       -0.06272500000000
C           -5.01010200000000        0.11019600000000        0.03755800000000
C           -3.58657700000000        0.08116700000000        0.01908500000000
C           -2.85380300000000        1.30393500000000       -0.03654800000000
C           -5.66578600000000        3.82240400000000       -0.29653900000000
C           -4.97200400000000        2.57554800000000       -0.15852100000000
C           -3.54062500000000        2.54586400000000       -0.12097800000000
C           -2.79937100000000        3.76515500000000       -0.15384700000000
C           -5.58211400000000        6.28103200000000       -0.55127200000000
C           -4.91679200000000        5.04149800000000       -0.37512200000000
C           -3.48169000000000        5.00919800000000       -0.27131800000000
C           -2.73978800000000        6.21966100000000       -0.28021900000000
C           -5.49619700000000        8.74616400000000       -0.81810500000000
C           -4.83556200000000        7.50463800000000       -0.60866800000000
C           -3.41641100000000        7.47340100000000       -0.43710800000000
C           -2.67723500000000        8.68660700000000       -0.43100800000000
C           -4.72698900000000        9.92126900000000       -0.84078400000000
C           -3.36441900000000        9.89444500000000       -0.64776500000000
C           -1.62090000000000       -8.59335400000000        0.08996700000000
C           -0.91661600000000       -9.80843700000000       -0.03480500000000
C            0.44566400000000       -9.83507400000000       -0.21578900000000
C            1.20571300000000       -8.64926200000000       -0.27456800000000
C           -1.58243700000000       -6.12493200000000        0.09048200000000
C           -0.89234000000000       -7.37925000000000        0.01249000000000
C            0.52853000000000       -7.40753300000000       -0.15237700000000
C            1.26948600000000       -6.18125200000000       -0.18120400000000
C           -1.52947800000000       -3.66559300000000        0.06608600000000
C           -0.84560200000000       -4.91179800000000        0.02653100000000
C            0.58477500000000       -4.94100200000000       -0.08886200000000
C            1.32005000000000       -3.72294300000000       -0.09625400000000
C           -1.47341600000000       -1.19732800000000        0.02772400000000
C           -0.79101700000000       -2.44266900000000        0.02484400000000
C            0.63448100000000       -2.47224900000000       -0.03974000000000
C            1.37073200000000       -1.25665800000000       -0.02567400000000
C           -1.42358200000000        1.27229100000000       -0.02067200000000
C           -0.73759500000000        0.02292400000000        0.01006000000000
C            0.68683800000000       -0.00680600000000       -0.00167400000000
C            1.42614500000000        1.21284700000000        0.03570700000000
C           -1.37482300000000        3.73486300000000       -0.07677300000000
C           -0.68679300000000        2.48609000000000       -0.01471400000000
C            0.74181500000000        2.45629400000000        0.03105500000000
C            1.48200400000000        3.67539900000000        0.09373200000000
C           -1.31807000000000        6.19109800000000       -0.14184400000000
C           -0.63582900000000        4.95181800000000       -0.04826200000000
C            0.79649200000000        4.92157900000000        0.06500200000000
C            1.53108100000000        6.13155700000000        0.15700200000000
C           -1.24749600000000        8.65963900000000       -0.20194000000000
C           -0.57597700000000        7.41618300000000       -0.08420300000000
C            0.84154300000000        7.38650300000000        0.10272700000000
C            1.56561100000000        8.60133900000000        0.22201800000000
C           -0.49641100000000        9.84559000000000       -0.08867000000000
C            0.86157800000000        9.81735200000000        0.12344200000000
C            2.64483800000000       -8.67590800000000       -0.44767600000000
C            3.34984400000000       -9.88314700000000       -0.62014200000000
C            4.72011400000000       -9.90439800000000       -0.75897300000000
C            5.48738100000000       -8.72530600000000       -0.72863400000000
C            2.69091800000000       -6.20945800000000       -0.30255600000000
C            3.37968200000000       -7.46123100000000       -0.43700000000000
C            4.80600800000000       -7.48608400000000       -0.56555600000000
C            5.54198300000000       -6.25811900000000       -0.51591300000000
C            2.74242300000000       -3.75087200000000       -0.17988800000000
C            3.42642500000000       -4.99598400000000       -0.28233400000000
C            4.85904000000000       -5.02362000000000       -0.37557400000000
C            5.59176700000000       -3.80481600000000       -0.31055200000000
C            2.79968100000000       -1.28566200000000       -0.06276300000000
C            3.48029300000000       -2.52945700000000       -0.13837600000000
C            4.90764800000000       -2.55980100000000       -0.19194000000000
C            5.64184300000000       -1.34664800000000       -0.10825100000000
C            2.85720700000000        1.18307400000000        0.05339500000000
C            3.53798000000000       -0.06703700000000        0.00172000000000
C            4.96220700000000       -0.09765900000000       -0.00785300000000
C            5.70194900000000        1.11974600000000        0.09782300000000
C            2.90652600000000        3.64522900000000        0.16889700000000
C            3.59581800000000        2.39551800000000        0.14060600000000
C            5.02645800000000        2.36585200000000        0.18086300000000
C            5.77423200000000        3.58256700000000        0.31107800000000
C            2.95322400000000        6.10149600000000        0.28910000000000
C            3.64254400000000        4.86024900000000        0.28089800000000
C            5.07823200000000        4.83076000000000        0.37806400000000
C            5.79878900000000        6.04078600000000        0.53702400000000
C            2.99851000000000        8.56952300000000        0.43434900000000
C            3.68499600000000        7.32621900000000        0.43559200000000
C            5.10703200000000        7.29593800000000        0.58910400000000
C            5.82474600000000        8.51015600000000        0.77774700000000
C            3.74001200000000        9.74861300000000        0.63392100000000
C            5.10597600000000        9.71733300000000        0.80518900000000
C            6.94173400000000       -8.75724200000000       -0.85281000000000
C            7.65555300000000       -9.95193000000000       -1.03711200000000
C            9.05411600000000       -9.95040400000000       -1.13470400000000
C            9.76828800000000       -8.77157400000000       -1.04863700000000
C            6.97159100000000       -6.28612500000000       -0.60731900000000
C            7.66025500000000       -7.52848900000000       -0.77460300000000
C            9.09784700000000       -7.53243900000000       -0.86595300000000
C            9.80188400000000       -6.32204200000000       -0.77018100000000
C            7.01836000000000       -3.83148400000000       -0.37345700000000
C            7.70328000000000       -5.07205700000000       -0.52478900000000
C            9.15023700000000       -5.09260800000000       -0.59525300000000
C            9.85384300000000       -3.87873400000000       -0.48227700000000
C            7.07246900000000       -1.37696600000000       -0.13669000000000
C            7.75371300000000       -2.61481000000000       -0.27496700000000
C            9.19931200000000       -2.65455100000000       -0.31692300000000
C            9.90187800000000       -1.43808400000000       -0.18099300000000
C            7.13484400000000        1.08634700000000        0.11129400000000
C            7.80485900000000       -0.16337900000000       -0.01713000000000
C            9.24090300000000       -0.22316100000000       -0.02699800000000
C            9.95363400000000        0.99437200000000        0.13367800000000
C            7.20276000000000        3.54759600000000        0.36959600000000
C            7.88093300000000        2.28950100000000        0.25445600000000
C            9.32495000000000        2.21366900000000        0.27955700000000
B           10.14799700000000        3.47897000000000        0.47804600000000
C            7.22748300000000        6.00991600000000        0.63859400000000
C            7.92837400000000        4.78115700000000        0.54245000000000
C            9.37248600000000        4.78458800000000        0.62319400000000
C           10.04606500000000        5.97158800000000        0.82256400000000
C            7.27396700000000        8.48392000000000        0.92823900000000
C            7.95280700000000        7.23503700000000        0.83556600000000
C            9.37856900000000        7.21573400000000        0.94437100000000
C           10.09574200000000        8.41058600000000        1.15909800000000
C            8.02846500000000        9.64691600000000        1.14988000000000
C            9.42092600000000        9.61408200000000        1.26664200000000
H          -11.19432300000000       -8.46891400000000        1.30934900000000
H           -9.94104000000000      -10.62673800000000        1.41869600000000
H           -7.52295700000000      -10.62984900000000        1.13787500000000
H          -11.41463000000000       -5.92242900000000        1.02341200000000
H          -11.12233800000000       -3.42478900000000        0.67778200000000
H          -11.08311300000000       -1.02242800000000        0.33655400000000
H          -11.06591600000000        1.37288100000000       -0.03274400000000
H          -10.93460000000000        6.48205800000000       -0.94511000000000
H          -10.84612600000000        8.87055500000000       -1.35291900000000
H           -5.67162100000000      -10.66849600000000        0.74843400000000
H           -3.30778700000000      -10.71279700000000        0.42780900000000
H           -1.44133900000000      -10.75445800000000        0.00285200000000
H            0.92743700000000      -10.80058100000000       -0.30318200000000
H            2.82235300000000      -10.82824600000000       -0.64993400000000
H            5.20267600000000      -10.86562700000000       -0.88638000000000
H            7.13778200000000      -10.90058800000000       -1.10816500000000
H            9.57666500000000      -10.89275900000000       -1.27763300000000
H           10.85299600000000       -8.77375100000000       -1.11979700000000
H           10.88765600000000       -6.33781700000000       -0.83098600000000
H           10.94043600000000       -3.89518500000000       -0.52055300000000
H           10.98918300000000       -1.45231800000000       -0.19212900000000
H           11.04096000000000        0.95473400000000        0.14656100000000
H           11.34671600000000        3.45368300000000        0.52013700000000
H           11.13189000000000        5.96084300000000        0.88778000000000
H           11.17852800000000        8.36842500000000        1.23917100000000
H            9.96577100000000       10.53771700000000        1.43773200000000
H           -9.51551400000000       10.96609600000000       -1.58681400000000
H           -7.09028300000000       10.90838900000000       -1.35490400000000
H           -5.19725700000000       10.88335200000000       -0.99970900000000
H           -2.82907600000000       10.83467700000000       -0.67595500000000
H           -0.98038500000000       10.81161000000000       -0.15418400000000
H            1.38346400000000       10.76252500000000        0.20030800000000
H            3.24623200000000       10.71143200000000        0.66343400000000
H            5.62066400000000       10.65873400000000        0.95228700000000
H            7.53614000000000       10.60787200000000        1.23657700000000
205
 energy: -380.561784933618 gnorm: 0.027722786600 xtb: 6.7.1pre (5071a88)
C          -10.08672185018996       -8.46908096060189        1.18942170200013
C           -9.39686070963223       -9.66993803970644        1.24748192112846
C           -8.02892642797328       -9.66272563668725        1.08528918347273
C           -7.30440251281833       -8.47402135811117        0.86745733928323
B          -10.20927411097975       -5.95328747118501        0.91806319393316
C           -9.42234363845371       -7.26015316967513        0.98805832231014
C           -8.00419813587703       -7.24482485576590        0.83345054460115
C           -7.27396883708439       -6.00047113006014        0.64865287966000
C          -10.00918335003062       -3.46542229588864        0.60537962514885
C           -9.38257961702823       -4.68086560898771        0.70051274695438
C           -7.94552012448492       -4.74837859226166        0.59485955231494
C           -7.20471153820803       -3.54347103028907        0.43082356783802
C           -9.96830447100044       -1.04452636327582        0.29687242672797
C           -9.30163727742584       -2.25289569296378        0.41720524873367
C           -7.87545648250984       -2.29316279527128        0.34907489168801
C           -7.15145304917707       -1.08091219592254        0.19504560290278
C           -9.94930640142904        1.36266677863278       -0.03865577158118
C           -9.26695883538143        0.15488096411966        0.11768883947622
C           -7.83512239606246        0.15363007293170        0.08380541892027
C           -7.11548393159864        1.37882613841349       -0.06359997338419
B           -9.70946034702001        3.90255085009037       -0.43796228283101
C           -9.26322769937545        2.55366752225945       -0.21483316779893
C           -7.79997267449080        2.60966788989820       -0.21191128221862
C           -7.08538730773621        3.84801654591579       -0.35310001061707
C           -9.82306987655291        6.44522342268334       -0.87117964045785
C           -9.19732233672118        5.23159173709327       -0.63953463890584
C           -7.73909618239677        5.11317293292941       -0.54748770099315
C           -6.99857116370469        6.31215090223709       -0.66160499380304
C           -9.73745566803503        8.84931970154211       -1.25779562160695
C           -9.08566213408219        7.62410841747404       -1.00943512511555
C           -7.66322357842374        7.56287161585762       -0.88435123795993
C           -6.92909436521559        8.77017070564826       -0.98957153815262
C           -9.00370711861949       10.00197800753885       -1.38324398316971
C           -7.61984676287247        9.96084923939677       -1.24769037408111
C           -5.86832649574120       -8.49226671517922        0.67619619201434
C           -5.15143552190828       -9.69813172219547        0.63621430819679
C           -3.79582265878569       -9.72446943753854        0.44672965633514
C           -3.05029479195805       -8.54416153376567        0.29328515793615
C           -5.85689780610472       -6.02878733375810        0.51720535448694
C           -5.15497308168172       -7.27984357826404        0.51703967724034
C           -3.73647610020883       -7.30676959549743        0.34435831164192
C           -2.99740351859260       -6.08667275817367        0.22852778719180
C           -5.78390330574784       -3.57268604711346        0.33977843857483
C           -5.11218726942671       -4.81864766922206        0.37254065374590
C           -3.68401826531644       -4.84739135229195        0.25427106813923
C           -2.94832444600406       -3.63277513642136        0.15895791320666
C           -5.72667091570490       -1.10857960476725        0.14796750008666
C           -5.05009669941631       -2.35223207927992        0.21286983114899
C           -3.62924395843441       -2.38176725148491        0.14687099606834
C           -2.89747921194055       -1.16591693609686        0.06812804296075
C           -5.68730169101712        1.35605513826719       -0.06252637836200
C           -5.00212471010850        0.11039218187362        0.03645909639051
C           -3.58060325946637        0.08116639791667        0.02060145315306
C           -2.84970010437853        1.30215675094971       -0.03830553995559
C           -5.65712060740167        3.81746537865719       -0.29576771616011
C           -4.96487001048427        2.57365918576244       -0.15869193121636
C           -3.53600929826754        2.54288766929105       -0.11937178270017
C           -2.79573435059491        3.75960151058236       -0.15433976396996
C           -5.57413855366299        6.27102230256799       -0.54936952564206
C           -4.91004485034763        5.03284389390442       -0.37357301381152
C           -3.47852493679282        5.00129771574061       -0.26985019384186
C           -2.73674022563513        6.20956419501351       -0.27923079773929
C           -5.48969582734650        8.72814825852007       -0.81492898077411
C           -4.82943899259422        7.49037463858566       -0.60563275104870
C           -3.41327732868773        7.45902961201226       -0.43529189066039
C           -2.67417900601863        8.66776225791279       -0.42839876877737
C           -4.72048811290669        9.89743814815747       -0.83740062629283
C           -3.36258478377665        9.87027369078329       -0.64492937903868
C           -1.61954096477147       -8.57458480466374        0.09033181831898
C           -0.91343991155803       -9.78320660944667       -0.03444152230786
C            0.44455619540653       -9.80978563016055       -0.21470828982137
C            1.20597371151783       -8.63049681355328       -0.27318541022485
C           -1.58050740492955       -6.11549353095141        0.09079919639465
C           -0.89017967992075       -7.36499659166809        0.01253646937800
C            0.52785570627589       -7.39348202939937       -0.15109371204156
C            1.26838667434845       -6.17173484101921       -0.18119748586359
C           -1.52737902768818       -3.66090574432263        0.06777219449903
C           -0.84403109639607       -4.90478421225594        0.02533507810255
C            0.58360491187440       -4.93395622034674       -0.08677106762525
C            1.31794312424152       -3.71778798548796       -0.09828537313954
C           -1.47149587885050       -1.19584055591292        0.03041302876747
C           -0.79015336749414       -2.44020710847162        0.02231949864973
C            0.63350172467798       -2.46936699024521       -0.03668333210478
C            1.36881980716148       -1.25476827171980       -0.02873027255775
C           -1.42195897173392        1.27068129133185       -0.01800226715729
C           -0.73659975467437        0.02294471189122        0.00707195471496
C            0.68637904193073       -0.00665024892944        0.00157749228033
C            1.42505640922578        1.21114395643537        0.03274236901597
C           -1.37295538172638        3.72955091929480       -0.07477649605439
C           -0.68535837758084        2.48313701713677       -0.01714169617008
C            0.74100787503192        2.45317316618578        0.03354664526835
C            1.48100041850904        3.66989766639350        0.09148957829663
C           -1.31712666790620        6.18080198679881       -0.14098862929861
C           -0.63413464829964        4.94379942208383       -0.04911985296336
C            0.79509845212913        4.91376729141183        0.06570997688808
C            1.53040828694781        6.12123113506480        0.15584015242762
C           -1.24708965358777        8.64025220991057       -0.20160596125291
C           -0.57467625624863        7.40101964579810       -0.08368970146582
C            0.84033999962915        7.37153754612475        0.10181407284987
C            1.56487483043619        8.58181579965274        0.22109259191452
C           -0.49450543556168        9.81992417669356       -0.08816865341028
C            0.85930339190374        9.79168076123180        0.12275267721833
C            2.64217849654902       -8.65749760538860       -0.44517854989156
C            3.34960342419069       -9.85832563291987       -0.61762209160055
C            4.71517113003241       -9.87992245150463       -0.75629911281354
C            5.48122409333182       -8.70645629849033       -0.72585275925751
C            2.68764794148403       -6.20019055869474       -0.30053844015930
C            3.37654282046402       -7.44710149398508       -0.43540827084787
C            4.79911666271234       -7.47277094670329       -0.56302702915740
C            5.53255504839701       -6.24876826829610       -0.51468089676254
C            2.73857455376416       -3.74613737397809       -0.17689752948199
C            3.42142509202335       -4.98853223276118       -0.28293950512064
C            4.85020949833148       -5.01657356875249       -0.37281385727343
C            5.58090838203640       -3.79997362166649       -0.31093929683368
C            2.79540614739783       -1.28401605392851       -0.05942957632271
C            3.47444351470526       -2.52653987546003       -0.14055116628155
C            4.89868804616787       -2.55692437451566       -0.18927484897508
C            5.63068903982974       -1.34508528704033       -0.10941909703677
C            2.85348014620286        1.18172838836659        0.05588073167593
C            3.53278071388138       -0.06681051241746       -0.00086627798403
C            4.95469613331234       -0.09753523175178       -0.00597475655995
C            5.69260216892365        1.11792405221347        0.09661502356837
C            2.90353720993725        3.63984793431711        0.16964736584935
C            3.59204570073675        2.39269136913257        0.13833406887261
C            5.01990665813445        2.36280799174458        0.18118780343225
C            5.76701808959085        3.57687122891566        0.30973839662936
C            2.95040926115981        6.09098988857109        0.28790929591747
C            3.63949129854725        4.85207415813998        0.27910815276115
C            5.07139089959636        4.82230739129784        0.37632534310622
C            5.79065430205985        6.03049341306327        0.53498529517217
C            2.99500410577797        8.55026267111751        0.43133717452368
C            3.68174824429428        7.31127954219446        0.43359722146164
C            5.10028551263342        7.28178855747986        0.58622526124390
C            5.81743125620662        8.49150206430890        0.77462509189804
C            3.73787118008112        9.72339373111003        0.63125779491696
C            5.09907552281426        9.69292413820858        0.80205003019496
C            6.93014895638448       -8.73712928652514       -0.84901168204544
C            7.64812468539863       -9.92415524916510       -1.03315848147783
C            9.03792660777675       -9.92462639803060       -1.13090968555638
C            9.74589662942707       -8.75135029870682       -1.04476344377603
C            6.95741545947344       -6.27570546088429       -0.60496120487115
C            7.64453317316437       -7.51343863953599       -0.77155464819148
C            9.07421853799704       -7.51953831662312       -0.86323248726458
C            9.77533812688530       -6.31203527243742       -0.76712967808495
C            7.00354670394276       -3.82756660782377       -0.37196878405470
C            7.68435175192991       -5.06474237398356       -0.52319799555962
C            9.12274995334485       -5.08597165607719       -0.59310599347698
C            9.82491474056313       -3.87588196958046       -0.48020289033833
C            7.05684405923761       -1.37753975110401       -0.13613048660376
C            7.73428041451636       -2.61335210347106       -0.27464046905893
C            9.17151158120216       -2.65167426568057       -0.31534220864372
C            9.87336879210538       -1.44044575299137       -0.18062067450562
C            7.12120964475780        1.08370143550118        0.11094097736463
C            7.78648016503304       -0.16591860195177       -0.01753453356891
C            9.21540548870382       -0.22486929723778       -0.02683292094638
C            9.92572426748596        0.98847405866477        0.13246698068477
C            7.19184456418255        3.54328324521785        0.36865147995805
C            7.86589792102323        2.28464051832546        0.25375854240200
C            9.30372750113137        2.20752844819176        0.27835144409408
B           10.13598166615130        3.47496010033796        0.47692977697001
C            7.21516475724353        6.00195299513472        0.63670016789451
C            7.91332677473821        4.77477943673013        0.54095718640532
C            9.35106551386846        4.78119477606604        0.62156515927785
C           10.01859502584217        5.96743026164746        0.82052746672302
C            7.26118211362449        8.46872686102556        0.92459190943537
C            7.93549226633530        7.22380789832556        0.83269527106511
C            9.35411084923610        7.20648879552523        0.94147498295242
C           10.07023361352265        8.39649035782316        1.15524168187957
C            8.01572643097045        9.62595261115706        1.14574750986702
C            9.40045732302884        9.59328348067544        1.26239528707667
H          -11.16369458982930       -8.46059220357202        1.30529155017444
H           -9.92074802953023      -10.60316721891814        1.41423752242503
H           -7.51506580256172      -10.61074128720475        1.13560502855586
H          -11.38643941591259       -5.92013385335563        1.02075311168540
H          -11.08991934471998       -3.41866576642580        0.67495803886820
H          -11.05099970202036       -1.02225401670876        0.33579763911538
H          -11.03163762905865        1.36754166057528       -0.03165006171265