      -----------------------------------------------------------      
     |                   =====================                   |     
     |                           x T B                           |     
     |                   =====================                   |     
     |                         S. Grimme                         |     
     |          Mulliken Center for Theoretical Chemistry        |     
     |                    University of Bonn                     |     
      -----------------------------------------------------------      

   * xtb version 6.7.1pre (5071a88) compiled by 'Marcel@Raven' on 2024-07-23

   xtb is free software: you can redistribute it and/or modify it under
   the terms of the GNU Lesser General Public License as published by
   the Free Software Foundation, either version 3 of the License, or
   (at your option) any later version.
   
   xtb is distributed in the hope that it will be useful,
   but WITHOUT ANY WARRANTY; without even the implied warranty of
   MERCHANTABILITY or FITNESS FOR A PARTICULAR PURPOSE.  See the
   GNU Lesser General Public License for more details.
   
   Cite this work as:
   * C. Bannwarth, E. Caldeweyher, S. Ehlert, A. Hansen, P. Pracht,
     J. Seibert, S. Spicher, S. Grimme, WIREs Comput. Mol. Sci., 2020, 11,
     e01493. DOI: 10.1002/wcms.1493
   
   for GFN2-xTB:
   * C. Bannwarth, S. Ehlert and S. Grimme., J. Chem. Theory Comput., 2019,
     15, 1652-1671. DOI: 10.1021/acs.jctc.8b01176
   for GFN1-xTB:
   * S. Grimme, C. Bannwarth, P. Shushkov, J. Chem. Theory Comput., 2017,
     13, 1989-2009. DOI: 10.1021/acs.jctc.7b00118
   for GFN0-xTB:
   * P. Pracht, E. Caldeweyher, S. Ehlert, S. Grimme, ChemRxiv, 2019, preprint.
     DOI: 10.26434/chemrxiv.8326202.v1
   for GFN-FF:
   * S. Spicher and S. Grimme, Angew. Chem. Int. Ed., 2020, 59, 15665-15673.
     DOI: 10.1002/anie.202004239
   
   for ALPB and GBSA implicit solvation:
   * S. Ehlert, M. Stahn, S. Spicher, S. Grimme, J. Chem. Theory Comput.,
     2021, 17, 4250-4261. DOI: 10.1021/acs.jctc.1c00471
   
   for ddCOSMO and CPCM-X implicit solvation:
   * M. Stahn, S. Ehlert, S. Grimme, J. Phys. Chem. A,
     2023, XX, XXXX-XXXX. DOI: 10.1021/acs.jpca.3c04382
   
   for DFT-D4:
   * E. Caldeweyher, C. Bannwarth and S. Grimme, J. Chem. Phys., 2017,
     147, 034112. DOI: 10.1063/1.4993215
   * E. Caldeweyher, S. Ehlert, A. Hansen, H. Neugebauer, S. Spicher,
     C. Bannwarth and S. Grimme, J. Chem. Phys., 2019, 150, 154122.
     DOI: 10.1063/1.5090222
   * E. Caldeweyher, J.-M. Mewes, S. Ehlert and S. Grimme, Phys. Chem. Chem. Phys.
     2020, 22, 8499-8512. DOI: 10.1039/D0CP00502A
   
   for sTDA-xTB:
   * S. Grimme and C. Bannwarth, J. Chem. Phys., 2016, 145, 054103.
     DOI: 10.1063/1.4959605
   
   in the mass-spec context:
   * V. Asgeirsson, C. Bauer and S. Grimme, Chem. Sci., 2017, 8, 4879.
     DOI: 10.1039/c7sc00601b
   * J. Koopman and S. Grimme, ACS Omega 2019, 4, 12, 15120-15133.
     DOI: 10.1021/acsomega.9b02011
   
   for metadynamics refer to:
   * S. Grimme, J. Chem. Theory Comput., 2019, 155, 2847-2862
     DOI: 10.1021/acs.jctc.9b00143
   
   for SPH calculations refer to:
   * S. Spicher and S. Grimme, J. Chem. Theory Comput., 2021, 17, 1701-1714
     DOI: 10.1021/acs.jctc.0c01306
   
   for ONIOM refer to:
   * C. Plett, A. Katbashev, S. Ehlert, S. Grimme, M. Bursch,
     Phys. Chem. Chem. Phys., 2023, 25, 17860-17868. DOI: 10.1039/D3CP02178E
   
   for DIPRO refer to:
   * J. Kohn, N. Gildemeister, S. Grimme, D. Fazzi, A. Hansen,
     J. Chem. Phys., 2023, just accepted.
   
   for PTB refer to:
   * S. Grimme, M. Mueller, A. Hansen, J. Chem. Phys., 2023, 158, 124111.
     DOI: 10.1063/5.0137838
   
   with help from (in alphabetical order)
   P. Atkinson, C. Bannwarth, F. Bohle, G. Brandenburg, E. Caldeweyher
   M. Checinski, S. Dohm, S. Ehlert, S. Ehrlich, I. Gerasimov, C. Hölzer
   A. Katbashev, J. Kohn, J. Koopman, C. Lavigne, S. Lehtola, F. März, M. Müller,
   F. Musil, H. Neugebauer, J. Pisarek, C. Plett, P. Pracht, F. Pultar,
   J. Seibert, P. Shushkov, S. Spicher, M. Stahn, M. Steiner, T. Strunk,
   J. Stückrath, T. Rose, and J. Unsleber
   
 * started run on 2025/12/08 at 00:42:44.987     
   ID    Z sym.   atoms
    1    6 C      1-4, 6-20, 22-159, 161-170
    2    7 N      5, 21, 160
    3    1 H      171-205

           -------------------------------------------------
          |                Calculation Setup                |
           -------------------------------------------------

          program call               : xtb "C:\Users\LENOVO GAMING\Documents\GitHub\molecular-conductivity-sim\dataset\2nm-3Ndoped-1.5percent.xyz" --opt --parallel 4
          coordinate file            : C:\Users\LENOVO GAMING\Documents\GitHub\molecular-conductivity-sim\dataset\2nm-3Ndoped-1.5percent.xyz
          omp threads                :                     4


           -------------------------------------------------
          |                 G F N 2 - x T B                 |
           -------------------------------------------------

        Reference                      10.1021/acs.jctc.8b01176
      * Hamiltonian:
        H0-scaling (s, p, d)           1.850000    2.230000    2.230000
        zeta-weighting                 0.500000
      * Dispersion:
        s8                             2.700000
        a1                             0.520000
        a2                             5.000000
        s9                             5.000000
      * Repulsion:
        kExp                           1.500000    1.000000
        rExp                           1.000000
      * Coulomb:
        alpha                          2.000000
        third order                    shell-resolved
        anisotropic                    true
        a3                             3.000000
        a5                             4.000000
        cn-shift                       1.200000
        cn-exp                         4.000000
        max-rad                        5.000000


          ...................................................
          :                      SETUP                      :
          :.................................................:
          :  # basis functions                 715          :
          :  # atomic orbitals                 715          :
          :  # shells                          375          :
          :  # electrons                       718          :
          :  max. iterations                   250          :
          :  Hamiltonian                  GFN2-xTB          :
          :  restarted?                      false          :
          :  GBSA solvation                  false          :
          :  PC potential                    false          :
          :  electronic temp.          300.0000000     K    :
          :  accuracy                    1.0000000          :
          :  -> integral cutoff          0.2500000E+02      :
          :  -> integral neglect         0.1000000E-07      :
          :  -> SCF convergence          0.1000000E-05 Eh   :
          :  -> wf. convergence          0.1000000E-03 e    :
          :  Broyden damping             0.4000000          :
          :  net charge                          0          :
          :  unpaired electrons                  0          :
          ...................................................

 iter      E             dE          RMSdq      gap      omega  full diag
   1   -392.5644459 -0.392564E+03  0.493E+00    0.16       0.0  T
   2   -390.3499080  0.221454E+01  0.336E+00    0.23       1.0  T
   3   -332.2709712  0.580789E+02  0.619E+00    0.04       1.0  T
   4   -311.3301227  0.209408E+02  0.699E+00    0.09       1.0  T
   5   -391.0623638 -0.797322E+02  0.205E+00    0.08       1.0  T
   6   -392.4685240 -0.140616E+01  0.127E+00    0.18       1.0  T
   7   -392.1991031  0.269421E+00  0.114E+00    0.24       1.0  T
   8   -392.5204036 -0.321301E+00  0.826E-01    0.21       1.0  T
   9   -392.5712912 -0.508876E-01  0.625E-01    0.21       1.0  T
  10   -392.6698313 -0.985401E-01  0.522E-01    0.09       1.0  T
  11   -392.8031317 -0.133300E+00  0.561E-01    0.05       1.0  T
  12   -392.8196020 -0.164703E-01  0.407E-01    0.03       1.0  T
  13   -392.7767059  0.428961E-01  0.558E-01    0.11       1.0  T
  14   -392.8507479 -0.740419E-01  0.174E-01    0.03       1.0  T
  15   -392.8085828  0.421651E-01  0.335E-01    0.05       1.0  T
  16   -392.8541274 -0.455446E-01  0.775E-02    0.03       1.0  T
  17   -392.8556421 -0.151469E-02  0.598E-02    0.03       1.0  T
  18   -392.8562112 -0.569130E-03  0.245E-02    0.03       1.0  T
  19   -392.8557781  0.433055E-03  0.390E-02    0.03       1.0  T
  20   -392.8562485 -0.470325E-03  0.202E-02    0.03       1.0  T
  21   -392.8558281  0.420403E-03  0.364E-02    0.03       1.0  T
  22   -392.8563626 -0.534503E-03  0.450E-03    0.03       1.6  T
  23   -392.8563610  0.155696E-05  0.441E-03    0.03       1.6  T
  24   -392.8563678 -0.683067E-05  0.192E-03    0.03       3.6  T
  25   -392.8563680 -0.177730E-06  0.165E-03    0.03       4.2  T
  26   -392.8563692 -0.122287E-05  0.333E-04    0.03      21.0  T
  27   -392.8563693 -0.272476E-07  0.272E-04    0.03      25.7  T
  28   -392.8563693 -0.323910E-07  0.279E-05    0.03     250.7  T

   *** convergence criteria satisfied after 28 iterations ***

         #    Occupation            Energy/Eh            Energy/eV
      -------------------------------------------------------------
         1        2.0000           -0.6761384             -18.3987
       ...           ...                  ...                  ...
       353        2.0000           -0.3609343              -9.8215
       354        2.0000           -0.3582633              -9.7488
       355        2.0000           -0.3487888              -9.4910
       356        2.0000           -0.3477964              -9.4640
       357        2.0000           -0.3455644              -9.4033
       358        1.9996           -0.3353193              -9.1245
       359        1.2858           -0.3278398              -8.9210 (HOMO)
       360        0.7146           -0.3267233              -8.8906 (LUMO)
       361                         -0.3102973              -8.4436
       362                         -0.2900894              -7.8937
       363                         -0.2872299              -7.8159
       364                         -0.2841702              -7.7327
       ...                                ...                  ...
       715                          0.7607128              20.7000
      -------------------------------------------------------------
                  HL-Gap            0.0011165 Eh            0.0304 eV
             Fermi-level           -0.3272811 Eh           -8.9058 eV

 SCC (total)                   0 d,  0 h,  0 min,  4.508 sec
 SCC setup                      ...        0 min,  0.003 sec (  0.067%)
 Dispersion                     ...        0 min,  0.014 sec (  0.311%)
 classical contributions        ...        0 min,  0.001 sec (  0.022%)
 integral evaluation            ...        0 min,  0.078 sec (  1.730%)
 iterations                     ...        0 min,  4.030 sec ( 89.397%)
 molecular gradient             ...        0 min,  0.371 sec (  8.230%)
 printout                       ...        0 min,  0.010 sec (  0.222%)

         :::::::::::::::::::::::::::::::::::::::::::::::::::::
         ::                     SUMMARY                     ::
         :::::::::::::::::::::::::::::::::::::::::::::::::::::
         :: total energy            -385.764891744994 Eh    ::
         :: gradient norm              0.050517357130 Eh/a0 ::
         :: HOMO-LUMO gap              0.030381257494 eV    ::
         ::.................................................::
         :: SCC energy              -392.873274053398 Eh    ::
         :: -> isotropic ES            0.020475345086 Eh    ::
         :: -> anisotropic ES          0.020745179671 Eh    ::
         :: -> anisotropic XC          0.142478932238 Eh    ::
         :: -> dispersion             -0.488829293944 Eh    ::
         :: repulsion energy           7.108382308404 Eh    ::
         :: add. restraining           0.000000000000 Eh    ::
         :: total charge               0.000000000051 e     ::
         :::::::::::::::::::::::::::::::::::::::::::::::::::::

      ----------------------------------------------------------- 
     |                   =====================                   |
     |                        A N C O P T                        |
     |                   =====================                   |
     |               Approximate Normal Coordinate               |
     |                Rational Function Optimizer                |
      ----------------------------------------------------------- 
      ----------------------------------------------------------- 
     |                   =====================                   |
     |                        A N C O P T                        |
     |                   =====================                   |
     |               Approximate Normal Coordinate               |
     |                Rational Function Optimizer                |
      ----------------------------------------------------------- 

          ...................................................
          :                      SETUP                      :
          :.................................................:
          :   optimization level            normal          :
          :   max. optcycles                   615          :
          :   ANC micro-cycles                  20          :
          :   degrees of freedom               609          :
          :.................................................:
          :   RF solver                   davidson          :
          :   write xtbopt.log                true          :
          :   linear?                        false          :
          :   energy convergence         0.5000000E-05 Eh   :
          :   grad. convergence          0.1000000E-02 Eh/α :
          :   maxmium RF displ.          1.0000000          :
          :   Hlow (freq-cutoff)         0.1000000E-01      :
          :   Hmax (freq-cutoff)         5.0000000          :
          :   S6 in model hess.         20.0000000          :
          ...................................................

generating ANC from exact Hessian ...
Using Lindh-Hessian (1995)
 Shifting diagonal of input Hessian by   9.942304625216416E-003
 Lowest  eigenvalues of input Hessian
    0.000000    0.000000    0.000000    0.000000    0.000000    0.000000
    0.010000    0.010079    0.010096    0.010205    0.010228    0.010648
    0.010689    0.010774    0.010802    0.011023    0.011633    0.011701
 Highest eigenvalues
    2.128724    2.143257    2.148882    2.161038    2.203911    2.219145
 

........................................................................
.............................. CYCLE    1 ..............................
........................................................................

 iter      E             dE          RMSdq      gap      omega  full diag
   1   -392.8563693 -0.392856E+03  0.245E-05    0.03       0.0  T
   2   -392.8563691  0.232718E-06  0.667E-04    0.03      10.5  T
   3   -392.8563693 -0.232551E-06  0.297E-05    0.03     235.2  T
     SCC iter.                  ...        0 min,  0.436 sec
     gradient                   ...        0 min,  0.355 sec
 * total energy  :  -385.7648917 Eh     change        0.3264518E-09 Eh
   gradient norm :     0.0505176 Eh/α   predicted     0.0000000E+00 (-100.00%)
   displ. norm   :     0.5586687 α      lambda       -0.1856977E-01
   maximum displ.:     0.4942877 α      in ANC's #45, #77, #188, ...

........................................................................
.............................. CYCLE    2 ..............................
........................................................................

 iter      E             dE          RMSdq      gap      omega  full diag
   1   -393.0425748 -0.393043E+03  0.972E-02    0.03       0.0  T
   2   -392.9081600  0.134415E+00  0.517E-01    0.25       1.0  T
   3   -393.0427629 -0.134603E+00  0.654E-02    0.03       1.0  T
   4   -393.0417728  0.990132E-03  0.691E-02    0.03       1.0  T
   5   -393.0434412 -0.166840E-02  0.186E-02    0.03       1.0  T
   6   -393.0432804  0.160806E-03  0.227E-02    0.03       1.0  T
   7   -393.0434729 -0.192540E-03  0.119E-02    0.03       1.0  T
   8   -393.0435426 -0.696451E-04  0.323E-03    0.03       2.2  T
   9   -393.0435469 -0.431070E-05  0.138E-03    0.03       5.1  T
  10   -393.0435460  0.883953E-06  0.180E-03    0.03       3.9  T
  11   -393.0435474 -0.143019E-05  0.730E-04    0.03       9.6  T
  12   -393.0435477 -0.240294E-06  0.252E-04    0.03      27.7  T
  13   -393.0435477 -0.257276E-07  0.118E-04    0.03      59.2  T
     SCC iter.                  ...        0 min,  1.882 sec
     gradient                   ...        0 min,  0.366 sec
 * total energy  :  -385.7793555 Eh     change       -0.1446371E-01 Eh
   gradient norm :     0.0225683 Eh/α   predicted    -0.1218300E-01 ( -15.77%)
   displ. norm   :     0.6279638 α      lambda       -0.1097766E-01
   maximum displ.:     0.5939382 α      in ANC's #45, #77, #26, ...

........................................................................
.............................. CYCLE    3 ..............................
........................................................................

 iter      E             dE          RMSdq      gap      omega  full diag
   1   -393.2141502 -0.393214E+03  0.876E-02    0.03       0.0  T
   2   -393.0787745  0.135376E+00  0.520E-01    0.25       1.0  T
   3   -393.2150807 -0.136306E+00  0.462E-02    0.03       1.0  T
   4   -393.2105185  0.456219E-02  0.955E-02    0.03       1.0  T
   5   -393.2149064 -0.438788E-02  0.235E-02    0.03       1.0  T
   6   -393.2148385  0.678938E-04  0.226E-02    0.03       1.0  T
   7   -393.2150879 -0.249441E-03  0.492E-03    0.03       1.4  T
   8   -393.2150992 -0.113024E-04  0.125E-03    0.03       5.6  T
   9   -393.2150994 -0.148275E-06  0.969E-04    0.03       7.2  T
  10   -393.2150991  0.285685E-06  0.114E-03    0.03       6.1  T
  11   -393.2150997 -0.651553E-06  0.133E-04    0.03      52.4  T
     SCC iter.                  ...        0 min,  1.602 sec
     gradient                   ...        0 min,  0.357 sec
 * total energy  :  -385.7871987 Eh     change       -0.7843215E-02 Eh
   gradient norm :     0.0096512 Eh/α   predicted    -0.7653374E-02 (  -2.42%)
   displ. norm   :     0.4617826 α      lambda       -0.3690685E-02
   maximum displ.:     0.4461583 α      in ANC's #45, #26, #27, ...

........................................................................
.............................. CYCLE    4 ..............................
........................................................................

 iter      E             dE          RMSdq      gap      omega  full diag
   1   -393.3156883 -0.393316E+03  0.584E-02    0.03       0.0  T
   2   -393.2407174  0.749709E-01  0.383E-01    0.12       1.0  T
   3   -393.3148478 -0.741304E-01  0.549E-02    0.03       1.0  T
   4   -393.3152567 -0.408929E-03  0.353E-02    0.03       1.0  T
   5   -393.3158447 -0.587994E-03  0.896E-03    0.03       1.0  T
   6   -393.3158649 -0.202098E-04  0.399E-03    0.03       1.7  T
   7   -393.3158658 -0.864063E-06  0.313E-03    0.03       2.2  T
   8   -393.3158703 -0.454804E-05  0.958E-04    0.03       7.3  T
   9   -393.3158707 -0.379064E-06  0.349E-04    0.03      20.0  T
  10   -393.3158706  0.638898E-07  0.441E-04    0.03      15.8  T
     SCC iter.                  ...        0 min,  1.455 sec
     gradient                   ...        0 min,  0.346 sec
 * total energy  :  -385.7895491 Eh     change       -0.2350454E-02 Eh
   gradient norm :     0.0058893 Eh/α   predicted    -0.2239340E-02 (  -4.73%)
   displ. norm   :     0.1786696 α      lambda       -0.4685243E-03
   maximum displ.:     0.1676406 α      in ANC's #45, #26, #27, ...

........................................................................
.............................. CYCLE    5 ..............................
........................................................................

 iter      E             dE          RMSdq      gap      omega  full diag
   1   -393.3463690 -0.393346E+03  0.252E-02    0.03       0.0  T
   2   -393.3462359  0.133058E-03  0.227E-02    0.03       1.0  T
   3   -393.3041548  0.420811E-01  0.285E-01    0.05       1.0  T
   4   -393.3459832 -0.418284E-01  0.272E-02    0.03       1.0  T
   5   -393.3463625 -0.379219E-03  0.497E-03    0.03       1.4  T
   6   -393.3463667 -0.425791E-05  0.286E-03    0.03       2.4  T
   7   -393.3463709 -0.422506E-05  0.495E-04    0.03      14.1  T
   8   -393.3463709  0.235117E-07  0.426E-04    0.03      16.4  T
   9   -393.3463710 -0.625980E-07  0.223E-04    0.03      31.4  T
     SCC iter.                  ...        0 min,  1.308 sec
     gradient                   ...        0 min,  0.371 sec
 * total energy  :  -385.7898084 Eh     change       -0.2593237E-03 Eh
   gradient norm :     0.0027933 Eh/α   predicted    -0.2420544E-03 (  -6.66%)
   displ. norm   :     0.0254339 α      lambda       -0.2023840E-04
   maximum displ.:     0.0161541 α      in ANC's #26, #45, #27, ...

........................................................................
.............................. CYCLE    6 ..............................
........................................................................

 iter      E             dE          RMSdq      gap      omega  full diag
   1   -393.3470047 -0.393347E+03  0.544E-03    0.03       0.0  T
   2   -393.3457991  0.120562E-02  0.481E-02    0.03       1.0  T
   3   -393.3469738 -0.117469E-02  0.861E-03    0.03       1.0  T
   4   -393.3469787 -0.489996E-05  0.718E-03    0.03       1.0  T
   5   -393.3470059 -0.272040E-04  0.112E-03    0.03       6.2  T
   6   -393.3470061 -0.214029E-06  0.630E-04    0.03      11.1  T
   7   -393.3470063 -0.185924E-06  0.122E-04    0.03      57.3  T
     SCC iter.                  ...        0 min,  0.992 sec
     gradient                   ...        0 min,  0.367 sec
 * total energy  :  -385.7898217 Eh     change       -0.1325552E-04 Eh
   gradient norm :     0.0011813 Eh/α   predicted    -0.1013873E-04 ( -23.51%)
   displ. norm   :     0.0224632 α      lambda       -0.5058225E-05
   maximum displ.:     0.0179845 α      in ANC's #26, #27, #22, ...

........................................................................
.............................. CYCLE    7 ..............................
........................................................................

 iter      E             dE          RMSdq      gap      omega  full diag
   1   -393.3454204 -0.393345E+03  0.414E-03    0.03       0.0  T
   2   -393.3452261  0.194245E-03  0.194E-02    0.03       1.0  T
   3   -393.3453144 -0.883017E-04  0.146E-02    0.03       1.0  T
   4   -393.3454104 -0.959602E-04  0.455E-03    0.03       1.5  T
   5   -393.3454199 -0.957451E-05  0.139E-03    0.03       5.0  T
   6   -393.3454207 -0.741763E-06  0.258E-04    0.03      27.1  T
   7   -393.3454207 -0.173160E-07  0.103E-04    0.03      67.8  T
     SCC iter.                  ...        0 min,  1.027 sec
     gradient                   ...        0 min,  0.350 sec
 * total energy  :  -385.7898246 Eh     change       -0.2857427E-05 Eh
   gradient norm :     0.0005847 Eh/α   predicted    -0.2550613E-05 ( -10.74%)
   displ. norm   :     0.0041246 α      lambda       -0.5726865E-06
   maximum displ.:     0.0019901 α      in ANC's #45, #77, #27, ...

   *** GEOMETRY OPTIMIZATION CONVERGED AFTER 7 ITERATIONS ***

------------------------------------------------------------------------
 total energy gain   :        -0.0249328 Eh      -15.6456 kcal/mol
 total RMSD          :         0.1262395 a0        0.0668 Å
 total power (kW/mol):        -9.3515849 (step)   -5.3718 (real)
------------------------------------------------------------------------

 ANCopt (total)                0 d,  0 h,  0 min, 12.186 sec
 optimizer setup                ...        0 min,  0.003 sec (  0.025%)
 model hessian                  ...        0 min,  0.165 sec (  1.354%)
 ANC generation                 ...        0 min,  0.070 sec (  0.574%)
 coordinate transformation      ...        0 min,  0.001 sec (  0.008%)
 single point calculation       ...        0 min, 11.924 sec ( 97.850%)
 optimization log               ...        0 min,  0.017 sec (  0.140%)
 hessian update                 ...        0 min,  0.002 sec (  0.016%)
 rational function              ...        0 min,  0.003 sec (  0.025%)

================
 final structure:
================
205
 xtb: 6.7.1pre (5071a88)
C          -10.47320208938013       -7.80612977515012       -0.00162706051684
C           -9.88867317096925       -9.06254152239892       -0.00274735533845
C           -8.51863319179885       -9.20879637707952       -0.00297601798092
C           -7.67215353465029       -8.09186786092174       -0.00211422570353
N          -10.22047488127956       -5.42513770254799        0.00030415754716
C           -9.66640747776221       -6.67791581308748       -0.00079714241621
C           -8.26041235913871       -6.81188642766472       -0.00107700419624
C           -7.45129729420472       -5.63597051215432       -0.00037022787770
C          -10.10206312424953       -3.03396584887641        0.00176206109951
C           -9.49282502223531       -4.26000421026528        0.00086901904771
C           -8.06972319617278       -4.37315803181373        0.00046471800702
C           -7.29036682033832       -3.19959886907659        0.00087758359622
C           -9.94003535168569       -0.58235216079029        0.00267892790885
C           -9.34265940111813       -1.83733470510573        0.00205333742386
C           -7.91872089944183       -1.93654278283463        0.00152630439381
C           -7.13461743833952       -0.76576628302729        0.00159485023308
C           -9.78127312526193        1.86951257889907        0.00278413491787
C           -9.18432212947969        0.60243670020309        0.00254329282305
C           -7.75846562179786        0.49497504789456        0.00196263012531
C           -6.97037284495812        1.66335371897736        0.00168678043087
N           -9.62780855379268        4.23581050427878        0.00215699405053
C           -9.01731917985986        3.04518411640402        0.00225973096545
C           -7.58880127239060        2.92133427930423        0.00173175049399
C           -6.80648155932703        4.08897807748352        0.00118985062026
C           -9.52164937129793        6.59957789725033        0.00105055379151
C           -8.88882392243282        5.35295257873405        0.00143603046545
C           -7.45403068166496        5.33535403868615        0.00096045484364
C           -6.70041231656569        6.51951397243441        0.00020950895560
C           -9.43932212149741        9.04532934822788       -0.00043925907303
C           -8.79007188087692        7.79414231029916        0.00013696442675
C           -7.36291226026652        7.76903070539960       -0.00026936241036
C           -6.61807522193139        8.97161241300339       -0.00119366661214
C           -8.70872702949574       10.20698360980157       -0.00142009301465
C           -7.31850455301927       10.17756554261940       -0.00179228956418
C           -6.22990654233839       -8.18965612924585       -0.00214369392433
C           -5.57657223415691       -9.42776611926616       -0.00298652246646
C           -4.21106649021899       -9.51994895098134       -0.00264616476198
C           -3.39311567625052       -8.38133178020438       -0.00151603957876
C           -6.04726569396536       -5.73974207370753       -0.00056052488552
C           -5.43299633123859       -7.02294107368192       -0.00127343689303
C           -4.01515321405021       -7.11562222380248       -0.00107334205595
C           -3.21771294556947       -5.93371891588071       -0.00045508410492
C           -5.87575992575336       -3.30205171986619        0.00051909915080
C           -5.25608688686865       -4.56778565155254       -0.00002686159639
C           -3.83798656535081       -4.66560560802683       -0.00012947593201
C           -3.05205743626641       -3.49006514757183        0.00017570388837
C           -5.71522427618397       -0.86213981816078        0.00110813543499
C           -5.08937078062922       -2.12471792935380        0.00074747465425
C           -3.67637036378824       -2.21896301202593        0.00042808440260
C           -2.89276868735243       -1.04404691787522        0.00050832079366
C           -5.55389501527523        1.57637332820660        0.00118234475110
C           -4.92886725260492        0.31120972712517        0.00104715072966
C           -3.51673379667491        0.22281008688840        0.00064254399729
C           -2.73485613829906        1.40277462905874        0.00053550382758
C           -5.39635105051076        4.01306995881914        0.00076158395331
C           -4.77166334875162        2.74945189795342        0.00087093004984
C           -3.35862328974869        2.66639670649908        0.00050574221551
C           -2.58467830917233        3.85220621083871        0.00026198678445
C           -5.28130070821739        6.45078794560702       -0.00010080253666
C           -4.63420502693324        5.19993707151379        0.00025686668595
C           -3.21590393031280        5.11807769403349        0.00004512796196
C           -2.44729694707971        6.29908358685932       -0.00030554009036
C           -5.17009744935641        8.90106543287338       -0.00141445466960
C           -4.51639577699266        7.64639929113673       -0.00077154720973
C           -3.09638755580435        7.56674715504964       -0.00078052572623
C           -2.32442104804682        8.74815846377258       -0.00128364442474
C           -4.37062050109751       10.04771912359175       -0.00223390005873
C           -3.00076289062802        9.97415117192734       -0.00214552253201
C           -1.95722012999709       -8.47260752760398       -0.00078466186214
C           -1.29836605966529       -9.70860993366508       -0.00052401703385
C            0.06602805149090       -9.79437243473503        0.00033619769717
C            0.87499149656001       -8.65093655656659        0.00087352189945
C           -1.80444264115401       -6.02427070525416       -0.00026293992498
C           -1.17237263622897       -7.29884293876016       -0.00023428967028
C            0.24559148196128       -7.38782671720852        0.00037577546199
C            1.03491568156667       -6.20348209874611        0.00041797205966
C           -1.63954593130682       -3.58185272514992        0.00008530455216
C           -1.01643961499966       -4.85036739083754        0.00003265503222
C            0.40400233868988       -4.94016341379805        0.00014657957025
C            1.18527423939470       -3.76040766759266        0.00007466221138
C           -1.47831124445184       -1.13409598712044        0.00024033044488
C           -0.85502479023886       -2.40055253088393        0.00018000915799
C            0.55793504016947       -2.48956523518669        0.00000733501451
C            1.33693477276707       -1.31105884918641       -0.00006606684905
C           -1.32169050570496        1.31642454507042        0.00024920739854
C           -0.69768565789832        0.04662129702523        0.00022581290749
C            0.71242509480588       -0.04146045657108       -0.00003414381304
C            1.49047847558195        1.14151547183693       -0.00008094016287
C           -1.17339367311801        3.76707554549553        0.00010701603467
C           -0.54572868529857        2.49665998071495        0.00017821581722
C            0.86710689522993        2.40856448027145       -0.00001893815663
C            1.64686590348931        3.59268941833464        0.00000315768769
C           -1.03242791217969        6.21290714422208       -0.00024830121845
C           -0.39866797028771        4.95074285666841        0.00000756273666
C            1.02105159621330        4.86243297844103        0.00004550064083
C            1.80251613466032        6.03812625807397        0.00019816944853
C           -0.88597231741659        8.66187971944782       -0.00085814560214
C           -0.24994524012727        7.40014620351012       -0.00034400277793
C            1.16793044430916        7.31199355986436        0.00009175815316
C            1.95005736509195        8.48742763083495        0.00035934649456
C           -0.07836111954213        9.80509285034474       -0.00087230928427
C            1.28773210771875        9.72079992208818       -0.00023486465782
C            2.31097060485759       -8.74036090317080        0.00172810675935
C            2.97499209824349       -9.97277506067244        0.00314601302393
C            4.34198624961381      -10.05457144503809        0.00338644415544
C            5.14614447786816       -8.91131731660501        0.00217422602095
C            2.44973710932991       -6.29125532465743        0.00054533032905
C            3.08955594995518       -7.56308950723946        0.00116561641862
C            4.50824742361308       -7.64962655143563        0.00127816194632
C            5.28373424625487       -6.45851004890114        0.00047503041496
C            2.59813423343977       -3.84766785984261       -0.00006493578278
C            3.22804435390223       -5.11375498662324        0.00017479405835
C            4.64894115123118       -5.19957343580034        0.00000068334443
C            5.42401984323364       -4.01659459396330       -0.00059084337244
C            2.75133292642379       -1.39958701494316       -0.00036572829991
C            3.37795684021203       -2.66414085744122       -0.00034727243265
C            4.79294068403636       -2.75011532180230       -0.00072670929546
C            5.56995189044517       -1.57215918066374       -0.00112419215000
C            2.90418679845214        1.05194977192939       -0.00038680279975
C            3.52976736493750       -0.21765843946315       -0.00053501039418
C            4.94084137481255       -0.30663966202213       -0.00098281236353
C            5.71927482385447        0.87375331426895       -0.00114741405895
C            3.05802411898397        3.50292814820107       -0.00015662056058
C            3.68172301025775        2.22984466468458       -0.00040125970239
C            5.09444134426667        2.13695011212260       -0.00078619276140
C            5.87665651484632        3.31759954824767       -0.00069133598329
C            3.21746149333811        5.94866007553851        0.00028958217246
C            3.83957864338365        4.68258224097658        0.00001632973466
C            5.25867505302232        4.59116509225064       -0.00015136940629
C            6.04672579190874        5.75757337722665        0.00026719146841
C            3.38723528472557        8.39660550911824        0.00108849885669
C            4.01195767660985        7.13036322086425        0.00075394348564
C            5.43003724750201        7.03819658073303        0.00092285570471
C            6.22517061044185        8.20736585533265        0.00169690075114
C            4.20288698690505        9.53368314498137        0.00215840762675
C            5.57055504019811        9.44192369607415        0.00248675684858
C            6.58961052295877       -8.99760950230419        0.00185883508650
C            7.27053562302755      -10.21546554604703        0.00245243404736
C            8.65872019129260      -10.27427784057739        0.00200612885054
C            9.40494247727040       -9.12380605706844        0.00093176517473
C            6.70203242494376       -6.53897452225222        0.00018201473019
C            7.34544130932656       -7.80284400461008        0.00077187991349
C            8.76990523529311       -7.86615457934744        0.00029418566703
C            9.51456258451777       -6.68437925763910       -0.00078817188466
C            6.83934380010608       -4.09789499356354       -0.00104227381916
C            7.47060154108674       -5.35915303061625       -0.00072715971819
C            8.90057633286889       -5.43145172142736       -0.00126649516193
C            9.65051129767257       -4.25009370530949       -0.00218815525666
C            6.98827416467893       -1.65811894375147       -0.00168314216343
C            7.61518869084563       -2.91671466377896       -0.00171854986781
C            9.04302921510836       -2.99373113786012       -0.00234811546023
C            9.79565329296782       -1.81082277287496       -0.00296217154575
C            7.13629463894175        0.78094752545865       -0.00169557847782
C            7.76718113767741       -0.47986498891599       -0.00206375071244
C            9.19121680367410       -0.55885570703315       -0.00272052637200
C            9.94582876218778        0.63710744551958       -0.00293656027418
C            7.28243726918680        3.22167767397830       -0.00112952835906
C            7.90915721475080        1.95584672267974       -0.00174610275676
C            9.32995780112060        1.86308075783472       -0.00234297346456
N           10.05036257880520        3.03010025057026       -0.00226162806308
C            7.46401832433634        5.66051743587143        0.00001832669846
C            8.07198818076269        4.39393769831604       -0.00083231720102
C            9.49165084424693        4.28507751368309       -0.00129556424248
C           10.26825780179134        5.41378757415258       -0.00075842153922
C            7.66979090211843        8.11084867977562        0.00163907257139
C            8.26796980224809        6.82820824639184        0.00063225517810
C            9.68213992934600        6.69879294467671        0.00030311525125
C           10.47309202905536        7.85619609363605        0.00108010739754
C            8.50262216590584        9.22806694771026        0.00244864010997
C            9.88376975007211        9.09793191970511        0.00218488359299
H          -11.54815390998350       -7.69829413956571       -0.00141884780323
H          -10.51956249971248       -9.93908605040589       -0.00343718600682
H           -8.11063164083224      -10.20553355528523       -0.00384206853016
H          -11.22784086521292       -5.35275417652096        0.00051562650160
H          -11.18071165463197       -2.96542756928677        0.00212763887850
H          -11.01840725201417       -0.51080957043679        0.00314415996176
H          -10.85678407067072        1.95857347950693        0.00324342301813
H          -10.60034786570923        6.62967626853287        0.00138960347979
H          -10.51895383678157        9.07191910452808       -0.00012665552796
H           -6.14852998149085      -10.34121077867065       -0.00387334069485
H           -3.77346466940284      -10.50453305140445       -0.00332113331257
H           -1.86173673543816      -10.62691340413686       -0.00092156254518
H            0.50918243822099      -10.77632075225692        0.00046133692709
H            2.41638944265236      -10.89398436956351        0.00415869131383
H            4.78976355167019      -11.03481881706064        0.00451538977052
H            6.72821375385506      -11.14661315389058        0.00324562593703
H            9.14664270231269      -11.23822985006375        0.00249734652919
H           10.48431901435929       -9.16280996652760        0.00056704877917
H           10.59382940484796       -6.74260930187443       -0.00119155622277
H           10.72940774683602       -4.31484482631979       -0.00266196475740
H           10.87425654288538       -1.87935329839263       -0.00348759689750
H           11.02468711614164        0.57225591673519       -0.00343549460162
H           11.05809417680118        2.96396666103669       -0.00260214249465
H           11.34610941184719        5.33189162938875       -0.00107692020283
H           11.54885904368425        7.75745933219573        0.00083568067988
H           10.49838986778071        9.98665360225881        0.00284031422106
H           -9.21374337454234       11.16234948120665       -0.00190252320298
H           -6.79281322529476       11.11862477819760       -0.00255786647795
H           -4.82455937424221       11.02554127794664       -0.00291997215840
H           -2.44882820068614       10.89984956939295       -0.00278527103323
H           -0.52354389827610       10.78636334757140       -0.00132970102920
H            1.84903738676751       10.64052171943302       -0.00030111797951
H            3.76533462766420       10.51837134652844        0.00281934578773
H            6.13919267413487       10.35745774331579        0.00332396620871
H            8.08885324524490       10.22310241560436        0.00330497509429
 
 Bond Distances (Angstroems)
 ---------------------------
C1-C2=1.3857         C1-C6=1.3870         C1-H171=1.0803       C2-C1=1.3857         C2-C3=1.3778         C2-H172=1.0800       
C3-C2=1.3778         C3-C4=1.4014         C3-H173=1.0770       C4-C3=1.4014         C4-C7=1.4087         C4-C35=1.4456        
N5-C6=1.3698         N5-C10=1.3737        N5-H174=1.0100       C6-C1=1.3870         C6-N5=1.3698         C6-C7=1.4124         
C7-C4=1.4087         C7-C6=1.4124         C7-C8=1.4274         C8-C7=1.4274         C8-C11=1.4061        C8-C39=1.4079        
C9-C10=1.3691        C9-C14=1.4173        C9-H175=1.0808       C10-N5=1.3737        C10-C9=1.3691        C10-C11=1.4276       
C11-C8=1.4061        C11-C10=1.4276       C11-C12=1.4088       C12-C11=1.4088       C12-C15=1.4107       C12-C43=1.4183       
C13-C14=1.3899       C13-C18=1.4053       C13-H176=1.0807      C14-C9=1.4173        C14-C13=1.3899       C14-C15=1.4274       
C15-C12=1.4107       C15-C14=1.4274       C15-C16=1.4091       C16-C15=1.4091       C16-C19=1.4066       C16-C47=1.4227       
C17-C18=1.4007       C17-C22=1.4021       C17-H177=1.0792      C18-C13=1.4053       C18-C17=1.4007       C18-C19=1.4299       
C19-C16=1.4066       C19-C18=1.4299       C19-C20=1.4093       C20-C19=1.4093       C20-C23=1.4018       C20-C51=1.4191       
N21-C22=1.3380       N21-C26=1.3394       C22-C17=1.4021       C22-N21=1.3380       C22-C23=1.4339       C23-C20=1.4018       
C23-C22=1.4339       C23-C24=1.4055       C24-C23=1.4055       C24-C27=1.4046       C24-C55=1.4122       C25-C26=1.3980       
C25-C30=1.4008       C25-H178=1.0791      C26-N21=1.3394       C26-C25=1.3980       C26-C27=1.4349       C27-C24=1.4046       
C27-C26=1.4349       C27-C28=1.4036       C28-C27=1.4036       C28-C31=1.4143       C28-C59=1.4208       C29-C30=1.4096       
C29-C33=1.3723       C29-H179=1.0800      C30-C25=1.4008       C30-C29=1.4096       C30-C31=1.4274       C31-C28=1.4143       
C31-C30=1.4274       C31-C32=1.4146       C32-C31=1.4146       C32-C34=1.3946       C32-C63=1.4497       C33-C29=1.3723       
C33-C34=1.3905       C33-H197=1.0806      C34-C32=1.3946       C34-C33=1.3905       C34-H198=1.0779      C35-C4=1.4456        
C35-C36=1.3999       C35-C40=1.4129       C36-C35=1.3999       C36-C37=1.3686       C36-H180=1.0777      C37-C36=1.3686       
C37-C38=1.4020       C37-H181=1.0775      C38-C37=1.4020       C38-C41=1.4103       C38-C69=1.4388       C39-C8=1.4079        
C39-C40=1.4226       C39-C44=1.4140       C40-C35=1.4129       C40-C39=1.4226       C40-C41=1.4209       C41-C38=1.4103       
C41-C40=1.4209       C41-C42=1.4258       C42-C41=1.4258       C42-C45=1.4117       C42-C73=1.4162       C43-C12=1.4183       
C43-C44=1.4093       C43-C48=1.4158       C44-C39=1.4140       C44-C43=1.4093       C44-C45=1.4215       C45-C42=1.4117       
C45-C44=1.4215       C45-C46=1.4141       C46-C45=1.4141       C46-C49=1.4161       C46-C77=1.4155       C47-C16=1.4227       
C47-C48=1.4092       C47-C52=1.4125       C48-C43=1.4158       C48-C47=1.4092       C48-C49=1.4161       C49-C46=1.4161       
C49-C48=1.4161       C49-C50=1.4123       C50-C49=1.4123       C50-C53=1.4122       C50-C81=1.4173       C51-C20=1.4191       
C51-C52=1.4111       C51-C56=1.4100       C52-C47=1.4125       C52-C51=1.4111       C52-C53=1.4149       C53-C50=1.4122       
C53-C52=1.4149       C53-C54=1.4155       C54-C53=1.4155       C54-C57=1.4092       C54-C85=1.4158       C55-C24=1.4122       
C55-C56=1.4096       C55-C60=1.4105       C56-C51=1.4100       C56-C55=1.4096       C56-C57=1.4155       C57-C54=1.4092       
C57-C56=1.4155       C57-C58=1.4160       C58-C57=1.4160       C58-C61=1.4145       C58-C89=1.4139       C59-C28=1.4208       
C59-C60=1.4083       C59-C64=1.4194       C60-C55=1.4105       C60-C59=1.4083       C60-C61=1.4207       C61-C58=1.4145       
C61-C60=1.4207       C61-C62=1.4091       C62-C61=1.4091       C62-C65=1.4242       C62-C93=1.4175       C63-C32=1.4497       
C63-C64=1.4147       C63-C67=1.3978       C64-C59=1.4194       C64-C63=1.4147       C64-C65=1.4222       C65-C62=1.4242       
C65-C64=1.4222       C65-C66=1.4113       C66-C65=1.4113       C66-C68=1.4002       C66-C97=1.4410       C67-C63=1.3978       
C67-C68=1.3718       C67-H199=1.0781      C68-C66=1.4002       C68-C67=1.3718       C68-H200=1.0778      C69-C38=1.4388       
C69-C70=1.4006       C69-C74=1.4120       C70-C69=1.4006       C70-C71=1.3671       C70-H182=1.0773      C71-C70=1.3671       
C71-C72=1.4007       C71-H183=1.0773      C72-C71=1.4007       C72-C75=1.4112       C72-C103=1.4388      C73-C42=1.4162       
C73-C74=1.4227       C73-C78=1.4139       C74-C69=1.4120       C74-C73=1.4227       C74-C75=1.4208       C75-C72=1.4112       
C75-C74=1.4208       C75-C76=1.4233       C76-C75=1.4233       C76-C79=1.4121       C76-C107=1.4175      C77-C46=1.4155       
C77-C78=1.4133       C77-C82=1.4181       C78-C73=1.4139       C78-C77=1.4133       C78-C79=1.4233       C79-C76=1.4121       
C79-C78=1.4233       C79-C80=1.4150       C80-C79=1.4150       C80-C83=1.4172       C80-C111=1.4156      C81-C50=1.4173       
C81-C82=1.4115       C81-C86=1.4154       C82-C77=1.4181       C82-C81=1.4115       C82-C83=1.4158       C83-C80=1.4172       
C83-C82=1.4158       C83-C84=1.4127       C84-C83=1.4127       C84-C87=1.4149       C84-C115=1.4172      C85-C54=1.4158       
C85-C86=1.4148       C85-C90=1.4125       C86-C81=1.4154       C86-C85=1.4148       C86-C87=1.4129       C87-C84=1.4149       
C87-C86=1.4129       C87-C88=1.4159       C88-C87=1.4159       C88-C91=1.4121       C88-C119=1.4165      C89-C58=1.4139       
C89-C90=1.4170       C89-C94=1.4147       C90-C85=1.4125       C90-C89=1.4170       C90-C91=1.4156       C91-C88=1.4121       
C91-C90=1.4156       C91-C92=1.4178       C92-C91=1.4178       C92-C95=1.4156       C92-C123=1.4140      C93-C62=1.4175       
C93-C94=1.4123       C93-C98=1.4219       C94-C89=1.4147       C94-C93=1.4123       C94-C95=1.4225       C95-C92=1.4156       
C95-C94=1.4225       C95-C96=1.4117       C96-C95=1.4117       C96-C99=1.4232       C96-C127=1.4178      C97-C66=1.4410       
C97-C98=1.4130       C97-C101=1.3997      C98-C93=1.4219       C98-C97=1.4130       C98-C99=1.4206       C99-C96=1.4232       
C99-C98=1.4206       C99-C100=1.4119      C100-C99=1.4119      C100-C102=1.4000     C100-C131=1.4400     C101-C97=1.3997      
C101-C102=1.3687     C101-H201=1.0775     C102-C100=1.4000     C102-C101=1.3687     C102-H202=1.0775     C103-C72=1.4388      
C103-C104=1.3999     C103-C108=1.4114     C104-C103=1.3999     C104-C105=1.3694     C104-H184=1.0773     C105-C104=1.3694     
C105-C106=1.3977     C105-H185=1.0777     C106-C105=1.3977     C106-C109=1.4138     C106-C137=1.4460     C107-C76=1.4175      
C107-C108=1.4237     C107-C112=1.4115     C108-C103=1.4114     C108-C107=1.4237     C108-C109=1.4213     C109-C106=1.4138     
C109-C108=1.4213     C109-C110=1.4213     C110-C109=1.4213     C110-C113=1.4099     C110-C141=1.4206     C111-C80=1.4156      
C111-C112=1.4141     C111-C116=1.4173     C112-C107=1.4115     C112-C111=1.4141     C112-C113=1.4235     C113-C110=1.4099     
C113-C112=1.4235     C113-C114=1.4143     C114-C113=1.4143     C114-C117=1.4150     C114-C145=1.4177     C115-C84=1.4172      
C115-C116=1.4113     C115-C120=1.4152     C116-C111=1.4173     C116-C115=1.4113     C116-C117=1.4176     C117-C114=1.4150     
C117-C116=1.4176     C117-C118=1.4111     C118-C117=1.4111     C118-C121=1.4133     C118-C149=1.4209     C119-C88=1.4165      
C119-C120=1.4154     C119-C124=1.4114     C120-C115=1.4152     C120-C119=1.4154     C120-C121=1.4139     C121-C118=1.4133     
C121-C120=1.4139     C121-C122=1.4140     C122-C121=1.4140     C122-C125=1.4093     C122-C153=1.4201     C123-C92=1.4140      
C123-C124=1.4177     C123-C128=1.4151     C124-C119=1.4114     C124-C123=1.4177     C124-C125=1.4158     C125-C122=1.4093     
C125-C124=1.4158     C125-C126=1.4163     C126-C125=1.4163     C126-C129=1.4156     C126-C157=1.4090     C127-C96=1.4178      
C127-C128=1.4107     C127-C132=1.4240     C128-C123=1.4151     C128-C127=1.4107     C128-C129=1.4220     C129-C126=1.4156     
C129-C128=1.4220     C129-C130=1.4077     C130-C129=1.4077     C130-C133=1.4214     C130-C161=1.4206     C131-C100=1.4400     
C131-C132=1.4120     C131-C135=1.3994     C132-C127=1.4240     C132-C131=1.4120     C132-C133=1.4211     C133-C130=1.4214     
C133-C132=1.4211     C133-C134=1.4139     C134-C133=1.4139     C134-C136=1.3974     C134-C165=1.4478     C135-C131=1.3994     
C135-C136=1.3707     C135-H203=1.0775     C136-C134=1.3974     C136-C135=1.3707     C136-H204=1.0778     C137-C106=1.4460     
C137-C138=1.3953     C137-C142=1.4138     C138-C137=1.3953     C138-C139=1.3894     C138-H186=1.0776     C139-C138=1.3894     
C139-C140=1.3713     C139-H187=1.0804     C140-C139=1.3713     C140-C143=1.4089     C140-H188=1.0801     C141-C110=1.4206     
C141-C142=1.4182     C141-C146=1.4081     C142-C137=1.4138     C142-C141=1.4182     C142-C143=1.4259     C143-C140=1.4089     
C143-C142=1.4259     C143-C144=1.3968     C144-C143=1.3968     C144-C147=1.3953     C144-H189=1.0808     C145-C114=1.4177     
C145-C146=1.4104     C145-C150=1.4132     C146-C141=1.4081     C146-C145=1.4104     C146-C147=1.4318     C147-C144=1.3953     
C147-C146=1.4318     C147-C148=1.3993     C148-C147=1.3993     C148-C151=1.3955     C148-H190=1.0808     C149-C118=1.4209     
C149-C150=1.4061     C149-C154=1.4124     C150-C145=1.4132     C150-C149=1.4061     C150-C151=1.4299     C151-C148=1.3955     
C151-C150=1.4299     C151-C152=1.4020     C152-C151=1.4020     C152-C155=1.3902     C152-H191=1.0808     C153-C122=1.4201     
C153-C154=1.4098     C153-C158=1.4063     C154-C149=1.4124     C154-C153=1.4098     C154-C155=1.4262     C155-C152=1.3902     
C155-C154=1.4262     C155-C156=1.4141     C156-C155=1.4141     C156-C159=1.3720     C156-H192=1.0808     C157-C126=1.4090     
C157-C158=1.4125     C157-C162=1.4134     C158-C153=1.4063     C158-C157=1.4125     C158-C159=1.4238     C159-C156=1.3720     
C159-C158=1.4238     C159-N160=1.3715     N160-C159=1.3715     N160-C163=1.3737     N160-H193=1.0099     C161-C130=1.4206     
C161-C162=1.4049     C161-C166=1.4177     C162-C157=1.4134     C162-C161=1.4049     C162-C163=1.4238     C163-N160=1.3737     
C163-C162=1.4238     C163-C164=1.3701     C164-C163=1.3701     C164-C167=1.4124     C164-H194=1.0810     C165-C134=1.4478     
C165-C166=1.4153     C165-C169=1.3935     C166-C161=1.4177     C166-C165=1.4153     C166-C167=1.4201     C167-C164=1.4124     
C167-C166=1.4201     C167-C168=1.4019     C168-C167=1.4019     C168-C170=1.3745     C168-H195=1.0803     C169-C165=1.3935     
C169-C170=1.3873     C169-H205=1.0776     C170-C168=1.3745     C170-C169=1.3873     C170-H196=1.0805     H171-C1=1.0803       
H172-C2=1.0800       H173-C3=1.0770       H174-N5=1.0100       H175-C9=1.0808       H176-C13=1.0807      H177-C17=1.0792      
H178-C25=1.0791      H179-C29=1.0800      H180-C36=1.0777      H181-C37=1.0775      H182-C70=1.0773      H183-C71=1.0773      
H184-C104=1.0773     H185-C105=1.0777     H186-C138=1.0776     H187-C139=1.0804     H188-C140=1.0801     H189-C144=1.0808     
H190-C148=1.0808     H191-C152=1.0808     H192-C156=1.0808     H193-N160=1.0099     H194-C164=1.0810     H195-C168=1.0803     
H196-C170=1.0805     H197-C33=1.0806      H198-C34=1.0779      H199-C67=1.0781      H200-C68=1.0778      H201-C101=1.0775     
H202-C102=1.0775     H203-C135=1.0775     H204-C136=1.0778     H205-C169=1.0776     
 C  H  Rav=1.0790 sigma=0.0015  Rmin=1.0770  Rmax=1.0810    33
 C  C  Rav=1.4113 sigma=0.0142  Rmin=1.3671  Rmax=1.4497   231
 N  H  Rav=1.0099 sigma=0.0000  Rmin=1.0099  Rmax=1.0100     2
 N  C  Rav=1.3610 sigma=0.0158  Rmin=1.3380  Rmax=1.3737     6
 
 selected bond angles (degree)
 --------------------
C6-C1-C2=119.48                H171-C1-C2=120.68              H171-C1-C6=119.84              C3-C2-C1=121.04                
H172-C2-C1=119.31              H172-C2-C3=119.65              C4-C3-C2=121.06                H173-C3-C2=118.35              
H173-C3-C4=120.58              C7-C4-C3=118.16                C35-C4-C3=123.28               C35-C4-C7=118.56               
C10-N5-C6=124.16               H174-N5-C6=117.97              H174-N5-C10=117.88             N5-C6-C1=120.57                
C7-C6-C1=120.13                C7-C6-N5=119.30                C6-C7-C4=120.13                C8-C7-C4=120.79                
C8-C7-C6=119.09                C11-C8-C7=119.38               C39-C8-C7=120.30               C39-C8-C11=120.32              
C14-C9-C10=121.18              H175-C9-C10=120.06             H175-C9-C14=118.76             C9-C10-N5=121.59               
C11-C10-N5=117.44              C11-C10-C9=120.97              
 
 selected dihedral angles (degree)
 ---------------------------------
C3-C2-C1-C6=  0.00            C3-C2-C1-H171=180.00          H172-C2-C1-C6=180.00          H172-C2-C1-H171=  0.00        
C4-C3-C2-C1=  0.00            C4-C3-C2-H172=180.00          H173-C3-C2-C1=180.00          H173-C3-C2-H172=  0.00        
C7-C4-C3-C2=  0.00            C7-C4-C3-H173=180.00          C35-C4-C3-C2=179.99           C35-C4-C3-H173=  0.00         
N5-C6-C1-C2=180.00            N5-C6-C1-H171=  0.00          C7-C6-C1-C2=  0.00            C7-C6-C1-H171=180.00          
C1-C6-N5-C10=180.02           C1-C6-N5-H174=  0.00          C7-C6-N5-C10=  0.00           C7-C6-N5-H174=180.00          
C6-C7-C4-C3=  0.00            C6-C7-C4-C35=180.01           C8-C7-C4-C3=180.01            C8-C7-C4-C35=  0.00           
C4-C7-C6-C1=  0.00            C4-C7-C6-N5=180.00            C8-C7-C6-C1=179.99            C8-C7-C6-N5=  0.00            
C11-C8-C7-C4=179.99           C11-C8-C7-C6=  0.00           C39-C8-C7-C4=  0.00           C39-C8-C7-C6=180.00           
C9-C10-N5-C6=179.99           C9-C10-N5-H174=  0.00         C11-C10-N5-C6=  0.00          C11-C10-N5-H174=180.00        
N5-C10-C9-C14=180.01          N5-C10-C9-H175=  0.00         C11-C10-C9-C14=  0.00         C11-C10-C9-H175=180.00        
           -------------------------------------------------
          |                Final Singlepoint                |
           -------------------------------------------------

          ...................................................
          :                      SETUP                      :
          :.................................................:
          :  # basis functions                 715          :
          :  # atomic orbitals                 715          :
          :  # shells                          375          :
          :  # electrons                       718          :
          :  max. iterations                   250          :
          :  Hamiltonian                  GFN2-xTB          :
          :  restarted?                      false          :
          :  GBSA solvation                  false          :
          :  PC potential                    false          :
          :  electronic temp.          300.0000000     K    :
          :  accuracy                    1.0000000          :
          :  -> integral cutoff          0.2500000E+02      :
          :  -> integral neglect         0.1000000E-07      :
          :  -> SCF convergence          0.1000000E-05 Eh   :
          :  -> wf. convergence          0.1000000E-03 e    :
          :  Broyden damping             0.4000000          :
          :  net charge                          0          :
          :  unpaired electrons                  0          :
          ...................................................

 iter      E             dE          RMSdq      gap      omega  full diag
   1   -393.3454207 -0.393345E+03  0.119E-04    0.03       0.0  T
   2   -393.3454154  0.532618E-05  0.320E-03    0.03       2.2  T
   3   -393.3454207 -0.533061E-05  0.742E-05    0.03      94.1  T
   4   -393.3454207 -0.763919E-09  0.553E-05    0.03     126.4  T
   5   -393.3454207 -0.131701E-08  0.186E-05    0.03     375.4  T

   *** convergence criteria satisfied after 5 iterations ***

         #    Occupation            Energy/Eh            Energy/eV
      -------------------------------------------------------------
         1        2.0000           -0.6795469             -18.4914
       ...           ...                  ...                  ...
       353        2.0000           -0.3616014              -9.8397
       354        2.0000           -0.3586380              -9.7590
       355        2.0000           -0.3477160              -9.4618
       356        2.0000           -0.3472151              -9.4482
       357        2.0000           -0.3455703              -9.4034
       358        1.9995           -0.3351216              -9.1191
       359        1.2795           -0.3277161              -8.9176 (HOMO)
       360        0.7209           -0.3266258              -8.8879 (LUMO)
       361                         -0.3102850              -8.4433
       362                         -0.2896130              -7.8808
       363                         -0.2863179              -7.7911
       364                         -0.2833516              -7.7104
       ...                                ...                  ...
       715                          0.7952088              21.6387
      -------------------------------------------------------------
                  HL-Gap            0.0010903 Eh            0.0297 eV
             Fermi-level           -0.3271705 Eh           -8.9028 eV

 SCC (total)                   0 d,  0 h,  0 min,  1.160 sec
 SCC setup                      ...        0 min,  0.003 sec (  0.259%)
 Dispersion                     ...        0 min,  0.009 sec (  0.776%)
 classical contributions        ...        0 min,  0.001 sec (  0.086%)
 integral evaluation            ...        0 min,  0.069 sec (  5.948%)
 iterations                     ...        0 min,  0.714 sec ( 61.552%)
 molecular gradient             ...        0 min,  0.351 sec ( 30.259%)
 printout                       ...        0 min,  0.013 sec (  1.121%)

         :::::::::::::::::::::::::::::::::::::::::::::::::::::
         ::                     SUMMARY                     ::
         :::::::::::::::::::::::::::::::::::::::::::::::::::::
         :: total energy            -385.789824562243 Eh    ::
         :: gradient norm              0.000585055383 Eh/a0 ::
         :: HOMO-LUMO gap              0.029668634156 eV    ::
         ::.................................................::
         :: SCC energy              -393.362725362683 Eh    ::
         :: -> isotropic ES            0.021283122079 Eh    ::
         :: -> anisotropic ES          0.019931839099 Eh    ::
         :: -> anisotropic XC          0.133087173820 Eh    ::
         :: -> dispersion             -0.495564636652 Eh    ::
         :: repulsion energy           7.572900800440 Eh    ::
         :: add. restraining           0.000000000000 Eh    ::
         :: total charge               0.000000000066 e     ::
         :::::::::::::::::::::::::::::::::::::::::::::::::::::

           -------------------------------------------------
          |                Property Printout                |
           -------------------------------------------------

    * Orbital Energies and Occupations

         #    Occupation            Energy/Eh            Energy/eV
      -------------------------------------------------------------
         1        2.0000           -0.6795469             -18.4914
       ...           ...                  ...                  ...
       347        2.0000           -0.3813135             -10.3761
       348        2.0000           -0.3806433             -10.3578
       349        2.0000           -0.3795616             -10.3284
       350        2.0000           -0.3776185             -10.2755
       351        2.0000           -0.3753173             -10.2129
       352        2.0000           -0.3658608              -9.9556
       353        2.0000           -0.3616014              -9.8397
       354        2.0000           -0.3586380              -9.7590
       355        2.0000           -0.3477160              -9.4618
       356        2.0000           -0.3472151              -9.4482
       357        2.0000           -0.3455703              -9.4034
       358        1.9995           -0.3351216              -9.1191
       359        1.2795           -0.3277161              -8.9176 (HOMO)
       360        0.7209           -0.3266258              -8.8879 (LUMO)
       361                         -0.3102850              -8.4433
       362                         -0.2896130              -7.8808
       363                         -0.2863179              -7.7911
       364                         -0.2833516              -7.7104
       365                         -0.2698609              -7.3433
       366                         -0.2682797              -7.3003
       367                         -0.2657266              -7.2308
       368                         -0.2612046              -7.1077
       369                         -0.2573312              -7.0023
       370                         -0.2561954              -6.9714
       ...                                ...                  ...
       715                          0.7952088              21.6387
      -------------------------------------------------------------
                  HL-Gap            0.0010903 Eh            0.0297 eV
             Fermi-level           -0.3271705 Eh           -8.9028 eV

     #   Z          covCN         q      C6AA      α(0)
     1   6 C        2.920    -0.065    29.628     8.926
     2   6 C        2.917    -0.029    28.714     8.787
     3   6 C        2.920    -0.049    29.208     8.863
     4   6 C        2.978     0.006    27.875     8.660
     5   7 N        2.706    -0.122    23.663     7.225
     6   6 C        2.917     0.068    26.475     8.438
     7   6 C        2.996    -0.009    28.227     8.715
     8   6 C        2.989     0.004    27.929     8.669
     9   6 C        2.920    -0.082    30.054     8.990
    10   6 C        2.909     0.065    26.554     8.450
    11   6 C        2.994    -0.005    28.136     8.701
    12   6 C        2.992    -0.000    28.022     8.683
    13   6 C        2.922    -0.049    29.206     8.862
    14   6 C        2.975     0.013    27.708     8.634
    15   6 C        2.995    -0.004    28.101     8.696
    16   6 C        2.990     0.002    27.979     8.677
    17   6 C        2.923    -0.049    29.224     8.865
    18   6 C        2.972     0.013    27.730     8.638
    19   6 C        2.996    -0.004    28.105     8.696
    20   6 C        2.992    -0.001    28.045     8.687
    21   7 N        1.847    -0.268    27.801     7.814
    22   6 C        2.942     0.093    25.936     8.353
    23   6 C        2.997    -0.013    28.330     8.731
    24   6 C        3.001     0.008    27.832     8.654
    25   6 C        2.925    -0.048    29.198     8.861
    26   6 C        2.943     0.092    25.949     8.355
    27   6 C        2.997    -0.013    28.318     8.729
    28   6 C        2.988    -0.001    28.050     8.688
    29   6 C        2.921    -0.035    28.861     8.810
    30   6 C        2.978     0.013    27.720     8.636
    31   6 C        2.996     0.001    28.003     8.680
    32   6 C        2.974     0.006    27.874     8.660
    33   6 C        2.911    -0.030    28.750     8.792
    34   6 C        2.921    -0.035    28.874     8.812
    35   6 C        2.979     0.003    27.944     8.671
    36   6 C        2.919    -0.036    28.906     8.817
    37   6 C        2.919    -0.038    28.939     8.822
    38   6 C        2.980     0.005    27.917     8.667
    39   6 C        2.989    -0.004    28.127     8.700
    40   6 C        2.990     0.002    27.978     8.677
    41   6 C        2.990     0.001    27.994     8.679
    42   6 C        2.985    -0.000    28.026     8.684
    43   6 C        2.991    -0.002    28.063     8.690
    44   6 C        2.989    -0.000    28.021     8.683
    45   6 C        2.988    -0.000    28.026     8.684
    46   6 C        2.989    -0.000    28.031     8.685
    47   6 C        2.991     0.000    28.016     8.683
    48   6 C        2.991    -0.001    28.032     8.685
    49   6 C        2.990    -0.001    28.040     8.686
    50   6 C        2.990    -0.001    28.032     8.685
    51   6 C        2.993    -0.000    28.028     8.684
    52   6 C        2.992    -0.000    28.024     8.684
    53   6 C        2.991    -0.001    28.044     8.687
    54   6 C        2.991    -0.001    28.041     8.686
    55   6 C        2.995    -0.004    28.115     8.698
    56   6 C        2.993    -0.000    28.022     8.683
    57   6 C        2.991    -0.000    28.021     8.683
    58   6 C        2.990    -0.000    28.025     8.684
    59   6 C        2.989     0.000    28.019     8.683
    60   6 C        2.991    -0.001    28.033     8.685
    61   6 C        2.990    -0.000    28.023     8.684
    62   6 C        2.986    -0.001    28.040     8.686
    63   6 C        2.977     0.005    27.905     8.665
    64   6 C        2.990     0.002    27.984     8.678
    65   6 C        2.990     0.001    27.999     8.680
    66   6 C        2.979     0.004    27.924     8.668
    67   6 C        2.918    -0.037    28.908     8.817
    68   6 C        2.918    -0.037    28.915     8.818
    69   6 C        2.980     0.004    27.919     8.667
    70   6 C        2.919    -0.037    28.923     8.819
    71   6 C        2.919    -0.037    28.924     8.819
    72   6 C        2.980     0.004    27.926     8.668
    73   6 C        2.986    -0.001    28.038     8.686
    74   6 C        2.990     0.001    27.990     8.678
    75   6 C        2.990     0.001    27.992     8.679
    76   6 C        2.986    -0.001    28.035     8.685
    77   6 C        2.989    -0.001    28.035     8.685
    78   6 C        2.987    -0.001    28.035     8.685
    79   6 C        2.987    -0.000    28.026     8.684
    80   6 C        2.988    -0.000    28.031     8.685
    81   6 C        2.990    -0.000    28.020     8.683
    82   6 C        2.989    -0.001    28.037     8.686
    83   6 C        2.989    -0.000    28.027     8.684
    84   6 C        2.989    -0.001    28.039     8.686
    85   6 C        2.990    -0.000    28.024     8.684
    86   6 C        2.990    -0.000    28.028     8.684
    87   6 C        2.990    -0.000    28.030     8.685
    88   6 C        2.989    -0.001    28.043     8.687
    89   6 C        2.989    -0.001    28.036     8.686
    90   6 C        2.989    -0.001    28.037     8.686
    91   6 C        2.989     0.000    28.017     8.683
    92   6 C        2.989    -0.001    28.033     8.685
    93   6 C        2.986     0.000    28.021     8.683
    94   6 C        2.987    -0.001    28.044     8.687
    95   6 C        2.987    -0.000    28.023     8.684
    96   6 C        2.986    -0.001    28.036     8.686
    97   6 C        2.979     0.005    27.910     8.666
    98   6 C        2.990     0.001    27.990     8.678
    99   6 C        2.990     0.001    27.994     8.679
   100   6 C        2.980     0.004    27.925     8.668
   101   6 C        2.919    -0.037    28.919     8.819
   102   6 C        2.919    -0.037    28.917     8.818
   103   6 C        2.980     0.005    27.910     8.666
   104   6 C        2.919    -0.037    28.928     8.820
   105   6 C        2.919    -0.037    28.914     8.818
   106   6 C        2.979     0.003    27.943     8.671
   107   6 C        2.986    -0.000    28.031     8.685
   108   6 C        2.990     0.001    27.993     8.679
   109   6 C        2.989     0.001    27.986     8.678
   110   6 C        2.987    -0.001    28.038     8.686
   111   6 C        2.988    -0.001    28.032     8.685
   112   6 C        2.988    -0.001    28.042     8.686
   113   6 C        2.987    -0.000    28.027     8.684
   114   6 C        2.990    -0.000    28.031     8.685
   115   6 C        2.989    -0.000    28.021     8.683
   116   6 C        2.989    -0.001    28.041     8.686
   117   6 C        2.989    -0.000    28.023     8.684
   118   6 C        2.990    -0.001    28.046     8.687
   119   6 C        2.990    -0.000    28.021     8.683
   120   6 C        2.990    -0.001    28.034     8.685
   121   6 C        2.991    -0.000    28.023     8.684
   122   6 C        2.991    -0.002    28.061     8.690
   123   6 C        2.988    -0.000    28.024     8.684
   124   6 C        2.990    -0.001    28.041     8.686
   125   6 C        2.990     0.001    28.008     8.681
   126   6 C        2.991    -0.003    28.095     8.695
   127   6 C        2.986    -0.000    28.023     8.684
   128   6 C        2.988    -0.001    28.045     8.687
   129   6 C        2.988    -0.000    28.021     8.683
   130   6 C        2.988    -0.001    28.044     8.687
   131   6 C        2.979     0.005    27.916     8.667
   132   6 C        2.990     0.001    27.997     8.680
   133   6 C        2.990     0.001    27.989     8.678
   134   6 C        2.978     0.004    27.920     8.667
   135   6 C        2.919    -0.037    28.925     8.820
   136   6 C        2.919    -0.036    28.906     8.817
   137   6 C        2.975     0.007    27.865     8.659
   138   6 C        2.922    -0.035    28.876     8.812
   139   6 C        2.912    -0.030    28.740     8.791
   140   6 C        2.921    -0.036    28.904     8.816
   141   6 C        2.986     0.001    27.999     8.680
   142   6 C        2.994     0.002    27.961     8.674
   143   6 C        2.979     0.013    27.726     8.637
   144   6 C        2.925    -0.042    29.049     8.839
   145   6 C        2.989     0.001    27.996     8.679
   146   6 C        2.993    -0.002    28.060     8.689
   147   6 C        2.974     0.012    27.742     8.640
   148   6 C        2.924    -0.042    29.048     8.839
   149   6 C        2.989     0.002    27.979     8.677
   150   6 C        2.994    -0.002    28.075     8.692
   151   6 C        2.974     0.012    27.735     8.638
   152   6 C        2.924    -0.049    29.216     8.864
   153   6 C        2.991     0.000    28.010     8.682
   154   6 C        2.995    -0.003    28.098     8.695
   155   6 C        2.976     0.014    27.698     8.633
   156   6 C        2.921    -0.081    30.022     8.985
   157   6 C        2.992     0.004    27.930     8.669
   158   6 C        2.995    -0.007    28.176     8.707
   159   6 C        2.909     0.067    26.501     8.441
   160   7 N        2.705    -0.124    23.704     7.231
   161   6 C        2.989     0.001    28.007     8.681
   162   6 C        2.995    -0.008    28.196     8.710
   163   6 C        2.910     0.065    26.537     8.447
   164   6 C        2.922    -0.079    29.977     8.979
   165   6 C        2.976     0.006    27.876     8.661
   166   6 C        2.996    -0.005    28.128     8.700
   167   6 C        2.983     0.014    27.704     8.634
   168   6 C        2.921    -0.041    29.030     8.836
   169   6 C        2.921    -0.041    29.013     8.833
   170   6 C        2.913    -0.030    28.752     8.793
   171   1 H        0.926     0.024     2.669     2.555
   172   1 H        0.926     0.032     2.556     2.500
   173   1 H        0.926     0.033     2.546     2.495
   174   1 H        0.860     0.166     1.300     1.786
   175   1 H        0.926     0.022     2.704     2.571
   176   1 H        0.926     0.031     2.568     2.506
   177   1 H        0.926     0.048     2.348     2.396
   178   1 H        0.926     0.049     2.331     2.388
   179   1 H        0.926     0.034     2.524     2.484
   180   1 H        0.926     0.033     2.539     2.492
   181   1 H        0.926     0.033     2.545     2.495
   182   1 H        0.926     0.033     2.544     2.494
   183   1 H        0.926     0.033     2.547     2.495
   184   1 H        0.926     0.033     2.541     2.493
   185   1 H        0.926     0.033     2.550     2.497
   186   1 H        0.926     0.034     2.536     2.490
   187   1 H        0.926     0.030     2.581     2.512
   188   1 H        0.926     0.032     2.562     2.503
   189   1 H        0.926     0.033     2.548     2.496
   190   1 H        0.926     0.032     2.556     2.500
   191   1 H        0.926     0.029     2.597     2.520
   192   1 H        0.926     0.022     2.699     2.569
   193   1 H        0.860     0.165     1.306     1.790
   194   1 H        0.926     0.022     2.699     2.569
   195   1 H        0.926     0.027     2.624     2.533
   196   1 H        0.926     0.028     2.616     2.529
   197   1 H        0.926     0.030     2.585     2.514
   198   1 H        0.926     0.032     2.555     2.500
   199   1 H        0.926     0.032     2.551     2.498
   200   1 H        0.926     0.033     2.550     2.497
   201   1 H        0.926     0.033     2.544     2.494
   202   1 H        0.926     0.033     2.545     2.495
   203   1 H        0.926     0.033     2.543     2.494
   204   1 H        0.926     0.033     2.539     2.492
   205   1 H        0.926     0.030     2.583     2.513

 Mol. C6AA /au·bohr⁶  :     913949.606656
 Mol. C8AA /au·bohr⁸  :   25265939.675479
 Mol. α(0) /au        :       1561.754983


Wiberg/Mayer (AO) data.
largest (>0.10) Wiberg bond orders for each atom

 ---------------------------------------------------------------------------
     #   Z sym  total        # sym  WBO       # sym  WBO       # sym  WBO
 ---------------------------------------------------------------------------
     1   6 C    3.959 --     2 C    1.411     6 C    1.374   171 H    0.968
     2   6 C    3.977 --     3 C    1.468     1 C    1.411   172 H    0.971
     3   6 C    3.959 --     2 C    1.468     4 C    1.341   173 H    0.963
     4   6 C    3.973 --     3 C    1.341     7 C    1.295    35 C    1.144
     5   7 N    3.494 --     6 C    1.153    10 C    1.136   174 H    0.938
     6   6 C    3.960 --     1 C    1.374     7 C    1.257     5 N    1.153
     7   6 C    3.975 --     4 C    1.295     6 C    1.257     8 C    1.185
     8   6 C    3.955 --    11 C    1.283    39 C    1.276     7 C    1.185
     9   6 C    3.923 --    10 C    1.482    14 C    1.235   175 H    0.965
    10   6 C    3.950 --     9 C    1.482    11 C    1.176     5 N    1.136
    11   6 C    3.942 --     8 C    1.283    12 C    1.264    10 C    1.176
    12   6 C    3.972 --    11 C    1.264    15 C    1.261    43 C    1.231
    13   6 C    3.841 --    14 C    1.387    18 C    1.300   176 H    0.967
    14   6 C    3.977 --    13 C    1.387     9 C    1.235    15 C    1.198
    15   6 C    3.934 --    16 C    1.264    12 C    1.261    14 C    1.198
    16   6 C    3.976 --    19 C    1.280    15 C    1.264    47 C    1.213
    17   6 C    3.773 --    18 C    1.337    22 C    1.311   177 H    0.966
    18   6 C    3.977 --    17 C    1.337    13 C    1.300    19 C    1.188
    19   6 C    3.934 --    16 C    1.280    20 C    1.254    18 C    1.188
    20   6 C    3.974 --    23 C    1.284    19 C    1.254    51 C    1.220
    21   7 N    2.857 --    22 C    1.337    26 C    1.330
    22   6 C    3.965 --    21 N    1.337    17 C    1.311    23 C    1.161
    23   6 C    3.933 --    20 C    1.284    24 C    1.264    22 C    1.161
    24   6 C    3.971 --    27 C    1.266    23 C    1.264    55 C    1.230
    25   6 C    3.779 --    30 C    1.330    26 C    1.320   178 H    0.966
    26   6 C    3.971 --    21 N    1.330    25 C    1.320    27 C    1.159
    27   6 C    3.947 --    28 C    1.289    24 C    1.266    26 C    1.159
    28   6 C    3.974 --    27 C    1.289    31 C    1.241    59 C    1.225
    29   6 C    3.893 --    33 C    1.499    30 C    1.277   179 H    0.969
    30   6 C    3.984 --    25 C    1.330    29 C    1.277    31 C    1.216
    31   6 C    3.945 --    32 C    1.273    28 C    1.241    30 C    1.216
    32   6 C    3.979 --    34 C    1.379    31 C    1.273    63 C    1.135
    33   6 C    3.983 --    29 C    1.499    34 C    1.390   197 H    0.970
    34   6 C    3.887 --    33 C    1.390    32 C    1.379   198 H    0.963
    35   6 C    3.958 --    36 C    1.325    40 C    1.290     4 C    1.144
    36   6 C    3.964 --    37 C    1.510    35 C    1.325   180 H    0.961
    37   6 C    3.958 --    36 C    1.510    38 C    1.319   181 H    0.960
    38   6 C    3.961 --    37 C    1.319    41 C    1.288    69 C    1.158
    39   6 C    3.962 --     8 C    1.276    44 C    1.251    40 C    1.212
    40   6 C    3.981 --    35 C    1.290    41 C    1.252    39 C    1.212
    41   6 C    3.977 --    38 C    1.288    40 C    1.252    42 C    1.214
    42   6 C    3.957 --    45 C    1.269    73 C    1.259    41 C    1.214
    43   6 C    3.962 --    44 C    1.276    48 C    1.236    12 C    1.231
    44   6 C    3.967 --    43 C    1.276    39 C    1.251    45 C    1.219
    45   6 C    3.958 --    42 C    1.269    46 C    1.256    44 C    1.219
    46   6 C    3.964 --    45 C    1.256    77 C    1.248    49 C    1.243
    47   6 C    3.952 --    48 C    1.272    52 C    1.254    16 C    1.213
    48   6 C    3.965 --    47 C    1.272    49 C    1.240    43 C    1.236
    49   6 C    3.954 --    50 C    1.259    46 C    1.243    48 C    1.240
    50   6 C    3.961 --    49 C    1.259    53 C    1.256    81 C    1.231
    51   6 C    3.951 --    56 C    1.264    52 C    1.254    20 C    1.220
    52   6 C    3.967 --    51 C    1.254    47 C    1.254    53 C    1.242
    53   6 C    3.955 --    50 C    1.256    54 C    1.244    52 C    1.242
    54   6 C    3.961 --    57 C    1.268    53 C    1.244    85 C    1.234
    55   6 C    3.949 --    60 C    1.254    56 C    1.254    24 C    1.230
    56   6 C    3.966 --    51 C    1.264    55 C    1.254    57 C    1.230
    57   6 C    3.953 --    54 C    1.268    58 C    1.242    56 C    1.230
    58   6 C    3.964 --    61 C    1.254    89 C    1.250    57 C    1.242
    59   6 C    3.937 --    60 C    1.280    64 C    1.226    28 C    1.225
    60   6 C    3.970 --    59 C    1.280    55 C    1.254    61 C    1.215
    61   6 C    3.958 --    62 C    1.275    58 C    1.254    60 C    1.215
    62   6 C    3.961 --    61 C    1.275    93 C    1.248    65 C    1.220
    63   6 C    3.947 --    67 C    1.341    64 C    1.281    32 C    1.135
    64   6 C    3.981 --    63 C    1.281    65 C    1.249    59 C    1.226
    65   6 C    3.976 --    66 C    1.283    64 C    1.249    62 C    1.220
    66   6 C    3.964 --    68 C    1.331    65 C    1.283    97 C    1.153
    67   6 C    3.969 --    68 C    1.493    63 C    1.341   199 H    0.962
    68   6 C    3.952 --    67 C    1.493    66 C    1.331   200 H    0.961
    69   6 C    3.958 --    70 C    1.320    74 C    1.284    38 C    1.158
    70   6 C    3.960 --    71 C    1.512    69 C    1.320   182 H    0.960
    71   6 C    3.961 --    70 C    1.512    72 C    1.320   183 H    0.960
    72   6 C    3.956 --    71 C    1.320    75 C    1.285   103 C    1.156
[...]
    16   6 C       19   6 C                                       1.4066470
    18   6 C       19   6 C                                       1.4299005
    19   6 C       20   6 C                                       1.4093259
    17   6 C       22   6 C                                       1.4020805
    21   7 N       22   6 C                                       1.3380167
    20   6 C       23   6 C                                       1.4017736
    22   6 C       23   6 C                                       1.4338769
    23   6 C       24   6 C                                       1.4054952
    21   7 N       26   6 C                                       1.3394423
    25   6 C       26   6 C                                       1.3980498
    24   6 C       27   6 C                                       1.4045545
    26   6 C       27   6 C                                       1.4349014 (max)
    27   6 C       28   6 C                                       1.4036297
    25   6 C       30   6 C                                       1.4007823
    29   6 C       30   6 C                                       1.4096083
    28   6 C       31   6 C                                       1.4142839
    30   6 C       31   6 C                                       1.4273807
    31   6 C       32   6 C                                       1.4145622
    29   6 C       33   6 C                                       1.3723014
    32   6 C       34   6 C                                       1.3946056
    33   6 C       34   6 C                                       1.3905339
    35   6 C       36   6 C                                       1.3999154
    36   6 C       37   6 C                                       1.3686139
    37   6 C       38   6 C                                       1.4019609
     8   6 C       39   6 C                                       1.4078614
    35   6 C       40   6 C                                       1.4129016
    39   6 C       40   6 C                                       1.4226480
    38   6 C       41   6 C                                       1.4103021
    40   6 C       41   6 C                                       1.4208692
    41   6 C       42   6 C                                       1.4257655
    12   6 C       43   6 C                                       1.4183123
    39   6 C       44   6 C                                       1.4140178
    43   6 C       44   6 C                                       1.4092827
    42   6 C       45   6 C                                       1.4116838
    44   6 C       45   6 C                                       1.4214702
    45   6 C       46   6 C                                       1.4140652
    16   6 C       47   6 C                                       1.4226614
    43   6 C       48   6 C                                       1.4158118
    47   6 C       48   6 C                                       1.4091829
    46   6 C       49   6 C                                       1.4161454
    48   6 C       49   6 C                                       1.4161401
    49   6 C       50   6 C                                       1.4122534
    20   6 C       51   6 C                                       1.4191461
    47   6 C       52   6 C                                       1.4124825
    51   6 C       52   6 C                                       1.4111340
    50   6 C       53   6 C                                       1.4121825
    52   6 C       53   6 C                                       1.4148979
    53   6 C       54   6 C                                       1.4155032
    24   6 C       55   6 C                                       1.4121723
    51   6 C       56   6 C                                       1.4099646
    55   6 C       56   6 C                                       1.4095977
    54   6 C       57   6 C                                       1.4091936
    56   6 C       57   6 C                                       1.4154790
    57   6 C       58   6 C                                       1.4160281
    28   6 C       59   6 C                                       1.4207750
    55   6 C       60   6 C                                       1.4105037
    59   6 C       60   6 C                                       1.4083186
    58   6 C       61   6 C                                       1.4145235
    60   6 C       61   6 C                                       1.4206616
    61   6 C       62   6 C                                       1.4090891
    59   6 C       64   6 C                                       1.4193544
    63   6 C       64   6 C                                       1.4147487
    62   6 C       65   6 C                                       1.4241805
    64   6 C       65   6 C                                       1.4222406
    65   6 C       66   6 C                                       1.4112638
    63   6 C       67   6 C                                       1.3978480
    66   6 C       68   6 C                                       1.4001777
    67   6 C       68   6 C                                       1.3718318
    69   6 C       70   6 C                                       1.4006395
    70   6 C       71   6 C                                       1.3670873
    71   6 C       72   6 C                                       1.4006670
    42   6 C       73   6 C                                       1.4161684
    69   6 C       74   6 C                                       1.4119878
    73   6 C       74   6 C                                       1.4226901
    72   6 C       75   6 C                                       1.4112376
    74   6 C       75   6 C                                       1.4207537
    75   6 C       76   6 C                                       1.4232727
    46   6 C       77   6 C                                       1.4154908
    73   6 C       78   6 C                                       1.4138593
    77   6 C       78   6 C                                       1.4132910
    76   6 C       79   6 C                                       1.4120999
    78   6 C       79   6 C                                       1.4232776
    79   6 C       80   6 C                                       1.4149946
    50   6 C       81   6 C                                       1.4173211
    77   6 C       82   6 C                                       1.4180776
    81   6 C       82   6 C                                       1.4115235
    80   6 C       83   6 C                                       1.4172492
    82   6 C       83   6 C                                       1.4157610
    83   6 C       84   6 C                                       1.4126989
    54   6 C       85   6 C                                       1.4158015
    81   6 C       86   6 C                                       1.4154399
    85   6 C       86   6 C                                       1.4148437
    84   6 C       87   6 C                                       1.4148826
    86   6 C       87   6 C                                       1.4128592
    87   6 C       88   6 C                                       1.4159094
    58   6 C       89   6 C                                       1.4138500
    85   6 C       90   6 C                                       1.4124705
    89   6 C       90   6 C                                       1.4170107
    88   6 C       91   6 C                                       1.4120927
    90   6 C       91   6 C                                       1.4155796
    91   6 C       92   6 C                                       1.4178069
    62   6 C       93   6 C                                       1.4174911
    89   6 C       94   6 C                                       1.4146620
    93   6 C       94   6 C                                       1.4123423
    92   6 C       95   6 C                                       1.4155891
    94   6 C       95   6 C                                       1.4224636
    95   6 C       96   6 C                                       1.4117159
    93   6 C       98   6 C                                       1.4219058
    97   6 C       98   6 C                                       1.4129765
    96   6 C       99   6 C                                       1.4231786
    98   6 C       99   6 C                                       1.4206136
    99   6 C      100   6 C                                       1.4118669
    97   6 C      101   6 C                                       1.3997044
   100   6 C      102   6 C                                       1.3999581
   101   6 C      102   6 C                                       1.3686916
   103   6 C      104   6 C                                       1.3999184
   104   6 C      105   6 C                                       1.3694393
   105   6 C      106   6 C                                       1.3977490
    76   6 C      107   6 C                                       1.4175416
   103   6 C      108   6 C                                       1.4114403
   107   6 C      108   6 C                                       1.4237033
   106   6 C      109   6 C                                       1.4137812
   108   6 C      109   6 C                                       1.4213284
   109   6 C      110   6 C                                       1.4213161
    80   6 C      111   6 C                                       1.4155522
   107   6 C      112   6 C                                       1.4114778
   111   6 C      112   6 C                                       1.4141301
   110   6 C      113   6 C                                       1.4099235
   112   6 C      113   6 C                                       1.4234862
   113   6 C      114   6 C                                       1.4142795
    84   6 C      115   6 C                                       1.4171661
   111   6 C      116   6 C                                       1.4173426
   115   6 C      116   6 C                                       1.4112953
   114   6 C      117   6 C                                       1.4150021
   116   6 C      117   6 C                                       1.4175935
   117   6 C      118   6 C                                       1.4111441
    88   6 C      119   6 C                                       1.4165429
   115   6 C      120   6 C                                       1.4152441
   119   6 C      120   6 C                                       1.4153644
   118   6 C      121   6 C                                       1.4132658
   120   6 C      121   6 C                                       1.4138770
   121   6 C      122   6 C                                       1.4139613
    92   6 C      123   6 C                                       1.4140103
   119   6 C      124   6 C                                       1.4113821
   123   6 C      124   6 C                                       1.4176538
   122   6 C      125   6 C                                       1.4092848
   124   6 C      125   6 C                                       1.4157694
   125   6 C      126   6 C                                       1.4162606
    96   6 C      127   6 C                                       1.4177711
   123   6 C      128   6 C                                       1.4150660
   127   6 C      128   6 C                                       1.4106677
   126   6 C      129   6 C                                       1.4155815
   128   6 C      129   6 C                                       1.4220380
   129   6 C      130   6 C                                       1.4076693
   127   6 C      132   6 C                                       1.4239547
   131   6 C      132   6 C                                       1.4119660
   130   6 C      133   6 C                                       1.4213731
   132   6 C      133   6 C                                       1.4210717
   133   6 C      134   6 C                                       1.4139289
   131   6 C      135   6 C                                       1.3993694
   134   6 C      136   6 C                                       1.3973745
   135   6 C      136   6 C                                       1.3707429
   137   6 C      138   6 C                                       1.3952896
   138   6 C      139   6 C                                       1.3894300
   139   6 C      140   6 C                                       1.3712894
   110   6 C      141   6 C                                       1.4205790
   137   6 C      142   6 C                                       1.4137703
   141   6 C      142   6 C                                       1.4182178
   140   6 C      143   6 C                                       1.4088862
   142   6 C      143   6 C                                       1.4258704
   143   6 C      144   6 C                                       1.3968210
   114   6 C      145   6 C                                       1.4176573
   141   6 C      146   6 C                                       1.4080761
   145   6 C      146   6 C                                       1.4104108
   144   6 C      147   6 C                                       1.3952803
   146   6 C      147   6 C                                       1.4318015
   147   6 C      148   6 C                                       1.3992893
   118   6 C      149   6 C                                       1.4209250
   145   6 C      150   6 C                                       1.4131961
   149   6 C      150   6 C                                       1.4060887
   148   6 C      151   6 C                                       1.3955220
   150   6 C      151   6 C                                       1.4299164
   151   6 C      152   6 C                                       1.4020399
   122   6 C      153   6 C                                       1.4200559
   149   6 C      154   6 C                                       1.4124372
   153   6 C      154   6 C                                       1.4098463
   152   6 C      155   6 C                                       1.3902393
   154   6 C      155   6 C                                       1.4262251
   155   6 C      156   6 C                                       1.4141314
   126   6 C      157   6 C                                       1.4090497
   153   6 C      158   6 C                                       1.4063090
   157   6 C      158   6 C                                       1.4124824
   156   6 C      159   6 C                                       1.3719724
   158   6 C      159   6 C                                       1.4238260
   159   6 C      160   7 N                                       1.3714656
   130   6 C      161   6 C                                       1.4206120
   157   6 C      162   6 C                                       1.4133594
   161   6 C      162   6 C                                       1.4049387
   160   7 N      163   6 C                                       1.3737278
   162   6 C      163   6 C                                       1.4238305
   163   6 C      164   6 C                                       1.3700750
   161   6 C      166   6 C                                       1.4176885
   165   6 C      166   6 C                                       1.4152688
   164   6 C      167   6 C                                       1.4123648
   166   6 C      167   6 C                                       1.4200796
   167   6 C      168   6 C                                       1.4018517
   165   6 C      169   6 C                                       1.3934797
   168   6 C      170   6 C                                       1.3744854
   169   6 C      170   6 C                                       1.3872650
     1   6 C      171   1 H                                       1.0803473
     2   6 C      172   1 H                                       1.0799779
     3   6 C      173   1 H                                       1.0770103
     5   7 N      174   1 H                                       1.0099633
     9   6 C      175   1 H                                       1.0808240
    13   6 C      176   1 H                                       1.0807427
    17   6 C      177   1 H                                       1.0791923
    25   6 C      178   1 H                                       1.0791185
    29   6 C      179   1 H                                       1.0799592
    36   6 C      180   1 H                                       1.0777374
    37   6 C      181   1 H                                       1.0774516
    70   6 C      182   1 H                                       1.0773431
    71   6 C      183   1 H                                       1.0773154
   104   6 C      184   1 H                                       1.0773415
   105   6 C      185   1 H                                       1.0776785
   138   6 C      186   1 H                                       1.0775666
   139   6 C      187   1 H                                       1.0804038
   140   6 C      188   1 H                                       1.0800812
   144   6 C      189   1 H                                       1.0808367
   148   6 C      190   1 H                                       1.0808380
   152   6 C      191   1 H                                       1.0807784
   156   6 C      192   1 H                                       1.0808060
   160   7 N      193   1 H                                       1.0098995 (min)
   164   6 C      194   1 H                                       1.0809585
   168   6 C      195   1 H                                       1.0802888
   170   6 C      196   1 H                                       1.0805484
    33   6 C      197   1 H                                       1.0806322
    34   6 C      198   1 H                                       1.0779354
    67   6 C      199   1 H                                       1.0780526
    68   6 C      200   1 H                                       1.0777523
   101   6 C      201   1 H                                       1.0775342
   102   6 C      202   1 H                                       1.0774748
   135   6 C      203   1 H                                       1.0775266
   136   6 C      204   1 H                                       1.0777533
   169   6 C      205   1 H                                       1.0776369

 * 4 distinct bonds (by element types)

   Z      Z             #   av. dist./Å        max./Å        min./Å
   1 H    6 C          33     1.0790135     1.0809585     1.0770103
   6 C    6 C         223     1.4101868     1.4349014     1.3670873
   1 H    7 N           2     1.0099314     1.0099633     1.0098995
   6 C    7 N           6     1.3610286     1.3737278     1.3380167


optimized geometry written to: xtbopt.xyz


           -------------------------------------------------
          | TOTAL ENERGY             -385.789824562243 Eh   |
          | GRADIENT NORM               0.000585055383 Eh/α |
          | HOMO-LUMO GAP               0.029668634156 eV   |
           -------------------------------------------------

------------------------------------------------------------------------
 * finished run on 2025/12/08 at 00:43:03.004     
------------------------------------------------------------------------
 total:
 * wall-time:     0 d,  0 h,  0 min, 18.014 sec
 *  cpu-time:     0 d,  0 h,  1 min, 10.953 sec
 * ratio c/w:     3.939 speedup
 SCF:
 * wall-time:     0 d,  0 h,  0 min,  4.511 sec
 *  cpu-time:     0 d,  0 h,  0 min, 17.750 sec
 * ratio c/w:     3.935 speedup
 ANC optimizer:
 * wall-time:     0 d,  0 h,  0 min, 13.355 sec
 *  cpu-time:     0 d,  0 h,  0 min, 52.672 sec
 * ratio c/w:     3.944 speedup

normal termination of xtb
