      -----------------------------------------------------------      
     |                   =====================                   |     
     |                           x T B                           |     
     |                   =====================                   |     
     |                         S. Grimme                         |     
     |          Mulliken Center for Theoretical Chemistry        |     
     |                    University of Bonn                     |     
      -----------------------------------------------------------      

   * xtb version 6.7.1pre (5071a88) compiled by 'Marcel@Raven' on 2024-07-23

   xtb is free software: you can redistribute it and/or modify it under
   the terms of the GNU Lesser General Public License as published by
   the Free Software Foundation, either version 3 of the License, or
   (at your option) any later version.
   
   xtb is distributed in the hope that it will be useful,
   but WITHOUT ANY WARRANTY; without even the implied warranty of
   MERCHANTABILITY or FITNESS FOR A PARTICULAR PURPOSE.  See the
   GNU Lesser General Public License for more details.
   
   Cite this work as:
   * C. Bannwarth, E. Caldeweyher, S. Ehlert, A. Hansen, P. Pracht,
     J. Seibert, S. Spicher, S. Grimme, WIREs Comput. Mol. Sci., 2020, 11,
     e01493. DOI: 10.1002/wcms.1493
   
   for GFN2-xTB:
   * C. Bannwarth, S. Ehlert and S. Grimme., J. Chem. Theory Comput., 2019,
     15, 1652-1671. DOI: 10.1021/acs.jctc.8b01176
   for GFN1-xTB:
   * S. Grimme, C. Bannwarth, P. Shushkov, J. Chem. Theory Comput., 2017,
     13, 1989-2009. DOI: 10.1021/acs.jctc.7b00118
   for GFN0-xTB:
   * P. Pracht, E. Caldeweyher, S. Ehlert, S. Grimme, ChemRxiv, 2019, preprint.
     DOI: 10.26434/chemrxiv.8326202.v1
   for GFN-FF:
   * S. Spicher and S. Grimme, Angew. Chem. Int. Ed., 2020, 59, 15665-15673.
     DOI: 10.1002/anie.202004239
   
   for ALPB and GBSA implicit solvation:
   * S. Ehlert, M. Stahn, S. Spicher, S. Grimme, J. Chem. Theory Comput.,
     2021, 17, 4250-4261. DOI: 10.1021/acs.jctc.1c00471
   
   for ddCOSMO and CPCM-X implicit solvation:
   * M. Stahn, S. Ehlert, S. Grimme, J. Phys. Chem. A,
     2023, XX, XXXX-XXXX. DOI: 10.1021/acs.jpca.3c04382
   
   for DFT-D4:
   * E. Caldeweyher, C. Bannwarth and S. Grimme, J. Chem. Phys., 2017,
     147, 034112. DOI: 10.1063/1.4993215
   * E. Caldeweyher, S. Ehlert, A. Hansen, H. Neugebauer, S. Spicher,
     C. Bannwarth and S. Grimme, J. Chem. Phys., 2019, 150, 154122.
     DOI: 10.1063/1.5090222
   * E. Caldeweyher, J.-M. Mewes, S. Ehlert and S. Grimme, Phys. Chem. Chem. Phys.
     2020, 22, 8499-8512. DOI: 10.1039/D0CP00502A
   
   for sTDA-xTB:
   * S. Grimme and C. Bannwarth, J. Chem. Phys., 2016, 145, 054103.
     DOI: 10.1063/1.4959605
   
   in the mass-spec context:
   * V. Asgeirsson, C. Bauer and S. Grimme, Chem. Sci., 2017, 8, 4879.
     DOI: 10.1039/c7sc00601b
   * J. Koopman and S. Grimme, ACS Omega 2019, 4, 12, 15120-15133.
     DOI: 10.1021/acsomega.9b02011
   
   for metadynamics refer to:
   * S. Grimme, J. Chem. Theory Comput., 2019, 155, 2847-2862
     DOI: 10.1021/acs.jctc.9b00143
   
   for SPH calculations refer to:
   * S. Spicher and S. Grimme, J. Chem. Theory Comput., 2021, 17, 1701-1714
     DOI: 10.1021/acs.jctc.0c01306
   
   for ONIOM refer to:
   * C. Plett, A. Katbashev, S. Ehlert, S. Grimme, M. Bursch,
     Phys. Chem. Chem. Phys., 2023, 25, 17860-17868. DOI: 10.1039/D3CP02178E
   
   for DIPRO refer to:
   * J. Kohn, N. Gildemeister, S. Grimme, D. Fazzi, A. Hansen,
     J. Chem. Phys., 2023, just accepted.
   
   for PTB refer to:
   * S. Grimme, M. Mueller, A. Hansen, J. Chem. Phys., 2023, 158, 124111.
     DOI: 10.1063/5.0137838
   
   with help from (in alphabetical order)
   P. Atkinson, C. Bannwarth, F. Bohle, G. Brandenburg, E. Caldeweyher
   M. Checinski, S. Dohm, S. Ehlert, S. Ehrlich, I. Gerasimov, C. Hölzer
   A. Katbashev, J. Kohn, J. Koopman, C. Lavigne, S. Lehtola, F. März, M. Müller,
   F. Musil, H. Neugebauer, J. Pisarek, C. Plett, P. Pracht, F. Pultar,
   J. Seibert, P. Shushkov, S. Spicher, M. Stahn, M. Steiner, T. Strunk,
   J. Stückrath, T. Rose, and J. Unsleber
   
 * started run on 2025/12/08 at 00:43:03.039     
   ID    Z sym.   atoms
    1    6 C      1-4, 6-20, 22-159, 161-170
    2    7 N      5, 21, 160
    3    1 H      171-205

           -------------------------------------------------
          |                Calculation Setup                |
           -------------------------------------------------

          program call               : xtb "C:\Users\LENOVO GAMING\Documents\GitHub\molecular-conductivity-sim\results\2nm-3Ndoped-1.5percent\xtbopt.xyz" --sp
          coordinate file            : C:\Users\LENOVO GAMING\Documents\GitHub\molecular-conductivity-sim\results\2nm-3Ndoped-1.5percent\xtbopt.xyz
          omp threads                :                    16


           -------------------------------------------------
          |                 G F N 2 - x T B                 |
           -------------------------------------------------

        Reference                      10.1021/acs.jctc.8b01176
      * Hamiltonian:
        H0-scaling (s, p, d)           1.850000    2.230000    2.230000
        zeta-weighting                 0.500000
      * Dispersion:
        s8                             2.700000
        a1                             0.520000
        a2                             5.000000
        s9                             5.000000
      * Repulsion:
        kExp                           1.500000    1.000000
        rExp                           1.000000
      * Coulomb:
        alpha                          2.000000
        third order                    shell-resolved
        anisotropic                    true
        a3                             3.000000
        a5                             4.000000
        cn-shift                       1.200000
        cn-exp                         4.000000
        max-rad                        5.000000

q/qsh data taken from xtbrestart
CAMM data taken from xtbrestart

          ...................................................
          :                      SETUP                      :
          :.................................................:
          :  # basis functions                 715          :
          :  # atomic orbitals                 715          :
          :  # shells                          375          :
          :  # electrons                       718          :
          :  max. iterations                   250          :
          :  Hamiltonian                  GFN2-xTB          :
          :  restarted?                       true          :
          :  GBSA solvation                  false          :
          :  PC potential                    false          :
          :  electronic temp.          300.0000000     K    :
          :  accuracy                    1.0000000          :
          :  -> integral cutoff          0.2500000E+02      :
          :  -> integral neglect         0.1000000E-07      :
          :  -> SCF convergence          0.1000000E-05 Eh   :
          :  -> wf. convergence          0.1000000E-03 e    :
          :  Broyden damping             0.4000000          :
          :  net charge                          0          :
          :  unpaired electrons                  0          :
          ...................................................

 iter      E             dE          RMSdq      gap      omega  full diag
   1   -393.3454207 -0.393345E+03  0.105E-05    0.03       0.0  T
   2   -393.3454207  0.410122E-07  0.281E-04    0.03      24.9  T
   3   -393.3454207 -0.410441E-07  0.717E-06    0.03     973.5  T

   *** convergence criteria satisfied after 3 iterations ***

         #    Occupation            Energy/Eh            Energy/eV
      -------------------------------------------------------------
         1        2.0000           -0.6795468             -18.4914
       ...           ...                  ...                  ...
       353        2.0000           -0.3616014              -9.8397
       354        2.0000           -0.3586380              -9.7590
       355        2.0000           -0.3477159              -9.4618
       356        2.0000           -0.3472150              -9.4482
       357        2.0000           -0.3455703              -9.4034
       358        1.9995           -0.3351216              -9.1191
       359        1.2795           -0.3277161              -8.9176 (HOMO)
       360        0.7210           -0.3266258              -8.8879 (LUMO)
       361                         -0.3102850              -8.4433
       362                         -0.2896130              -7.8808
       363                         -0.2863179              -7.7911
       364                         -0.2833516              -7.7104
       ...                                ...                  ...
       715                          0.7952088              21.6387
      -------------------------------------------------------------
                  HL-Gap            0.0010903 Eh            0.0297 eV
             Fermi-level           -0.3271705 Eh           -8.9028 eV

 SCC (total)                   0 d,  0 h,  0 min,  0.573 sec
 SCC setup                      ...        0 min,  0.003 sec (  0.524%)
 Dispersion                     ...        0 min,  0.018 sec (  3.141%)
 classical contributions        ...        0 min,  0.000 sec (  0.000%)
 integral evaluation            ...        0 min,  0.042 sec (  7.330%)
 iterations                     ...        0 min,  0.338 sec ( 58.988%)
 molecular gradient             ...        0 min,  0.163 sec ( 28.447%)
 printout                       ...        0 min,  0.009 sec (  1.571%)

         :::::::::::::::::::::::::::::::::::::::::::::::::::::
         ::                     SUMMARY                     ::
         :::::::::::::::::::::::::::::::::::::::::::::::::::::
         :: total energy            -385.789824562364 Eh    ::
         :: gradient norm              0.000585229043 Eh/a0 ::
         :: HOMO-LUMO gap              0.029667753418 eV    ::
         ::.................................................::
         :: SCC energy              -393.362725362805 Eh    ::
         :: -> isotropic ES            0.021282699212 Eh    ::
         :: -> anisotropic ES          0.019931869822 Eh    ::
         :: -> anisotropic XC          0.133087207734 Eh    ::
         :: -> dispersion             -0.495564633597 Eh    ::
         :: repulsion energy           7.572900800440 Eh    ::
         :: add. restraining           0.000000000000 Eh    ::
         :: total charge               0.000000000066 e     ::
         :::::::::::::::::::::::::::::::::::::::::::::::::::::

           -------------------------------------------------
          |                Property Printout                |
           -------------------------------------------------

    * Orbital Energies and Occupations

         #    Occupation            Energy/Eh            Energy/eV
      -------------------------------------------------------------
         1        2.0000           -0.6795468             -18.4914
       ...           ...                  ...                  ...
       347        2.0000           -0.3813135             -10.3761
       348        2.0000           -0.3806433             -10.3578
       349        2.0000           -0.3795616             -10.3284
       350        2.0000           -0.3776185             -10.2755
       351        2.0000           -0.3753173             -10.2129
       352        2.0000           -0.3658608              -9.9556
       353        2.0000           -0.3616014              -9.8397
       354        2.0000           -0.3586380              -9.7590
       355        2.0000           -0.3477159              -9.4618
       356        2.0000           -0.3472150              -9.4482
       357        2.0000           -0.3455703              -9.4034
       358        1.9995           -0.3351216              -9.1191
       359        1.2795           -0.3277161              -8.9176 (HOMO)
       360        0.7210           -0.3266258              -8.8879 (LUMO)
       361                         -0.3102850              -8.4433
       362                         -0.2896130              -7.8808
       363                         -0.2863179              -7.7911
       364                         -0.2833516              -7.7104
       365                         -0.2698609              -7.3433
       366                         -0.2682797              -7.3003
       367                         -0.2657266              -7.2308
       368                         -0.2612046              -7.1077
       369                         -0.2573312              -7.0023
       370                         -0.2561954              -6.9714
       ...                                ...                  ...
       715                          0.7952088              21.6387
      -------------------------------------------------------------
                  HL-Gap            0.0010903 Eh            0.0297 eV
             Fermi-level           -0.3271705 Eh           -8.9028 eV

     #   Z          covCN         q      C6AA      α(0)
     1   6 C        2.920    -0.065    29.628     8.926
     2   6 C        2.917    -0.029    28.714     8.787
     3   6 C        2.920    -0.049    29.208     8.863
     4   6 C        2.978     0.006    27.875     8.660
     5   7 N        2.706    -0.122    23.663     7.225
     6   6 C        2.917     0.068    26.475     8.438
     7   6 C        2.996    -0.009    28.227     8.715
     8   6 C        2.989     0.004    27.929     8.669
     9   6 C        2.920    -0.082    30.054     8.990
    10   6 C        2.909     0.065    26.554     8.450
    11   6 C        2.994    -0.005    28.136     8.701
    12   6 C        2.992    -0.000    28.022     8.683
    13   6 C        2.922    -0.049    29.206     8.862
    14   6 C        2.975     0.013    27.708     8.634
    15   6 C        2.995    -0.004    28.101     8.696
    16   6 C        2.990     0.002    27.979     8.677
    17   6 C        2.923    -0.049    29.224     8.865
    18   6 C        2.972     0.013    27.730     8.638
    19   6 C        2.996    -0.004    28.105     8.696
    20   6 C        2.992    -0.001    28.045     8.687
    21   7 N        1.847    -0.268    27.801     7.814
    22   6 C        2.942     0.093    25.936     8.353
    23   6 C        2.997    -0.013    28.330     8.731
    24   6 C        3.001     0.008    27.832     8.654
    25   6 C        2.925    -0.048    29.198     8.861
    26   6 C        2.943     0.092    25.949     8.355
    27   6 C        2.997    -0.013    28.318     8.729
    28   6 C        2.988    -0.001    28.050     8.688
    29   6 C        2.921    -0.035    28.861     8.810
    30   6 C        2.978     0.013    27.720     8.636
    31   6 C        2.996     0.001    28.003     8.680
    32   6 C        2.974     0.006    27.874     8.660
    33   6 C        2.911    -0.030    28.750     8.792
    34   6 C        2.921    -0.035    28.874     8.812
    35   6 C        2.979     0.003    27.944     8.671
    36   6 C        2.919    -0.036    28.906     8.817
    37   6 C        2.919    -0.038    28.939     8.822
    38   6 C        2.980     0.005    27.917     8.667
    39   6 C        2.989    -0.004    28.127     8.700
    40   6 C        2.990     0.002    27.978     8.677
    41   6 C        2.990     0.001    27.994     8.679
    42   6 C        2.985    -0.000    28.026     8.684
    43   6 C        2.991    -0.002    28.063     8.690
    44   6 C        2.989    -0.000    28.021     8.683
    45   6 C        2.988    -0.000    28.026     8.684
    46   6 C        2.989    -0.000    28.031     8.685
    47   6 C        2.991     0.000    28.016     8.683
    48   6 C        2.991    -0.001    28.032     8.685
    49   6 C        2.990    -0.001    28.040     8.686
    50   6 C        2.990    -0.001    28.032     8.685
    51   6 C        2.993    -0.000    28.028     8.684
    52   6 C        2.992    -0.000    28.024     8.684
    53   6 C        2.991    -0.001    28.044     8.687
    54   6 C        2.991    -0.001    28.041     8.686
    55   6 C        2.995    -0.004    28.115     8.698
    56   6 C        2.993    -0.000    28.022     8.683
    57   6 C        2.991    -0.000    28.021     8.683
    58   6 C        2.990    -0.000    28.025     8.684
    59   6 C        2.989     0.000    28.019     8.683
    60   6 C        2.991    -0.001    28.033     8.685
    61   6 C        2.990    -0.000    28.023     8.684
    62   6 C        2.986    -0.001    28.040     8.686
    63   6 C        2.977     0.005    27.905     8.665
    64   6 C        2.990     0.002    27.984     8.678
    65   6 C        2.990     0.001    27.999     8.680
    66   6 C        2.979     0.004    27.924     8.668
    67   6 C        2.918    -0.037    28.908     8.817
    68   6 C        2.918    -0.037    28.915     8.818
    69   6 C        2.980     0.004    27.919     8.667
    70   6 C        2.919    -0.037    28.923     8.819
    71   6 C        2.919    -0.037    28.924     8.819
    72   6 C        2.980     0.004    27.926     8.668
    73   6 C        2.986    -0.001    28.038     8.686
    74   6 C        2.990     0.001    27.990     8.678
    75   6 C        2.990     0.001    27.992     8.679
    76   6 C        2.986    -0.001    28.035     8.685
    77   6 C        2.989    -0.001    28.035     8.685
    78   6 C        2.987    -0.001    28.035     8.685
    79   6 C        2.987    -0.000    28.026     8.684
    80   6 C        2.988    -0.000    28.031     8.685
    81   6 C        2.990    -0.000    28.020     8.683
    82   6 C        2.989    -0.001    28.037     8.686
    83   6 C        2.989    -0.000    28.027     8.684
    84   6 C        2.989    -0.001    28.039     8.686
    85   6 C        2.990    -0.000    28.024     8.684
    86   6 C        2.990    -0.000    28.028     8.684
    87   6 C        2.990    -0.000    28.030     8.685
    88   6 C        2.989    -0.001    28.043     8.687
    89   6 C        2.989    -0.001    28.036     8.686
    90   6 C        2.989    -0.001    28.037     8.686
    91   6 C        2.989     0.000    28.017     8.683
    92   6 C        2.989    -0.001    28.033     8.685
    93   6 C        2.986     0.000    28.021     8.683
    94   6 C        2.987    -0.001    28.044     8.687
    95   6 C        2.987    -0.000    28.023     8.684
    96   6 C        2.986    -0.001    28.036     8.686
    97   6 C        2.979     0.005    27.910     8.666
    98   6 C        2.990     0.001    27.990     8.678
    99   6 C        2.990     0.001    27.994     8.679
   100   6 C        2.980     0.004    27.925     8.668
   101   6 C        2.919    -0.037    28.919     8.819
   102   6 C        2.919    -0.037    28.917     8.818
   103   6 C        2.980     0.005    27.910     8.666
   104   6 C        2.919    -0.037    28.928     8.820
   105   6 C        2.919    -0.037    28.914     8.818
   106   6 C        2.979     0.003    27.943     8.671
   107   6 C        2.986    -0.000    28.031     8.685
   108   6 C        2.990     0.001    27.993     8.679
   109   6 C        2.989     0.001    27.986     8.678
   110   6 C        2.987    -0.001    28.038     8.686
   111   6 C        2.988    -0.001    28.032     8.685
   112   6 C        2.988    -0.001    28.042     8.686
   113   6 C        2.987    -0.000    28.027     8.684
   114   6 C        2.990    -0.000    28.031     8.685
   115   6 C        2.989    -0.000    28.021     8.683
   116   6 C        2.989    -0.001    28.041     8.686
   117   6 C        2.989    -0.000    28.023     8.684
   118   6 C        2.990    -0.001    28.046     8.687
   119   6 C        2.990    -0.000    28.021     8.683
   120   6 C        2.990    -0.001    28.034     8.685
   121   6 C        2.991    -0.000    28.023     8.684
   122   6 C        2.991    -0.002    28.061     8.690
   123   6 C        2.988    -0.000    28.024     8.684
   124   6 C        2.990    -0.001    28.041     8.686
   125   6 C        2.990     0.001    28.008     8.681
   126   6 C        2.991    -0.003    28.095     8.695
   127   6 C        2.986    -0.000    28.023     8.684
   128   6 C        2.988    -0.001    28.045     8.687
   129   6 C        2.988    -0.000    28.021     8.683
   130   6 C        2.988    -0.001    28.044     8.687
   131   6 C        2.979     0.005    27.916     8.667
   132   6 C        2.990     0.001    27.997     8.680
   133   6 C        2.990     0.001    27.989     8.678
   134   6 C        2.978     0.004    27.920     8.667
   135   6 C        2.919    -0.037    28.925     8.820
   136   6 C        2.919    -0.036    28.906     8.817
   137   6 C        2.975     0.007    27.865     8.659
   138   6 C        2.922    -0.035    28.876     8.812
   139   6 C        2.912    -0.030    28.740     8.791
   140   6 C        2.921    -0.036    28.904     8.816
   141   6 C        2.986     0.001    27.999     8.680
   142   6 C        2.994     0.002    27.961     8.674
   143   6 C        2.979     0.013    27.726     8.637
   144   6 C        2.925    -0.042    29.049     8.839
   145   6 C        2.989     0.001    27.996     8.679
   146   6 C        2.993    -0.002    28.060     8.689
   147   6 C        2.974     0.012    27.742     8.640
   148   6 C        2.924    -0.042    29.048     8.839
   149   6 C        2.989     0.002    27.979     8.677
   150   6 C        2.994    -0.002    28.075     8.692
   151   6 C        2.974     0.012    27.735     8.638
   152   6 C        2.924    -0.049    29.216     8.864
   153   6 C        2.991     0.000    28.010     8.682
   154   6 C        2.995    -0.003    28.098     8.695
   155   6 C        2.976     0.014    27.698     8.633
   156   6 C        2.921    -0.081    30.022     8.985
   157   6 C        2.992     0.004    27.930     8.669
   158   6 C        2.995    -0.007    28.176     8.707
   159   6 C        2.909     0.067    26.501     8.441
   160   7 N        2.705    -0.124    23.704     7.231
   161   6 C        2.989     0.001    28.007     8.681
   162   6 C        2.995    -0.008    28.196     8.710
   163   6 C        2.910     0.065    26.537     8.447
   164   6 C        2.922    -0.079    29.977     8.979
   165   6 C        2.976     0.006    27.876     8.661
   166   6 C        2.996    -0.005    28.128     8.700
   167   6 C        2.983     0.014    27.704     8.634
   168   6 C        2.921    -0.041    29.030     8.836
   169   6 C        2.921    -0.041    29.013     8.833
   170   6 C        2.913    -0.030    28.752     8.793
   171   1 H        0.926     0.024     2.669     2.555
   172   1 H        0.926     0.032     2.556     2.500
   173   1 H        0.926     0.033     2.546     2.495
   174   1 H        0.860     0.166     1.300     1.786
   175   1 H        0.926     0.022     2.704     2.571
   176   1 H        0.926     0.031     2.568     2.506
   177   1 H        0.926     0.048     2.348     2.396
   178   1 H        0.926     0.049     2.331     2.388
   179   1 H        0.926     0.034     2.524     2.484
   180   1 H        0.926     0.033     2.539     2.492
   181   1 H        0.926     0.033     2.545     2.495
   182   1 H        0.926     0.033     2.544     2.494
   183   1 H        0.926     0.033     2.547     2.495
   184   1 H        0.926     0.033     2.541     2.493
   185   1 H        0.926     0.033     2.550     2.497
   186   1 H        0.926     0.034     2.536     2.490
   187   1 H        0.926     0.030     2.581     2.512
   188   1 H        0.926     0.032     2.562     2.503
   189   1 H        0.926     0.033     2.548     2.496
   190   1 H        0.926     0.032     2.556     2.500
   191   1 H        0.926     0.029     2.597     2.520
   192   1 H        0.926     0.022     2.699     2.569
   193   1 H        0.860     0.165     1.306     1.790
   194   1 H        0.926     0.022     2.699     2.569
   195   1 H        0.926     0.027     2.624     2.533
   196   1 H        0.926     0.028     2.616     2.529
   197   1 H        0.926     0.030     2.585     2.514
   198   1 H        0.926     0.032     2.555     2.500
   199   1 H        0.926     0.032     2.551     2.498
   200   1 H        0.926     0.033     2.550     2.497
   201   1 H        0.926     0.033     2.544     2.494
   202   1 H        0.926     0.033     2.545     2.495
   203   1 H        0.926     0.033     2.543     2.494
   204   1 H        0.926     0.033     2.539     2.492
   205   1 H        0.926     0.030     2.583     2.513

 Mol. C6AA /au·bohr⁶  :     913949.605185
 Mol. C8AA /au·bohr⁸  :   25265939.675867
 Mol. α(0) /au        :       1561.754982


Wiberg/Mayer (AO) data.
largest (>0.10) Wiberg bond orders for each atom

 ---------------------------------------------------------------------------
     #   Z sym  total        # sym  WBO       # sym  WBO       # sym  WBO
 ---------------------------------------------------------------------------
     1   6 C    3.959 --     2 C    1.411     6 C    1.374   171 H    0.968
     2   6 C    3.977 --     3 C    1.468     1 C    1.411   172 H    0.971
     3   6 C    3.959 --     2 C    1.468     4 C    1.341   173 H    0.963
     4   6 C    3.973 --     3 C    1.341     7 C    1.295    35 C    1.144
     5   7 N    3.494 --     6 C    1.153    10 C    1.136   174 H    0.938
     6   6 C    3.960 --     1 C    1.374     7 C    1.257     5 N    1.153
     7   6 C    3.975 --     4 C    1.295     6 C    1.257     8 C    1.185
     8   6 C    3.955 --    11 C    1.283    39 C    1.276     7 C    1.185
     9   6 C    3.923 --    10 C    1.482    14 C    1.235   175 H    0.965
    10   6 C    3.950 --     9 C    1.482    11 C    1.176     5 N    1.136
    11   6 C    3.942 --     8 C    1.283    12 C    1.264    10 C    1.176
    12   6 C    3.972 --    11 C    1.264    15 C    1.261    43 C    1.231
    13   6 C    3.841 --    14 C    1.387    18 C    1.300   176 H    0.967
    14   6 C    3.977 --    13 C    1.387     9 C    1.235    15 C    1.198
    15   6 C    3.934 --    16 C    1.264    12 C    1.261    14 C    1.198
    16   6 C    3.976 --    19 C    1.280    15 C    1.264    47 C    1.213
    17   6 C    3.773 --    18 C    1.337    22 C    1.311   177 H    0.966
    18   6 C    3.977 --    17 C    1.337    13 C    1.300    19 C    1.188
    19   6 C    3.934 --    16 C    1.280    20 C    1.254    18 C    1.188
    20   6 C    3.974 --    23 C    1.284    19 C    1.254    51 C    1.220
    21   7 N    2.857 --    22 C    1.337    26 C    1.330
    22   6 C    3.965 --    21 N    1.337    17 C    1.311    23 C    1.161
    23   6 C    3.933 --    20 C    1.284    24 C    1.264    22 C    1.161
    24   6 C    3.971 --    27 C    1.266    23 C    1.264    55 C    1.230
    25   6 C    3.779 --    30 C    1.330    26 C    1.320   178 H    0.966
    26   6 C    3.971 --    21 N    1.330    25 C    1.320    27 C    1.159
    27   6 C    3.947 --    28 C    1.289    24 C    1.266    26 C    1.159
    28   6 C    3.974 --    27 C    1.289    31 C    1.241    59 C    1.225
    29   6 C    3.893 --    33 C    1.499    30 C    1.277   179 H    0.969
    30   6 C    3.984 --    25 C    1.330    29 C    1.277    31 C    1.216
    31   6 C    3.945 --    32 C    1.273    28 C    1.241    30 C    1.216
    32   6 C    3.979 --    34 C    1.379    31 C    1.273    63 C    1.135
    33   6 C    3.983 --    29 C    1.499    34 C    1.390   197 H    0.970
    34   6 C    3.887 --    33 C    1.390    32 C    1.379   198 H    0.963
    35   6 C    3.958 --    36 C    1.325    40 C    1.290     4 C    1.144
    36   6 C    3.964 --    37 C    1.510    35 C    1.325   180 H    0.961
    37   6 C    3.958 --    36 C    1.510    38 C    1.319   181 H    0.960
    38   6 C    3.961 --    37 C    1.319    41 C    1.288    69 C    1.158
    39   6 C    3.962 --     8 C    1.276    44 C    1.251    40 C    1.212
    40   6 C    3.981 --    35 C    1.290    41 C    1.252    39 C    1.212
    41   6 C    3.977 --    38 C    1.288    40 C    1.252    42 C    1.214
    42   6 C    3.957 --    45 C    1.269    73 C    1.259    41 C    1.214
    43   6 C    3.962 --    44 C    1.276    48 C    1.236    12 C    1.231
    44   6 C    3.967 --    43 C    1.276    39 C    1.251    45 C    1.219
    45   6 C    3.958 --    42 C    1.269    46 C    1.256    44 C    1.219
    46   6 C    3.964 --    45 C    1.256    77 C    1.248    49 C    1.243
    47   6 C    3.952 --    48 C    1.272    52 C    1.254    16 C    1.213
    48   6 C    3.965 --    47 C    1.272    49 C    1.240    43 C    1.236
    49   6 C    3.954 --    50 C    1.259    46 C    1.243    48 C    1.240
    50   6 C    3.961 --    49 C    1.259    53 C    1.256    81 C    1.231
    51   6 C    3.951 --    56 C    1.264    52 C    1.254    20 C    1.220
    52   6 C    3.967 --    51 C    1.254    47 C    1.254    53 C    1.242
    53   6 C    3.955 --    50 C    1.256    54 C    1.244    52 C    1.242
    54   6 C    3.961 --    57 C    1.268    53 C    1.244    85 C    1.234
    55   6 C    3.949 --    60 C    1.254    56 C    1.254    24 C    1.230
    56   6 C    3.966 --    51 C    1.264    55 C    1.254    57 C    1.230
    57   6 C    3.953 --    54 C    1.268    58 C    1.242    56 C    1.230
    58   6 C    3.964 --    61 C    1.254    89 C    1.250    57 C    1.242
    59   6 C    3.937 --    60 C    1.280    64 C    1.226    28 C    1.225
    60   6 C    3.970 --    59 C    1.280    55 C    1.254    61 C    1.215
    61   6 C    3.958 --    62 C    1.275    58 C    1.254    60 C    1.215
    62   6 C    3.961 --    61 C    1.275    93 C    1.248    65 C    1.220
    63   6 C    3.947 --    67 C    1.341    64 C    1.281    32 C    1.135
    64   6 C    3.981 --    63 C    1.281    65 C    1.249    59 C    1.226
    65   6 C    3.976 --    66 C    1.283    64 C    1.249    62 C    1.220
    66   6 C    3.964 --    68 C    1.331    65 C    1.283    97 C    1.153
    67   6 C    3.969 --    68 C    1.493    63 C    1.341   199 H    0.962
    68   6 C    3.952 --    67 C    1.493    66 C    1.331   200 H    0.961
    69   6 C    3.958 --    70 C    1.320    74 C    1.284    38 C    1.158
    70   6 C    3.960 --    71 C    1.512    69 C    1.320   182 H    0.960
    71   6 C    3.961 --    70 C    1.512    72 C    1.320   183 H    0.960
    72   6 C    3.956 --    71 C    1.320    75 C    1.285   103 C    1.156
    73   6 C    3.957 --    78 C    1.264    42 C    1.259    74 C    1.219
    74   6 C    3.978 --    69 C    1.284    75 C    1.250    73 C    1.219
    75   6 C    3.978 --    72 C    1.285    74 C    1.250    76 C    1.218
    76   6 C    3.955 --    79 C    1.270   107 C    1.252    75 C    1.218
    77   6 C    3.962 --    78 C    1.261    46 C    1.248    82 C    1.236
    78   6 C    3.959 --    73 C    1.264    77 C    1.261    79 C    1.219
    79   6 C    3.960 --    76 C    1.270    80 C    1.256    78 C    1.219
    80   6 C    3.961 --    79 C    1.256   111 C    1.249    83 C    1.240
    81   6 C    3.957 --    82 C    1.266    86 C    1.247    50 C    1.231
    82   6 C    3.957 --    81 C    1.266    83 C    1.242    77 C    1.236
    83   6 C    3.958 --    84 C    1.262    82 C    1.242    80 C    1.240
    84   6 C    3.957 --    83 C    1.262    87 C    1.249   115 C    1.232
    85   6 C    3.958 --    90 C    1.263    86 C    1.247    54 C    1.234
    86   6 C    3.960 --    87 C    1.251    85 C    1.247    81 C    1.247
    87   6 C    3.960 --    86 C    1.251    84 C    1.249    88 C    1.245
    88   6 C    3.957 --    91 C    1.265    87 C    1.245   119 C    1.233
    89   6 C    3.961 --    94 C    1.254    58 C    1.250    90 C    1.241
    90   6 C    3.958 --    85 C    1.263    89 C    1.241    91 C    1.240
    91   6 C    3.957 --    88 C    1.265    90 C    1.240    92 C    1.239
    92   6 C    3.961 --   123 C    1.253    95 C    1.253    91 C    1.239
    93   6 C    3.956 --    94 C    1.272    62 C    1.248    98 C    1.221
    94   6 C    3.961 --    93 C    1.272    89 C    1.254    95 C    1.219
    95   6 C    3.961 --    96 C    1.273    92 C    1.253    94 C    1.219
    96   6 C    3.956 --    95 C    1.273   127 C    1.248    99 C    1.220
    97   6 C    3.957 --   101 C    1.327    98 C    1.282    66 C    1.153
    98   6 C    3.978 --    97 C    1.282    99 C    1.251    93 C    1.221
    99   6 C    3.978 --   100 C    1.283    98 C    1.251    96 C    1.220
   100   6 C    3.958 --   102 C    1.326    99 C    1.283   131 C    1.153
   101   6 C    3.961 --   102 C    1.505    97 C    1.327   201 H    0.960
   102   6 C    3.960 --   101 C    1.505   100 C    1.326   202 H    0.960
   103   6 C    3.964 --   104 C    1.327   108 C    1.283    72 C    1.156
   104   6 C    3.952 --   105 C    1.498   103 C    1.327   184 H    0.960
   105   6 C    3.969 --   104 C    1.498   106 C    1.337   185 H    0.961
   106   6 C    3.947 --   105 C    1.337   109 C    1.283   137 C    1.137
   107   6 C    3.961 --   112 C    1.272    76 C    1.252   108 C    1.220
   108   6 C    3.976 --   103 C    1.283   109 C    1.250   107 C    1.220
   109   6 C    3.981 --   106 C    1.283   108 C    1.250   110 C    1.224
   110   6 C    3.936 --   113 C    1.279   141 C    1.229   109 C    1.224
   111   6 C    3.964 --   112 C    1.257    80 C    1.249   116 C    1.240
   112   6 C    3.957 --   107 C    1.272   111 C    1.257   113 C    1.214
   113   6 C    3.969 --   110 C    1.279   114 C    1.255   112 C    1.214
   114   6 C    3.948 --   113 C    1.255   117 C    1.247   145 C    1.236
   115   6 C    3.961 --   116 C    1.267   120 C    1.247    84 C    1.232
   116   6 C    3.952 --   115 C    1.267   111 C    1.240   117 C    1.234
   117   6 C    3.965 --   118 C    1.267   114 C    1.247   116 C    1.234
   118   6 C    3.950 --   117 C    1.267   121 C    1.253   149 C    1.218
   119   6 C    3.961 --   124 C    1.265   120 C    1.248    88 C    1.233
   120   6 C    3.955 --   119 C    1.248   121 C    1.248   115 C    1.247
   121   6 C    3.965 --   118 C    1.253   122 C    1.248   120 C    1.248
   122   6 C    3.955 --   125 C    1.275   121 C    1.248   153 C    1.218
   123   6 C    3.961 --    92 C    1.253   128 C    1.253   124 C    1.239
   124   6 C    3.952 --   119 C    1.265   123 C    1.239   125 C    1.237
   125   6 C    3.966 --   122 C    1.275   124 C    1.237   126 C    1.236
   126   6 C    3.960 --   157 C    1.263   129 C    1.243   125 C    1.236
   127   6 C    3.961 --   128 C    1.275    96 C    1.248   132 C    1.220
   128   6 C    3.958 --   127 C    1.275   123 C    1.253   129 C    1.216
   129   6 C    3.969 --   130 C    1.289   126 C    1.243   128 C    1.216
   130   6 C    3.947 --   129 C    1.289   161 C    1.225   133 C    1.221
   131   6 C    3.964 --   135 C    1.332   132 C    1.281   100 C    1.153
   132   6 C    3.977 --   131 C    1.281   133 C    1.252   127 C    1.220
   133   6 C    3.980 --   134 C    1.283   132 C    1.252   130 C    1.221
   134   6 C    3.950 --   136 C    1.341   133 C    1.283   165 C    1.134
   135   6 C    3.954 --   136 C    1.494   131 C    1.332   203 H    0.960
   136   6 C    3.969 --   135 C    1.494   134 C    1.341   204 H    0.961
   137   6 C    3.979 --   138 C    1.377   142 C    1.273   106 C    1.137
   138   6 C    3.886 --   139 C    1.392   137 C    1.377   186 H    0.962
   139   6 C    3.983 --   140 C    1.498   138 C    1.392   187 H    0.970
   140   6 C    3.892 --   139 C    1.498   143 C    1.276   188 H    0.969
   141   6 C    3.974 --   146 C    1.287   142 C    1.240   110 C    1.229
   142   6 C    3.945 --   137 C    1.273   141 C    1.240   143 C    1.217
   143   6 C    3.985 --   144 C    1.331   140 C    1.276   142 C    1.217
   144   6 C    3.784 --   147 C    1.335   143 C    1.331   189 H    0.966
   145   6 C    3.974 --   146 C    1.267   150 C    1.255   114 C    1.236
   146   6 C    3.951 --   141 C    1.287   145 C    1.267   147 C    1.176
   147   6 C    3.985 --   144 C    1.335   148 C    1.318   146 C    1.176
   148   6 C    3.764 --   151 C    1.338   147 C    1.318   190 H    0.966
   149   6 C    3.975 --   150 C    1.284   154 C    1.256   118 C    1.218
   150   6 C    3.938 --   149 C    1.284   145 C    1.255   151 C    1.183
   151   6 C    3.979 --   148 C    1.338   152 C    1.306   150 C    1.183
   152   6 C    3.821 --   155 C    1.371   151 C    1.306   191 H    0.967
   153   6 C    3.971 --   158 C    1.277   154 C    1.263   122 C    1.218
   154   6 C    3.929 --   153 C    1.263   149 C    1.256   155 C    1.201
   155   6 C    3.977 --   152 C    1.371   156 C    1.249   154 C    1.201
   156   6 C    3.910 --   159 C    1.460   155 C    1.249   192 H    0.966
   157   6 C    3.955 --   126 C    1.263   158 C    1.245   162 C    1.238
   158   6 C    3.920 --   153 C    1.277   157 C    1.245   159 C    1.190
   159   6 C    3.952 --   156 C    1.460   158 C    1.190   160 N    1.145
   160   7 N    3.484 --   159 C    1.145   163 C    1.139   193 H    0.938
   161   6 C    3.975 --   162 C    1.293   166 C    1.235   130 C    1.225
   162   6 C    3.946 --   161 C    1.293   157 C    1.238   163 C    1.191
   163   6 C    3.961 --   164 C    1.465   162 C    1.191   160 N    1.139
   164   6 C    3.930 --   163 C    1.465   167 C    1.256   194 H    0.965
   165   6 C    3.981 --   169 C    1.386   166 C    1.266   134 C    1.134
   166   6 C    3.977 --   165 C    1.266   167 C    1.245   161 C    1.235
   167   6 C    3.984 --   168 C    1.313   164 C    1.256   166 C    1.245
   168   6 C    3.939 --   170 C    1.479   167 C    1.313   195 H    0.969
   169   6 C    3.935 --   170 C    1.407   165 C    1.386   205 H    0.962
   170   6 C    3.982 --   168 C    1.479   169 C    1.407   196 H    0.971
   171   1 H    0.998 --     1 C    0.968
   172   1 H    0.998 --     2 C    0.971
   173   1 H    0.998 --     3 C    0.963
   174   1 H    0.971 --     5 N    0.938
   175   1 H    0.998 --     9 C    0.965
   176   1 H    0.998 --    13 C    0.967
   177   1 H    0.996 --    17 C    0.966
   178   1 H    0.996 --    25 C    0.966
   179   1 H    0.998 --    29 C    0.969
   180   1 H    0.998 --    36 C    0.961
   181   1 H    0.998 --    37 C    0.960
   182   1 H    0.998 --    70 C    0.960
   183   1 H    0.998 --    71 C    0.960
   184   1 H    0.998 --   104 C    0.960
   185   1 H    0.998 --   105 C    0.961
   186   1 H    0.998 --   138 C    0.962
   187   1 H    0.998 --   139 C    0.970
   188   1 H    0.998 --   140 C    0.969
   189   1 H    0.998 --   144 C    0.966
   190   1 H    0.998 --   148 C    0.966
   191   1 H    0.998 --   152 C    0.967
   192   1 H    0.998 --   156 C    0.966
   193   1 H    0.972 --   160 N    0.938
   194   1 H    0.998 --   164 C    0.965
   195   1 H    0.998 --   168 C    0.969
   196   1 H    0.998 --   170 C    0.971
   197   1 H    0.998 --    33 C    0.970
   198   1 H    0.998 --    34 C    0.963
   199   1 H    0.998 --    67 C    0.962
   200   1 H    0.998 --    68 C    0.961
   201   1 H    0.998 --   101 C    0.960
   202   1 H    0.998 --   102 C    0.960
   203   1 H    0.998 --   135 C    0.960
   204   1 H    0.998 --   136 C    0.961
   205   1 H    0.999 --   169 C    0.962
 ---------------------------------------------------------------------------

Topologies differ in total number of bonds
Writing topology from bond orders to xtbtopo.mol

molecular dipole:
                 x           y           z       tot (Debye)
 q only:        1.364      -1.274      -0.001
   full:        1.825      -1.326      -0.001       5.734
molecular quadrupole (traceless):
                xx          xy          yy          xz          yz          zz
 q only:       27.468      36.865      18.672       0.003      -0.015     -46.141
  q+dip:       69.094      45.348      60.649       0.001      -0.019    -129.743
   full:       37.410      45.472      28.140       0.011      -0.019     -65.550


           -------------------------------------------------
          | TOTAL ENERGY             -385.789824562364 Eh   |
          | GRADIENT NORM               0.000585229043 Eh/α |
          | HOMO-LUMO GAP               0.029667753418 eV   |
           -------------------------------------------------

------------------------------------------------------------------------
 * finished run on 2025/12/08 at 00:43:03.727     
------------------------------------------------------------------------
 total:
 * wall-time:     0 d,  0 h,  0 min,  0.685 sec
 *  cpu-time:     0 d,  0 h,  0 min,  8.625 sec
 * ratio c/w:    12.591 speedup
 SCF:
 * wall-time:     0 d,  0 h,  0 min,  0.577 sec
 *  cpu-time:     0 d,  0 h,  0 min,  7.516 sec
 * ratio c/w:    13.025 speedup

normal termination of xtb
