205
 energy: -385.764891744668 gnorm: 0.050517606594 xtb: 6.7.1pre (5071a88)
C          -10.54973500000000       -7.87248300000000       -0.00170500000000
C           -9.95578000000000       -9.13680800000000       -0.00290800000000
C           -8.57519100000000       -9.28609500000000       -0.00312400000000
C           -7.73113100000000       -8.15501100000000       -0.00237800000000
N          -10.29221400000000       -5.47098200000000        0.00037800000000
C           -9.73826700000000       -6.73681800000000       -0.00094400000000
C           -8.32263400000000       -6.86608600000000       -0.00107600000000
C           -7.51048200000000       -5.67752200000000       -0.00048300000000
C          -10.18003800000000       -3.06201500000000        0.00222200000000
C           -9.56595000000000       -4.29328300000000        0.00093800000000
C           -8.13005000000000       -4.40866800000000        0.00024100000000
C           -7.34836200000000       -3.22416300000000        0.00154500000000
C          -10.01365300000000       -0.59271200000000        0.00340900000000
C           -9.41635100000000       -1.85514400000000        0.00234000000000
C           -7.97859100000000       -1.95210400000000        0.00098700000000
C           -7.19214200000000       -0.77211300000000        0.00288400000000
C           -9.85259000000000        1.88004300000000        0.00343000000000
C           -9.25648900000000        0.60342200000000        0.00289900000000
C           -7.81833300000000        0.49720600000000        0.00147800000000
C           -7.03028500000000        1.67797900000000        0.00261900000000
N           -9.72120100000000        4.27048200000000        0.00244500000000
C           -9.09595400000000        3.06863000000000        0.00262200000000
C           -7.65394700000000        2.94512300000000        0.00152600000000
C           -6.86594400000000        4.12060900000000        0.00150700000000
C           -9.58837000000000        6.65686500000000        0.00120700000000
C           -8.96534600000000        5.40031000000000        0.00149700000000
C           -7.51727000000000        5.37643500000000        0.00097000000000
C           -6.75559200000000        6.56877300000000        0.00005400000000
C           -9.50034300000000        9.12658400000000       -0.00047000000000
C           -8.85501300000000        7.86225400000000        0.00006500000000
C           -7.41526600000000        7.83215800000000       -0.00029700000000
C           -6.66356000000000        9.04397500000000       -0.00145100000000
C           -8.76028500000000       10.29473100000000       -0.00154000000000
C           -7.35814000000000       10.26289000000000       -0.00195500000000
C           -6.27378800000000       -8.25036200000000       -0.00224800000000
C           -5.61458000000000       -9.49516400000000       -0.00324400000000
C           -4.23988500000000       -9.58754600000000       -0.00275800000000
C           -3.41943900000000       -8.43997400000000       -0.00173900000000
C           -6.09580300000000       -5.78005400000000       -0.00102300000000
C           -5.47565200000000       -7.07284500000000       -0.00146300000000
C           -4.04577200000000       -7.16621800000000       -0.00122400000000
C           -3.24387500000000       -5.97293600000000        0.00014100000000
C           -5.92318200000000       -3.32614400000000       -0.00130500000000
C           -5.30047800000000       -4.60047500000000        0.00101000000000
C           -3.86960200000000       -4.69771900000000       -0.00187200000000
C           -3.07862900000000       -3.51342800000000        0.00287100000000
C           -5.76082200000000       -0.86836800000000       -0.00159000000000
C           -5.13149600000000       -2.13938800000000        0.00339400000000
C           -3.70784800000000       -2.23278000000000       -0.00323500000000
C           -2.92001500000000       -1.05019200000000        0.00463300000000
C           -5.60160800000000        1.58963300000000       -0.00115400000000
C           -4.97059200000000        0.31511800000000        0.00403300000000
C           -3.54869800000000        0.22528200000000       -0.00352100000000
C           -2.76144400000000        1.41405100000000        0.00450200000000
C           -5.44674500000000        4.04263100000000       -0.00048500000000
C           -4.81528500000000        2.77046500000000        0.00301600000000
C           -3.39089700000000        2.68449800000000       -0.00273000000000
C           -2.60828000000000        3.87814600000000        0.00270900000000
C           -5.32367300000000        6.49537400000000       -0.00043100000000
C           -4.67595700000000        5.23722100000000        0.00090800000000
C           -3.24443600000000        5.15324400000000       -0.00139900000000
C           -2.46718500000000        6.33843500000000        0.00021200000000
C           -5.20132900000000        8.96581600000000       -0.00156400000000
C           -4.54960500000000        7.69925300000000       -0.00100500000000
C           -3.11768600000000        7.61834800000000       -0.00095700000000
C           -2.33933100000000        8.80638100000000       -0.00153600000000
C           -4.39384400000000       10.11772300000000       -0.00250600000000
C           -3.01538500000000       10.04236200000000       -0.00229700000000
C           -1.97040700000000       -8.53132200000000       -0.00067900000000
C           -1.30634800000000       -9.77499600000000       -0.00058400000000
C            0.06672700000000       -9.86109500000000        0.00040600000000
C            0.87998500000000       -8.70989900000000        0.00090100000000
C           -1.82010500000000       -6.06368300000000       -0.00095500000000
C           -1.18288200000000       -7.34869600000000       -0.00011900000000
C            0.24675100000000       -7.43850000000000        0.00050700000000
C            1.03997000000000       -6.24331200000000        0.00109500000000
C           -1.65623400000000       -3.60562900000000       -0.00278300000000
C           -1.02855300000000       -4.88227900000000        0.00183700000000
C            0.40447600000000       -4.97279000000000       -0.00125300000000
C            1.19033400000000       -3.78463300000000        0.00255000000000
C           -1.49408300000000       -1.14130900000000       -0.00403600000000
C           -0.86602500000000       -2.41511500000000        0.00393600000000
C            0.55757900000000       -2.50441000000000       -0.00336300000000
C            1.34204500000000       -1.31945000000000        0.00377900000000
C           -1.33683500000000        1.32639600000000       -0.00390000000000
C           -0.70698300000000        0.04767400000000        0.00456100000000
C            0.71279200000000       -0.04128000000000       -0.00407400000000
C            1.49838600000000        1.14885600000000        0.00374200000000
C           -1.18703000000000        3.79169200000000       -0.00258700000000
C           -0.55374800000000        2.51219800000000        0.00390800000000
C            0.87031300000000        2.42270000000000       -0.00330400000000
C            1.65877200000000        3.61424400000000        0.00244500000000
C           -1.04131000000000        6.25093400000000       -0.00093600000000
C           -0.40440300000000        4.98178300000000        0.00177600000000
C            1.02826900000000        4.89231700000000       -0.00131800000000
C            1.81647800000000        6.07333100000000        0.00087100000000
C           -0.88814500000000        8.71817600000000       -0.00082100000000
C           -0.25122700000000        7.44699500000000       -0.00023900000000
C            1.17838400000000        7.35790900000000        0.00016500000000
C            1.96509900000000        8.54093600000000        0.00035900000000
C           -0.07453700000000        9.86827900000000       -0.00098300000000
C            1.30000700000000        9.78291600000000       -0.00020900000000
C            2.32918000000000       -8.79925000000000        0.00206400000000
C            2.99969500000000      -10.03867700000000        0.00333600000000
C            4.37598200000000      -10.12051500000000        0.00357800000000
C            5.18368200000000       -8.96965200000000        0.00227200000000
C            2.46511000000000       -6.33101100000000        0.00048100000000
C            3.11016300000000       -7.61327300000000        0.00126200000000
C            4.54032400000000       -7.69985600000000        0.00162700000000
C            5.31940400000000       -6.49871100000000        0.00050500000000
C            2.61268200000000       -3.87259500000000       -0.00177100000000
C            3.24671400000000       -5.14702500000000        0.00107200000000
C            4.67937000000000       -5.23336100000000       -0.00011000000000
C            5.45859500000000       -4.04170100000000       -0.00017300000000
C            2.76761800000000       -1.40890100000000       -0.00342800000000
C            3.39801500000000       -2.68066700000000        0.00190400000000
C            4.82341000000000       -2.76679900000000       -0.00196300000000
C            5.60607000000000       -1.58280100000000       -0.00014400000000
C            2.92359800000000        1.05881000000000       -0.00337200000000
C            3.55347200000000       -0.21962600000000        0.00227400000000
C            4.97450400000000       -0.30897700000000       -0.00280100000000
C            5.76068000000000        0.87737500000000       -0.00019700000000
C            3.08030600000000        3.52377200000000       -0.00176700000000
C            3.70882500000000        2.24179500000000        0.00179300000000
C            5.13296000000000        2.14797700000000       -0.00196300000000
C            5.92333200000000        3.33516800000000       -0.00034000000000
C            3.24234300000000        5.98225300000000        0.00019400000000
C            3.86908100000000        4.71015100000000        0.00085700000000
C            5.30124900000000        4.61764000000000       -0.00025300000000
C            6.09494800000000        5.79028000000000        0.00028700000000
C            3.41496400000000        8.44827100000000        0.00138100000000
C            4.04282700000000        7.17387900000000        0.00083300000000
C            5.47303600000000        7.08063600000000        0.00122600000000
C            6.27139000000000        8.25968600000000        0.00177800000000
C            4.23527300000000        9.59300100000000        0.00230700000000
C            5.61166800000000        9.50126900000000        0.00263300000000
C            6.64196100000000       -9.04938700000000        0.00203100000000
C            7.33458500000000      -10.27028400000000        0.00252100000000
C            8.73570100000000      -10.33039100000000        0.00204300000000
C            9.48451700000000       -9.17058800000000        0.00096100000000
C            6.74876800000000       -6.57592300000000        0.00042500000000
C            7.40050400000000       -7.84508300000000        0.00078100000000
C            8.83826800000000       -7.90793600000000        0.00036600000000
C            9.58281000000000       -6.71685100000000       -0.00079800000000
C            6.88329000000000       -4.12287700000000       -0.00109100000000
C            7.51834000000000       -5.38976000000000       -0.00088900000000
C            8.95905000000000       -5.46100500000000       -0.00124700000000
C            9.71531500000000       -4.27274800000000       -0.00238600000000
C            7.03510300000000       -1.67066600000000       -0.00216900000000
C            7.66386000000000       -2.93615800000000       -0.00195400000000
C            9.10408900000000       -3.01142100000000       -0.00250200000000
C            9.86561000000000       -1.82250200000000       -0.00337200000000
C            7.18925100000000        0.78340700000000       -0.00220100000000
C            7.82204500000000       -0.48720600000000       -0.00220900000000
C            9.26101300000000       -0.56319400000000       -0.00303600000000
C           10.02286600000000        0.63833700000000       -0.00338900000000
C            7.34025600000000        3.23843100000000       -0.00120600000000
C            7.96806200000000        1.96476900000000       -0.00191600000000
C            9.40177000000000        1.86908500000000       -0.00258300000000
N           10.12079100000000        3.04613400000000       -0.00248100000000
C            7.52449300000000        5.69338900000000        0.00018000000000
C            8.13439200000000        4.41947000000000       -0.00103000000000
C            9.56433000000000        4.31414200000000       -0.00132200000000
C           10.34801800000000        5.44588600000000       -0.00083900000000
C            7.73020400000000        8.16354300000000        0.00182800000000
C            8.33255500000000        6.87187200000000        0.00060500000000
C            9.75896300000000        6.74007100000000        0.00035500000000
C           10.55314700000000        7.90718600000000        0.00113400000000
C            8.56524000000000        9.29044300000000        0.00262100000000
C            9.95779900000000        9.15839300000000        0.00231000000000
H          -11.63096400000000       -7.76709000000000       -0.00148900000000
H          -10.58933800000000      -10.01920200000000       -0.00352500000000
H           -8.16016500000000      -10.28623400000000       -0.00408600000000
H          -11.30169000000000       -5.39945500000000        0.00026300000000
H          -11.26520600000000       -2.99801700000000        0.00243800000000
H          -11.09908200000000       -0.52297600000000        0.00360900000000
H          -10.93598200000000        1.96523900000000        0.00363400000000
H          -10.67443200000000        6.69179100000000        0.00148400000000
H          -10.58675400000000        9.16149500000000       -0.00013300000000
H           -6.18697000000000      -10.41496200000000       -0.00387900000000
H           -3.79899600000000      -10.57639300000000       -0.00366800000000
H           -1.87173800000000      -10.69833100000000       -0.00077200000000
H            0.51249900000000      -10.84766500000000        0.00011400000000
H            2.43943900000000      -10.96507500000000        0.00450500000000
H            4.82554900000000      -11.10592600000000        0.00451100000000
H            6.78942900000000      -11.20649100000000        0.00328700000000
H            9.22585400000000      -11.29888000000000        0.00249000000000
H           10.56985000000000       -9.20730300000000        0.00059200000000
H           10.66815900000000       -6.77071300000000       -0.00116200000000
H           10.80005900000000       -4.33858200000000       -0.00275200000000
H           10.94982500000000       -1.89447400000000       -0.00367800000000
H           11.10728700000000        0.57457200000000       -0.00367700000000
H           11.13072800000000        2.97825100000000       -0.00244900000000
H           11.43127800000000        5.35958700000000       -0.00111600000000
H           11.63543400000000        7.81042900000000        0.00087900000000
H           10.57593400000000       10.05179300000000        0.00296700000000
H           -9.26727500000000       11.25604600000000       -0.00197000000000
H           -6.82308800000000       11.20516600000000       -0.00279400000000
H           -4.84822200000000       11.10130600000000       -0.00296200000000
H           -2.45891800000000       10.97157000000000       -0.00310900000000
H           -0.52107200000000       10.85471500000000       -0.00126100000000
H            1.86423000000000       10.70716100000000       -0.00065900000000
H            3.79500200000000       10.58218200000000        0.00311400000000
H            6.18160100000000       10.42250400000000        0.00321600000000
H            8.14476300000000       10.28874300000000        0.00357300000000
205
 energy: -385.779355453045 gnorm: 0.022568251107 xtb: 6.7.1pre (5071a88)
C          -10.52500718180403       -7.85407994325946       -0.00169314795632
C           -9.93710319800497       -9.11220741870025       -0.00286229410745
C           -8.56404995144010       -9.25859789260633       -0.00311062770441
C           -7.71628460664304       -8.13653663846733       -0.00226123783160
N          -10.26988301647928       -5.46162939059180        0.00037132858259
C           -9.71673668775397       -6.72191479029634       -0.00088033685647
C           -8.30592159251256       -6.85254929577888       -0.00115468254475
C           -7.49511737595809       -5.66875583621501       -0.00043278932156
C          -10.15302399514185       -3.05742099156908        0.00202853029234
C           -9.54360745825256       -4.28765367207152        0.00093962204799
C           -8.11368964553530       -4.40138224679770        0.00032788377197
C           -7.33374077257956       -3.21974963928859        0.00102717752150
C           -9.98855866243399       -0.59009857602880        0.00307284469485
C           -9.39364213840796       -1.85164182553388        0.00231228770217
C           -7.96259985224250       -1.94971742936278        0.00135680614851
C           -7.17817211722506       -0.77119518176937        0.00192408556811
C           -9.82798369194104        1.87956859369462        0.00316917781255
C           -9.23436185270918        0.60415780466691        0.00286600475198
C           -7.80208189733324        0.49696449009127        0.00182248160660
C           -7.01464087772028        1.67470695333361        0.00197542756088
N           -9.68234609646768        4.26316300378947        0.00241988684278
C           -9.06840281971592        3.06487044465914        0.00253206281441
C           -7.63361372210054        2.94031511314725        0.00164991995851
C           -6.84853251883725        4.11427997599495        0.00128934545792
C           -9.56540330085941        6.64308320337816        0.00114362369350
C           -8.93835742326868        5.38921553945767        0.00155781231155
C           -7.49742594827422        5.36770902848323        0.00092829145318
C           -6.74065126594323        6.55755726326248        0.00012416404572
C           -9.47969722336107        9.10326558806046       -0.00046467903515
C           -8.83438921862854        7.84449360391983        0.00010840054756
C           -7.40115233461175        7.81532392782496       -0.00034649899018
C           -6.65273522131139        9.02211312733413       -0.00135056782417
C           -8.74533025144065       10.26562558219292       -0.00151077947495
C           -7.35155830313119       10.23343341079349       -0.00193167466585
C           -6.26474418964218       -8.23136292621002       -0.00226481861026
C           -5.60578547760196       -9.47027692864341       -0.00312177705858
C           -4.23624968941141       -9.56180002951607       -0.00278325720322
C           -3.41374858322498       -8.42103108817923       -0.00160575259449
C           -6.08427002165420       -5.77101233197547       -0.00082777467310
C           -5.46585471219089       -7.05955782601406       -0.00139062483480
C           -4.04006090232230       -7.15186983175320       -0.00121075001790
C           -3.23858758783349       -5.96355024309783       -0.00029435971666
C           -5.91225121025015       -3.32151707958346       -0.00006162126163
C           -5.29032744042621       -4.59354992962263        0.00015014697876
C           -3.86333036958160       -4.69079139442146       -0.00065018751964
C           -3.07367550896785       -3.50886888459845        0.00078103358343
C           -5.75092323757104       -0.86751706527791        0.00032143509932
C           -5.12279227366103       -2.13672563593907        0.00133761088924
C           -3.70189534723587       -2.23057635640012       -0.00058601793439
C           -2.91498943625051       -1.04933784298852        0.00152675447439
C           -5.59033145465070        1.58655190681203        0.00045409842549
C           -4.96221361281323        0.31379703013231        0.00173608945294
C           -3.54256925428199        0.22451551174214       -0.00050145862716
C           -2.75619396730561        1.41142199860683        0.00154444998339
C           -5.43264951457061        4.03643557438007        0.00027464563863
C           -4.80478531587147        2.76582320810184        0.00138412586948
C           -3.38360401096666        2.68090209035847       -0.00041626153279
C           -2.60340594015357        3.87260091240622        0.00083461754758
C           -5.31364859686330        6.48510677838213       -0.00032953282418
C           -4.66541269941331        5.22899438666777        0.00034379765894
C           -3.23813949883158        5.14517391214949       -0.00041101946638
C           -2.46319311068614        6.32893996437424       -0.00017367916242
C           -5.19605716878767        8.94563590997588       -0.00156842918848
C           -4.54258545432879        7.68508392742461       -0.00092130882208
C           -3.11465570923682        7.60368365830566       -0.00093540547760
C           -2.33701443562284        8.78730420004902       -0.00140481747815
C           -4.38976883144611       10.09194923655190       -0.00239833793727
C           -3.01626227030155       10.01658740593834       -0.00230755630414
C           -1.96819145120508       -8.51181417020830       -0.00076546622478
C           -1.30235947512716       -9.74908930983501       -0.00052036520028
C            0.06622252202231       -9.83485749361994        0.00031869155230
C            0.88099692093587       -8.69033384864225        0.00095641526453
C           -1.81727964321240       -6.05399223575001       -0.00047535803135
C           -1.17993142634327       -7.33425251096075       -0.00012744018869
C            0.24657880906835       -7.42370255217276        0.00046508120439
C            1.03966219701396       -6.23336501321362        0.00074894430350
C           -1.65334682185124       -3.60079896503284       -0.00062312620595
C           -1.02586687112697       -4.87513049108798        0.00052843801529
C            0.40408251474936       -4.96540399521714       -0.00011963044743
C            1.18913824205622       -3.77962654214018        0.00075365422611
C           -1.49159343652698       -1.14007140937752       -0.00086263787864
C           -0.86433047496278       -2.41252029396482        0.00117033520619
C            0.55714686878266       -2.50184856145504       -0.00080571606174
C            1.34058965614884       -1.31792446075515        0.00097151660217
C           -1.33416994032472        1.32410186136642       -0.00081796557600
C           -0.70587148335184        0.04719018344426        0.00137552698265
C            0.71218241281750       -0.04145871689414       -0.00104345826289
C            1.49622602101933        1.14735315697846        0.00096486783184
C           -1.18435687533099        3.78633863201738       -0.00054112069933
C           -0.55243454280318        2.50902151810226        0.00117975700524
C            0.86923060512945        2.42006759582650       -0.00078413258625
C            1.65590756088398        3.60959821623840        0.00068765298507
C           -1.03997770848903        6.24140582519365       -0.00045778208562
C           -0.40308166584830        4.97448528168446        0.00050173625594
C            1.02634948015233        4.88528272472941       -0.00020556754734
C            1.81386274308366        6.06419142777535        0.00051570208116
C           -0.88918402539247        8.69902109041805       -0.00088109314441
C           -0.25076943589627        7.43294964192077       -0.00026169017704
C            1.17562666738286        7.34399632162987        0.00015244858058
C            1.96293829347605        8.52216069017881        0.00041865196409
C           -0.07449682872160        9.84256866680682       -0.00091391434778
C            1.29554258446141        9.75753901664397       -0.00028510035195
C            2.32686511840118       -8.78022007846916        0.00190891655624
C            2.99924422236369      -10.01348704261919        0.00330801079995
C            4.37071657044993      -10.09513934220498        0.00350917635632
C            5.17858740203014       -8.95051013596728        0.00227393705342
C            2.46255894829447       -6.32135195918572        0.00060333818043
C            3.10797317021299       -7.59886349614284        0.00134275898787
C            4.53465608881606       -7.68550297525953        0.00145408611120
C            5.31206710355702       -6.48847656530254        0.00060127594673
C            2.60963469870362       -3.86724221562006       -0.00041790609178
C            3.24360560295472       -5.13924440483107        0.00053498683240
C            4.67298426558828       -5.22535057098825        0.00002977283536
C            5.45033993903548       -4.03595933118861       -0.00043165342960
C            2.76371343099052       -1.40691259970879       -0.00110211041761
C            3.39353800404940       -2.67725235672933        0.00028507800179
C            4.81633877903553       -2.76327981946750       -0.00106117894260
C            5.59701200204164       -1.58000416200760       -0.00088620216716
C            2.91880557854802        1.05745125935733       -0.00109816709759
C            3.54746092429720       -0.21906584976821        0.00018846309459
C            4.96599199122500       -0.30808697079817       -0.00151212497449
C            5.74960487862642        0.87751411727595       -0.00091263646164
C            3.07510161432541        3.51943627873510       -0.00048287175967
C            3.70218617947686        2.23972841220355        0.00023082214117
C            5.12320647417564        2.14667865128998       -0.00112035655012
C            5.91102074954813        3.33241586616003       -0.00055530081989
C            3.23717289287434        5.97405828190514        0.00033025260910
C            3.86269656093508        4.70381658652918        0.00035958657659
C            5.29085600771500        4.61219035834706       -0.00013688839427
C            6.08326099683340        5.78256584178249        0.00036470403564
C            3.40959532482661        8.43073336716084        0.00124141526797
C            4.03743070236653        7.16087596812877        0.00090810180146
C            5.46359467910070        7.06853844559157        0.00107559129614
C            6.26283796937293        8.24154448980477        0.00178270390873
C            4.23161636059295        9.56880989287341        0.00228605795371
C            5.60323248723423        9.47729897033866        0.00256749842463
C            6.63136250580117       -9.03468337463038        0.00195446478206
C            7.32245945098003      -10.25124007563262        0.00249609863105
C            8.71504247064019      -10.30904604446317        0.00203503747536
C            9.45933029940737       -9.15511074331579        0.00096229090064
C            6.73751395922539       -6.56756270629714        0.00027864033194
C            7.38664373314608       -7.83426257528101        0.00082475405984
C            8.81727758069118       -7.89627436569038        0.00034696657113
C            9.55929766264946       -6.70877595616494       -0.00078917519008
C            6.87200990023828       -4.11675275478903       -0.00111906149322
C            7.50556864312547       -5.38256850599662       -0.00076497799561
C            8.94074200177354       -5.45392556976789       -0.00129682996042
C            9.69161682118225       -4.26726569934946       -0.00232565191022
C            7.02261334813010       -1.66626360467477       -0.00195053325071
C            7.64980309063990       -2.93052566270181       -0.00185303477304
C            9.08365586209044       -3.00701295057161       -0.00253391099769
C            9.83879460601688       -1.81893704215735       -0.00323402939002
C            7.17409288154851        0.78434166910343       -0.00197310087335
C            7.80518370692913       -0.48328573094639       -0.00222828746206
C            9.23648972260890       -0.56133256815394       -0.00300360103137
C            9.99353476254916        0.64004768173949       -0.00323693812334
C            7.32381076538925        3.23623515787296       -0.00123261184825
C            7.94997961582380        1.96437401266864       -0.00187927336470
C            9.37755182628370        1.87020293291784       -0.00254390329498
N           10.09730398625222        3.04425211281516       -0.00244970592914
C            7.50813561538854        5.68614776094674        0.00006658464852
C            8.11614992661870        4.41462585401514       -0.00091534074435
C            9.54138725966807        4.30785178421824       -0.00135158953503
C           10.32120891323888        5.43876731060086       -0.00081216146865
C            7.71651909994443        8.14642091700274        0.00174974491703
C            8.31563959080828        6.85931446299508        0.00065761241851
C            9.73570708499822        6.72937837219032        0.00032862241666
C           10.52813612332639        7.89131054270851        0.00112287071427
C            8.55334408965650        9.26618133075011        0.00258982708339
C            9.93787041485899        9.13548736780149        0.00229414621909
H          -11.60306980375412       -7.75334547508273       -0.00148905120974
H          -10.56959079345402       -9.99174193394536       -0.00352288765971
H           -8.15707563749559      -10.25802996432333       -0.00404613399930
H          -11.27889348221110       -5.39160097388750        0.00030138133848
H          -11.23489651474487       -2.99262003908608        0.00246115912302
H          -11.07040463908972       -0.52018154445379        0.00369501293241
H          -10.90749978127390        1.96590692509662        0.00371334821394