205
 energy: -385.789824562243 gnorm: 0.000585055383 xtb: 6.7.1pre (5071a88)
C          -10.47320208938013       -7.80612977515012       -0.00162706051684
C           -9.88867317096925       -9.06254152239892       -0.00274735533845
C           -8.51863319179885       -9.20879637707952       -0.00297601798092
C           -7.67215353465029       -8.09186786092174       -0.00211422570353
N          -10.22047488127956       -5.42513770254799        0.00030415754716
C           -9.66640747776221       -6.67791581308748       -0.00079714241621
C           -8.26041235913871       -6.81188642766472       -0.00107700419624
C           -7.45129729420472       -5.63597051215432       -0.00037022787770
C          -10.10206312424953       -3.03396584887641        0.00176206109951
C           -9.49282502223531       -4.26000421026528        0.00086901904771
C           -8.06972319617278       -4.37315803181373        0.00046471800702
C           -7.29036682033832       -3.19959886907659        0.00087758359622
C           -9.94003535168569       -0.58235216079029        0.00267892790885
C           -9.34265940111813       -1.83733470510573        0.00205333742386
C           -7.91872089944183       -1.93654278283463        0.00152630439381
C           -7.13461743833952       -0.76576628302729        0.00159485023308
C           -9.78127312526193        1.86951257889907        0.00278413491787
C           -9.18432212947969        0.60243670020309        0.00254329282305
C           -7.75846562179786        0.49497504789456        0.00196263012531
C           -6.97037284495812        1.66335371897736        0.00168678043087
N           -9.62780855379268        4.23581050427878        0.00215699405053
C           -9.01731917985986        3.04518411640402        0.00225973096545
C           -7.58880127239060        2.92133427930423        0.00173175049399
C           -6.80648155932703        4.08897807748352        0.00118985062026
C           -9.52164937129793        6.59957789725033        0.00105055379151
C           -8.88882392243282        5.35295257873405        0.00143603046545
C           -7.45403068166496        5.33535403868615        0.00096045484364
C           -6.70041231656569        6.51951397243441        0.00020950895560
C           -9.43932212149741        9.04532934822788       -0.00043925907303
C           -8.79007188087692        7.79414231029916        0.00013696442675
C           -7.36291226026652        7.76903070539960       -0.00026936241036
C           -6.61807522193139        8.97161241300339       -0.00119366661214
C           -8.70872702949574       10.20698360980157       -0.00142009301465
C           -7.31850455301927       10.17756554261940       -0.00179228956418
C           -6.22990654233839       -8.18965612924585       -0.00214369392433
C           -5.57657223415691       -9.42776611926616       -0.00298652246646
C           -4.21106649021899       -9.51994895098134       -0.00264616476198
C           -3.39311567625052       -8.38133178020438       -0.00151603957876
C           -6.04726569396536       -5.73974207370753       -0.00056052488552
C           -5.43299633123859       -7.02294107368192       -0.00127343689303
C           -4.01515321405021       -7.11562222380248       -0.00107334205595
C           -3.21771294556947       -5.93371891588071       -0.00045508410492
C           -5.87575992575336       -3.30205171986619        0.00051909915080
C           -5.25608688686865       -4.56778565155254       -0.00002686159639
C           -3.83798656535081       -4.66560560802683       -0.00012947593201
C           -3.05205743626641       -3.49006514757183        0.00017570388837
C           -5.71522427618397       -0.86213981816078        0.00110813543499
C           -5.08937078062922       -2.12471792935380        0.00074747465425
C           -3.67637036378824       -2.21896301202593        0.00042808440260
C           -2.89276868735243       -1.04404691787522        0.00050832079366
C           -5.55389501527523        1.57637332820660        0.00118234475110
C           -4.92886725260492        0.31120972712517        0.00104715072966
C           -3.51673379667491        0.22281008688840        0.00064254399729
C           -2.73485613829906        1.40277462905874        0.00053550382758
C           -5.39635105051076        4.01306995881914        0.00076158395331
C           -4.77166334875162        2.74945189795342        0.00087093004984
C           -3.35862328974869        2.66639670649908        0.00050574221551
C           -2.58467830917233        3.85220621083871        0.00026198678445
C           -5.28130070821739        6.45078794560702       -0.00010080253666
C           -4.63420502693324        5.19993707151379        0.00025686668595
C           -3.21590393031280        5.11807769403349        0.00004512796196
C           -2.44729694707971        6.29908358685932       -0.00030554009036
C           -5.17009744935641        8.90106543287338       -0.00141445466960
C           -4.51639577699266        7.64639929113673       -0.00077154720973
C           -3.09638755580435        7.56674715504964       -0.00078052572623
C           -2.32442104804682        8.74815846377258       -0.00128364442474
C           -4.37062050109751       10.04771912359175       -0.00223390005873
C           -3.00076289062802        9.97415117192734       -0.00214552253201
C           -1.95722012999709       -8.47260752760398       -0.00078466186214
C           -1.29836605966529       -9.70860993366508       -0.00052401703385
C            0.06602805149090       -9.79437243473503        0.00033619769717
C            0.87499149656001       -8.65093655656659        0.00087352189945
C           -1.80444264115401       -6.02427070525416       -0.00026293992498
C           -1.17237263622897       -7.29884293876016       -0.00023428967028
C            0.24559148196128       -7.38782671720852        0.00037577546199
C            1.03491568156667       -6.20348209874611        0.00041797205966
C           -1.63954593130682       -3.58185272514992        0.00008530455216
C           -1.01643961499966       -4.85036739083754        0.00003265503222
C            0.40400233868988       -4.94016341379805        0.00014657957025
C            1.18527423939470       -3.76040766759266        0.00007466221138
C           -1.47831124445184       -1.13409598712044        0.00024033044488
C           -0.85502479023886       -2.40055253088393        0.00018000915799
C            0.55793504016947       -2.48956523518669        0.00000733501451
C            1.33693477276707       -1.31105884918641       -0.00006606684905
C           -1.32169050570496        1.31642454507042        0.00024920739854
C           -0.69768565789832        0.04662129702523        0.00022581290749
C            0.71242509480588       -0.04146045657108       -0.00003414381304
C            1.49047847558195        1.14151547183693       -0.00008094016287
C           -1.17339367311801        3.76707554549553        0.00010701603467
C           -0.54572868529857        2.49665998071495        0.00017821581722
C            0.86710689522993        2.40856448027145       -0.00001893815663
C            1.64686590348931        3.59268941833464        0.00000315768769
C           -1.03242791217969        6.21290714422208       -0.00024830121845
C           -0.39866797028771        4.95074285666841        0.00000756273666
C            1.02105159621330        4.86243297844103        0.00004550064083
C            1.80251613466032        6.03812625807397        0.00019816944853
C           -0.88597231741659        8.66187971944782       -0.00085814560214
C           -0.24994524012727        7.40014620351012       -0.00034400277793
C            1.16793044430916        7.31199355986436        0.00009175815316
C            1.95005736509195        8.48742763083495        0.00035934649456
C           -0.07836111954213        9.80509285034474       -0.00087230928427
C            1.28773210771875        9.72079992208818       -0.00023486465782
C            2.31097060485759       -8.74036090317080        0.00172810675935
C            2.97499209824349       -9.97277506067244        0.00314601302393
C            4.34198624961381      -10.05457144503809        0.00338644415544
C            5.14614447786816       -8.91131731660501        0.00217422602095
C            2.44973710932991       -6.29125532465743        0.00054533032905
C            3.08955594995518       -7.56308950723946        0.00116561641862
C            4.50824742361308       -7.64962655143563        0.00127816194632
C            5.28373424625487       -6.45851004890114        0.00047503041496
C            2.59813423343977       -3.84766785984261       -0.00006493578278
C            3.22804435390223       -5.11375498662324        0.00017479405835
C            4.64894115123118       -5.19957343580034        0.00000068334443
C            5.42401984323364       -4.01659459396330       -0.00059084337244
C            2.75133292642379       -1.39958701494316       -0.00036572829991
C            3.37795684021203       -2.66414085744122       -0.00034727243265
C            4.79294068403636       -2.75011532180230       -0.00072670929546
C            5.56995189044517       -1.57215918066374       -0.00112419215000
C            2.90418679845214        1.05194977192939       -0.00038680279975
C            3.52976736493750       -0.21765843946315       -0.00053501039418
C            4.94084137481255       -0.30663966202213       -0.00098281236353
C            5.71927482385447        0.87375331426895       -0.00114741405895
C            3.05802411898397        3.50292814820107       -0.00015662056058
C            3.68172301025775        2.22984466468458       -0.00040125970239
C            5.09444134426667        2.13695011212260       -0.00078619276140
C            5.87665651484632        3.31759954824767       -0.00069133598329
C            3.21746149333811        5.94866007553851        0.00028958217246
C            3.83957864338365        4.68258224097658        0.00001632973466
C            5.25867505302232        4.59116509225064       -0.00015136940629
C            6.04672579190874        5.75757337722665        0.00026719146841
C            3.38723528472557        8.39660550911824        0.00108849885669
C            4.01195767660985        7.13036322086425        0.00075394348564
C            5.43003724750201        7.03819658073303        0.00092285570471
C            6.22517061044185        8.20736585533265        0.00169690075114
C            4.20288698690505        9.53368314498137        0.00215840762675
C            5.57055504019811        9.44192369607415        0.00248675684858
C            6.58961052295877       -8.99760950230419        0.00185883508650
C            7.27053562302755      -10.21546554604703        0.00245243404736
C            8.65872019129260      -10.27427784057739        0.00200612885054
C            9.40494247727040       -9.12380605706844        0.00093176517473
C            6.70203242494376       -6.53897452225222        0.00018201473019
C            7.34544130932656       -7.80284400461008        0.00077187991349
C            8.76990523529311       -7.86615457934744        0.00029418566703
C            9.51456258451777       -6.68437925763910       -0.00078817188466
C            6.83934380010608       -4.09789499356354       -0.00104227381916
C            7.47060154108674       -5.35915303061625       -0.00072715971819
C            8.90057633286889       -5.43145172142736       -0.00126649516193
C            9.65051129767257       -4.25009370530949       -0.00218815525666
C            6.98827416467893       -1.65811894375147       -0.00168314216343
C            7.61518869084563       -2.91671466377896       -0.00171854986781
C            9.04302921510836       -2.99373113786012       -0.00234811546023
C            9.79565329296782       -1.81082277287496       -0.00296217154575
C            7.13629463894175        0.78094752545865       -0.00169557847782
C            7.76718113767741       -0.47986498891599       -0.00206375071244
C            9.19121680367410       -0.55885570703315       -0.00272052637200
C            9.94582876218778        0.63710744551958       -0.00293656027418
C            7.28243726918680        3.22167767397830       -0.00112952835906
C            7.90915721475080        1.95584672267974       -0.00174610275676
C            9.32995780112060        1.86308075783472       -0.00234297346456
N           10.05036257880520        3.03010025057026       -0.00226162806308
C            7.46401832433634        5.66051743587143        0.00001832669846
C            8.07198818076269        4.39393769831604       -0.00083231720102
C            9.49165084424693        4.28507751368309       -0.00129556424248
C           10.26825780179134        5.41378757415258       -0.00075842153922
C            7.66979090211843        8.11084867977562        0.00163907257139
C            8.26796980224809        6.82820824639184        0.00063225517810
C            9.68213992934600        6.69879294467671        0.00030311525125
C           10.47309202905536        7.85619609363605        0.00108010739754
C            8.50262216590584        9.22806694771026        0.00244864010997
C            9.88376975007211        9.09793191970511        0.00218488359299
H          -11.54815390998350       -7.69829413956571       -0.00141884780323
H          -10.51956249971248       -9.93908605040589       -0.00343718600682
H           -8.11063164083224      -10.20553355528523       -0.00384206853016
H          -11.22784086521292       -5.35275417652096        0.00051562650160
H          -11.18071165463197       -2.96542756928677        0.00212763887850
H          -11.01840725201417       -0.51080957043679        0.00314415996176
H          -10.85678407067072        1.95857347950693        0.00324342301813
H          -10.60034786570923        6.62967626853287        0.00138960347979
H          -10.51895383678157        9.07191910452808       -0.00012665552796
H           -6.14852998149085      -10.34121077867065       -0.00387334069485
H           -3.77346466940284      -10.50453305140445       -0.00332113331257
H           -1.86173673543816      -10.62691340413686       -0.00092156254518
H            0.50918243822099      -10.77632075225692        0.00046133692709
H            2.41638944265236      -10.89398436956351        0.00415869131383
H            4.78976355167019      -11.03481881706064        0.00451538977052
H            6.72821375385506      -11.14661315389058        0.00324562593703
H            9.14664270231269      -11.23822985006375        0.00249734652919
H           10.48431901435929       -9.16280996652760        0.00056704877917
H           10.59382940484796       -6.74260930187443       -0.00119155622277
H           10.72940774683602       -4.31484482631979       -0.00266196475740
H           10.87425654288538       -1.87935329839263       -0.00348759689750
H           11.02468711614164        0.57225591673519       -0.00343549460162
H           11.05809417680118        2.96396666103669       -0.00260214249465
H           11.34610941184719        5.33189162938875       -0.00107692020283
H           11.54885904368425        7.75745933219573        0.00083568067988
H           10.49838986778071        9.98665360225881        0.00284031422106
H           -9.21374337454234       11.16234948120665       -0.00190252320298
H           -6.79281322529476       11.11862477819760       -0.00255786647795
H           -4.82455937424221       11.02554127794664       -0.00291997215840
H           -2.44882820068614       10.89984956939295       -0.00278527103323
H           -0.52354389827610       10.78636334757140       -0.00132970102920
H            1.84903738676751       10.64052171943302       -0.00030111797951
H            3.76533462766420       10.51837134652844        0.00281934578773
H            6.13919267413487       10.35745774331579        0.00332396620871
H            8.08885324524490       10.22310241560436        0.00330497509429
