      -----------------------------------------------------------      
     |                   =====================                   |     
     |                           x T B                           |     
     |                   =====================                   |     
     |                         S. Grimme                         |     
     |          Mulliken Center for Theoretical Chemistry        |     
     |                    University of Bonn                     |     
      -----------------------------------------------------------      

   * xtb version 6.7.1pre (5071a88) compiled by 'Marcel@Raven' on 2024-07-23

   xtb is free software: you can redistribute it and/or modify it under
   the terms of the GNU Lesser General Public License as published by
   the Free Software Foundation, either version 3 of the License, or
   (at your option) any later version.
   
   xtb is distributed in the hope that it will be useful,
   but WITHOUT ANY WARRANTY; without even the implied warranty of
   MERCHANTABILITY or FITNESS FOR A PARTICULAR PURPOSE.  See the
   GNU Lesser General Public License for more details.
   
   Cite this work as:
   * C. Bannwarth, E. Caldeweyher, S. Ehlert, A. Hansen, P. Pracht,
     J. Seibert, S. Spicher, S. Grimme, WIREs Comput. Mol. Sci., 2020, 11,
     e01493. DOI: 10.1002/wcms.1493
   
   for GFN2-xTB:
   * C. Bannwarth, S. Ehlert and S. Grimme., J. Chem. Theory Comput., 2019,
     15, 1652-1671. DOI: 10.1021/acs.jctc.8b01176
   for GFN1-xTB:
   * S. Grimme, C. Bannwarth, P. Shushkov, J. Chem. Theory Comput., 2017,
     13, 1989-2009. DOI: 10.1021/acs.jctc.7b00118
   for GFN0-xTB:
   * P. Pracht, E. Caldeweyher, S. Ehlert, S. Grimme, ChemRxiv, 2019, preprint.
     DOI: 10.26434/chemrxiv.8326202.v1
   for GFN-FF:
   * S. Spicher and S. Grimme, Angew. Chem. Int. Ed., 2020, 59, 15665-15673.
     DOI: 10.1002/anie.202004239
   
   for ALPB and GBSA implicit solvation:
   * S. Ehlert, M. Stahn, S. Spicher, S. Grimme, J. Chem. Theory Comput.,
     2021, 17, 4250-4261. DOI: 10.1021/acs.jctc.1c00471
   
   for ddCOSMO and CPCM-X implicit solvation:
   * M. Stahn, S. Ehlert, S. Grimme, J. Phys. Chem. A,
     2023, XX, XXXX-XXXX. DOI: 10.1021/acs.jpca.3c04382
   
   for DFT-D4:
   * E. Caldeweyher, C. Bannwarth and S. Grimme, J. Chem. Phys., 2017,
     147, 034112. DOI: 10.1063/1.4993215
   * E. Caldeweyher, S. Ehlert, A. Hansen, H. Neugebauer, S. Spicher,
     C. Bannwarth and S. Grimme, J. Chem. Phys., 2019, 150, 154122.
     DOI: 10.1063/1.5090222
   * E. Caldeweyher, J.-M. Mewes, S. Ehlert and S. Grimme, Phys. Chem. Chem. Phys.
     2020, 22, 8499-8512. DOI: 10.1039/D0CP00502A
   
   for sTDA-xTB:
   * S. Grimme and C. Bannwarth, J. Chem. Phys., 2016, 145, 054103.
     DOI: 10.1063/1.4959605
   
   in the mass-spec context:
   * V. Asgeirsson, C. Bauer and S. Grimme, Chem. Sci., 2017, 8, 4879.
     DOI: 10.1039/c7sc00601b
   * J. Koopman and S. Grimme, ACS Omega 2019, 4, 12, 15120-15133.
     DOI: 10.1021/acsomega.9b02011
   
   for metadynamics refer to:
   * S. Grimme, J. Chem. Theory Comput., 2019, 155, 2847-2862
     DOI: 10.1021/acs.jctc.9b00143
   
   for SPH calculations refer to:
   * S. Spicher and S. Grimme, J. Chem. Theory Comput., 2021, 17, 1701-1714
     DOI: 10.1021/acs.jctc.0c01306
   
   for ONIOM refer to:
   * C. Plett, A. Katbashev, S. Ehlert, S. Grimme, M. Bursch,
     Phys. Chem. Chem. Phys., 2023, 25, 17860-17868. DOI: 10.1039/D3CP02178E
   
   for DIPRO refer to:
   * J. Kohn, N. Gildemeister, S. Grimme, D. Fazzi, A. Hansen,
     J. Chem. Phys., 2023, just accepted.
   
   for PTB refer to:
   * S. Grimme, M. Mueller, A. Hansen, J. Chem. Phys., 2023, 158, 124111.
     DOI: 10.1063/5.0137838
   
   with help from (in alphabetical order)
   P. Atkinson, C. Bannwarth, F. Bohle, G. Brandenburg, E. Caldeweyher
   M. Checinski, S. Dohm, S. Ehlert, S. Ehrlich, I. Gerasimov, C. Hölzer
   A. Katbashev, J. Kohn, J. Koopman, C. Lavigne, S. Lehtola, F. März, M. Müller,
   F. Musil, H. Neugebauer, J. Pisarek, C. Plett, P. Pracht, F. Pultar,
   J. Seibert, P. Shushkov, S. Spicher, M. Stahn, M. Steiner, T. Strunk,
   J. Stückrath, T. Rose, and J. Unsleber
   
 * started run on 2025/12/08 at 00:43:29.007     
   ID    Z sym.   atoms
    1    6 C      1-167
    2    1 H      168-199
    3    8 O      200-202

           -------------------------------------------------
          |                Calculation Setup                |
           -------------------------------------------------

          program call               : xtb "C:\Users\LENOVO GAMING\Documents\GitHub\molecular-conductivity-sim\results\2nm-3Odoped-1.5percent\xtbopt.xyz" --sp
          coordinate file            : C:\Users\LENOVO GAMING\Documents\GitHub\molecular-conductivity-sim\results\2nm-3Odoped-1.5percent\xtbopt.xyz
          omp threads                :                    16


           -------------------------------------------------
          |                 G F N 2 - x T B                 |
           -------------------------------------------------

        Reference                      10.1021/acs.jctc.8b01176
      * Hamiltonian:
        H0-scaling (s, p, d)           1.850000    2.230000    2.230000
        zeta-weighting                 0.500000
      * Dispersion:
        s8                             2.700000
        a1                             0.520000
        a2                             5.000000
        s9                             5.000000
      * Repulsion:
        kExp                           1.500000    1.000000
        rExp                           1.000000
      * Coulomb:
        alpha                          2.000000
        third order                    shell-resolved
        anisotropic                    true
        a3                             3.000000
        a5                             4.000000
        cn-shift                       1.200000
        cn-exp                         4.000000
        max-rad                        5.000000

q/qsh data taken from xtbrestart
CAMM data taken from xtbrestart

          ...................................................
          :                      SETUP                      :
          :.................................................:
          :  # basis functions                 712          :
          :  # atomic orbitals                 712          :
          :  # shells                          372          :
          :  # electrons                       718          :
          :  max. iterations                   250          :
          :  Hamiltonian                  GFN2-xTB          :
          :  restarted?                       true          :
          :  GBSA solvation                  false          :
          :  PC potential                    false          :
          :  electronic temp.          300.0000000     K    :
          :  accuracy                    1.0000000          :
          :  -> integral cutoff          0.2500000E+02      :
          :  -> integral neglect         0.1000000E-07      :
          :  -> SCF convergence          0.1000000E-05 Eh   :
          :  -> wf. convergence          0.1000000E-03 e    :
          :  Broyden damping             0.4000000          :
          :  net charge                          0          :
          :  unpaired electrons                  0          :
          ...................................................

 iter      E             dE          RMSdq      gap      omega  full diag
   1   -395.0721343 -0.395072E+03  0.186E-05    0.01       0.0  T
   2   -395.0721339  0.312824E-06  0.889E-04    0.01       7.9  T
   3   -395.0721343 -0.312584E-06  0.304E-05    0.01     231.1  T

   *** convergence criteria satisfied after 3 iterations ***

         #    Occupation            Energy/Eh            Energy/eV
      -------------------------------------------------------------
         1        2.0000           -0.7360606             -20.0292
       ...           ...                  ...                  ...
       353        2.0000           -0.3674090              -9.9977
       354        2.0000           -0.3659993              -9.9593
       355        2.0000           -0.3578332              -9.7371
       356        2.0000           -0.3544338              -9.6446
       357        2.0000           -0.3540685              -9.6347
       358        2.0000           -0.3406738              -9.2702
       359        1.0677           -0.3268976              -8.8953 (HOMO)
       360        0.9323           -0.3266401              -8.8883 (LUMO)
       361        0.0000           -0.3150607              -8.5732
       362                         -0.2944931              -8.0136
       363                         -0.2913262              -7.9274
       364                         -0.2880791              -7.8390
       ...                                ...                  ...
       712                          0.7923281              21.5603
      -------------------------------------------------------------
                  HL-Gap            0.0002575 Eh            0.0070 eV
             Fermi-level           -0.3267689 Eh           -8.8918 eV

 SCC (total)                   0 d,  0 h,  0 min,  0.650 sec
 SCC setup                      ...        0 min,  0.003 sec (  0.462%)
 Dispersion                     ...        0 min,  0.021 sec (  3.231%)
 classical contributions        ...        0 min,  0.001 sec (  0.154%)
 integral evaluation            ...        0 min,  0.050 sec (  7.692%)
 iterations                     ...        0 min,  0.395 sec ( 60.769%)
 molecular gradient             ...        0 min,  0.171 sec ( 26.308%)
 printout                       ...        0 min,  0.008 sec (  1.231%)

         :::::::::::::::::::::::::::::::::::::::::::::::::::::
         ::                     SUMMARY                     ::
         :::::::::::::::::::::::::::::::::::::::::::::::::::::
         :: total energy            -387.604271198990 Eh    ::
         :: gradient norm              0.000813245223 Eh/a0 ::
         :: HOMO-LUMO gap              0.007006878948 eV    ::
         ::.................................................::
         :: SCC energy              -395.089170025673 Eh    ::
         :: -> isotropic ES            0.036872285191 Eh    ::
         :: -> anisotropic ES          0.014003102163 Eh    ::
         :: -> anisotropic XC          0.116888134068 Eh    ::
         :: -> dispersion             -0.490119130352 Eh    ::
         :: repulsion energy           7.484898826683 Eh    ::
         :: add. restraining           0.000000000000 Eh    ::
         :: total charge              -0.000000000000 e     ::
         :::::::::::::::::::::::::::::::::::::::::::::::::::::

           -------------------------------------------------
          |                Property Printout                |
           -------------------------------------------------

    * Orbital Energies and Occupations

         #    Occupation            Energy/Eh            Energy/eV
      -------------------------------------------------------------
         1        2.0000           -0.7360606             -20.0292
       ...           ...                  ...                  ...
       347        2.0000           -0.3861413             -10.5074
       348        2.0000           -0.3855477             -10.4913
       349        2.0000           -0.3848663             -10.4727
       350        2.0000           -0.3841017             -10.4519
       351        2.0000           -0.3799892             -10.3400
       352        2.0000           -0.3725803             -10.1384
       353        2.0000           -0.3674090              -9.9977
       354        2.0000           -0.3659993              -9.9593
       355        2.0000           -0.3578332              -9.7371
       356        2.0000           -0.3544338              -9.6446
       357        2.0000           -0.3540685              -9.6347
       358        2.0000           -0.3406738              -9.2702
       359        1.0677           -0.3268976              -8.8953 (HOMO)
       360        0.9323           -0.3266401              -8.8883 (LUMO)
       361        0.0000           -0.3150607              -8.5732
       362                         -0.2944931              -8.0136
       363                         -0.2913262              -7.9274
       364                         -0.2880791              -7.8390
       365                         -0.2755434              -7.4979
       366                         -0.2733445              -7.4381
       367                         -0.2725653              -7.4169
       368                         -0.2651699              -7.2156
       369                         -0.2624000              -7.1403
       370                         -0.2609041              -7.0996
       ...                                ...                  ...
       712                          0.7923281              21.5603
      -------------------------------------------------------------
                  HL-Gap            0.0002575 Eh            0.0070 eV
             Fermi-level           -0.3267689 Eh           -8.8918 eV

     #   Z          covCN         q      C6AA      α(0)
     1   6 C        2.915    -0.058    29.453     8.899
     2   6 C        2.918    -0.029    28.733     8.790
     3   6 C        2.919    -0.045    29.123     8.850
     4   6 C        2.977     0.006    27.890     8.663
     5   6 C        2.878     0.141    24.935     8.186
     6   6 C        2.996    -0.016    28.396     8.741
     7   6 C        2.996     0.007    27.856     8.658
     8   6 C        2.914    -0.073    29.820     8.955
     9   6 C        2.869     0.136    25.024     8.200
    10   6 C        2.993    -0.015    28.369     8.737
    11   6 C        2.994    -0.001    28.032     8.685
    12   6 C        2.921    -0.048    29.201     8.862
    13   6 C        2.976     0.014    27.698     8.633
    14   6 C        2.996    -0.005    28.148     8.703
    15   6 C        2.992     0.004    27.933     8.670
    16   6 C        2.915    -0.071    29.766     8.947
    17   6 C        2.976     0.014    27.697     8.633
    18   6 C        2.997    -0.006    28.168     8.706
    19   6 C        2.994    -0.000    28.021     8.683
    20   6 C        2.867     0.138    24.981     8.193
    21   6 C        2.994    -0.017    28.414     8.744
    22   6 C        2.999     0.007    27.859     8.658
    23   6 C        2.917    -0.071    29.771     8.947
    24   6 C        2.868     0.137    25.001     8.196
    25   6 C        2.996    -0.016    28.388     8.740
    26   6 C        2.990    -0.000    28.027     8.684
    27   6 C        2.921    -0.038    28.944     8.822
    28   6 C        2.983     0.013    27.710     8.635
    29   6 C        2.997    -0.003    28.094     8.695
    30   6 C        2.975     0.007    27.854     8.657
    31   6 C        2.913    -0.029    28.736     8.790
    32   6 C        2.921    -0.039    28.958     8.825
    33   6 C        2.977     0.004    27.918     8.667
    34   6 C        2.918    -0.036    28.885     8.813
    35   6 C        2.918    -0.037    28.914     8.818
    36   6 C        2.977     0.007    27.865     8.659
    37   6 C        2.990    -0.004    28.122     8.699
    38   6 C        2.991     0.003    27.952     8.673
    39   6 C        2.990     0.002    27.971     8.676
    40   6 C        2.985    -0.000    28.030     8.685
    41   6 C        2.993    -0.000    28.030     8.685
    42   6 C        2.991     0.001    27.998     8.680
    43   6 C        2.990    -0.000    28.020     8.683
    44   6 C        2.990    -0.000    28.026     8.684
    45   6 C        2.991     0.000    28.008     8.681
    46   6 C        2.992     0.000    28.009     8.681
    47   6 C        2.990    -0.001    28.034     8.685
    48   6 C        2.991     0.000    28.012     8.682
    49   6 C        2.993     0.000    28.019     8.683
    50   6 C        2.993     0.001    28.007     8.681
    51   6 C        2.991    -0.001    28.036     8.686
    52   6 C        2.991     0.000    28.013     8.682
    53   6 C        2.994    -0.004    28.107     8.697
    54   6 C        2.993     0.001    27.994     8.679
    55   6 C        2.991    -0.000    28.024     8.684
    56   6 C        2.989     0.000    28.016     8.683
    57   6 C        2.989    -0.000    28.026     8.684
    58   6 C        2.990     0.000    28.010     8.682
    59   6 C        2.989    -0.000    28.022     8.683
    60   6 C        2.986     0.000    28.016     8.683
    61   6 C        2.977     0.005    27.903     8.665
    62   6 C        2.990     0.002    27.977     8.677
    63   6 C        2.990     0.001    27.990     8.679
    64   6 C        2.978     0.005    27.909     8.666
    65   6 C        2.919    -0.036    28.893     8.815
    66   6 C        2.918    -0.037    28.913     8.818
    67   6 C        2.988     0.008    27.837     8.655
    68   6 C        2.914    -0.028    28.708     8.786
    69   6 C        2.013    -0.070    32.932     9.268
    70   6 C        2.983     0.018    27.602     8.618
    71   6 C        2.987     0.000    28.012     8.682
    72   6 C        2.987    -0.002    28.066     8.690
    73   6 C        3.001     0.004    27.912     8.666
    74   6 C        2.987     0.001    27.987     8.678
    75   6 C        2.990     0.000    28.018     8.683
    76   6 C        2.987    -0.000    28.029     8.685
    77   6 C        2.989     0.000    28.018     8.683
    78   6 C        2.989    -0.000    28.027     8.684
    79   6 C        2.990     0.000    28.019     8.683
    80   6 C        2.989    -0.000    28.022     8.683
    81   6 C        2.990    -0.000    28.021     8.683
    82   6 C        2.990     0.000    28.019     8.683
    83   6 C        2.990    -0.000    28.023     8.684
    84   6 C        2.991    -0.000    28.023     8.684
    85   6 C        2.991    -0.000    28.022     8.683
    86   6 C        2.990    -0.000    28.020     8.683
    87   6 C        2.989    -0.000    28.030     8.685
    88   6 C        2.989     0.000    28.015     8.682
    89   6 C        2.989     0.000    28.017     8.683
    90   6 C        2.989    -0.000    28.029     8.685
    91   6 C        2.986     0.000    28.021     8.683
    92   6 C        2.987    -0.000    28.022     8.683
    93   6 C        2.987    -0.000    28.023     8.684
    94   6 C        2.986    -0.000    28.021     8.683
    95   6 C        2.978     0.005    27.909     8.666
    96   6 C        2.990     0.001    27.986     8.678
    97   6 C        2.989     0.001    27.986     8.678
    98   6 C        2.979     0.005    27.909     8.666
    99   6 C        2.919    -0.036    28.908     8.817
   100   6 C        2.919    -0.037    28.908     8.817
   101   6 C        2.985     0.009    27.810     8.651
   102   6 C        2.919    -0.033    28.830     8.805
   103   6 C        2.918    -0.035    28.877     8.812
   104   6 C        2.977     0.005    27.906     8.665
   105   6 C        2.987     0.000    28.015     8.682
   106   6 C        2.992     0.001    27.995     8.679
   107   6 C        2.990     0.002    27.982     8.677
   108   6 C        2.987    -0.000    28.029     8.685
   109   6 C        2.989    -0.000    28.025     8.684
   110   6 C        2.989     0.000    28.016     8.682
   111   6 C        2.988    -0.000    28.032     8.685
   112   6 C        2.990    -0.001    28.042     8.687
   113   6 C        2.990     0.000    28.020     8.683
   114   6 C        2.990    -0.000    28.022     8.683
   115   6 C        2.990     0.000    28.017     8.683
   116   6 C        2.990    -0.000    28.025     8.684
   117   6 C        2.991     0.000    28.017     8.683
   118   6 C        2.991    -0.001    28.036     8.686
   119   6 C        2.992     0.000    28.014     8.682
   120   6 C        2.992     0.000    28.019     8.683
   121   6 C        2.989     0.000    28.018     8.683
   122   6 C        2.991    -0.000    28.027     8.684
   123   6 C        2.993     0.001    28.001     8.680
   124   6 C        2.994    -0.004    28.102     8.696
   125   6 C        2.986     0.000    28.018     8.683
   126   6 C        2.989    -0.000    28.023     8.684
   127   6 C        2.990     0.000    28.011     8.682
   128   6 C        2.989    -0.000    28.025     8.684
   129   6 C        2.978     0.005    27.909     8.666
   130   6 C        2.990     0.001    27.990     8.678
   131   6 C        2.990     0.002    27.978     8.677
   132   6 C        2.977     0.005    27.904     8.665
   133   6 C        2.918    -0.037    28.913     8.818
   134   6 C        2.919    -0.036    28.894     8.815
   135   6 C        2.974     0.007    27.870     8.659
   136   6 C        2.921    -0.036    28.893     8.815
   137   6 C        2.911    -0.030    28.738     8.790
   138   6 C        2.921    -0.036    28.905     8.817
   139   6 C        2.986     0.001    27.995     8.679
   140   6 C        2.994     0.002    27.976     8.676
   141   6 C        2.979     0.013    27.723     8.637
   142   6 C        2.924    -0.044    29.098     8.846
   143   6 C        2.988     0.001    27.992     8.679
   144   6 C        2.993     0.000    28.016     8.683
   145   6 C        2.973     0.012    27.739     8.639
   146   6 C        2.923    -0.045    29.118     8.849
   147   6 C        2.990     0.002    27.966     8.675
   148   6 C        2.994    -0.000    28.028     8.684
   149   6 C        2.972     0.013    27.721     8.636
   150   6 C        2.922    -0.047    29.165     8.856
   151   6 C        2.993    -0.001    28.031     8.685
   152   6 C        2.995    -0.004    28.122     8.699
   153   6 C        2.975     0.013    27.713     8.635
   154   6 C        2.915    -0.072    29.790     8.950
   155   6 C        2.999     0.007    27.862     8.659
   156   6 C        2.994    -0.016    28.407     8.743
   157   6 C        2.867     0.138    24.983     8.193
   158   6 C        2.990    -0.000    28.027     8.684
   159   6 C        2.995    -0.016    28.395     8.741
   160   6 C        2.868     0.137    25.000     8.196
   161   6 C        2.917    -0.071    29.772     8.948
   162   6 C        2.975     0.007    27.853     8.657
   163   6 C        2.996    -0.003    28.096     8.695
   164   6 C        2.983     0.013    27.711     8.635
   165   6 C        2.921    -0.038    28.944     8.823
   166   6 C        2.921    -0.039    28.958     8.825
   167   6 C        2.913    -0.029    28.736     8.790
   168   1 H        0.926     0.049     2.328     2.386
   169   1 H        0.926     0.040     2.447     2.446
   170   1 H        0.926     0.038     2.472     2.459
   171   1 H        0.926     0.047     2.361     2.403
   172   1 H        0.926     0.036     2.502     2.474
   173   1 H        0.926     0.047     2.354     2.399
   174   1 H        0.926     0.047     2.359     2.402
   175   1 H        0.926     0.034     2.536     2.490
   176   1 H        0.926     0.035     2.516     2.481
   177   1 H        0.926     0.036     2.507     2.476
   178   1 H        0.926     0.047     2.353     2.399
   179   1 H        0.926     0.041     2.437     2.441
   180   1 H        0.926     0.035     2.511     2.478
   181   1 H        0.926     0.033     2.540     2.492
   182   1 H        0.926     0.030     2.580     2.512
   183   1 H        0.926     0.032     2.560     2.502
   184   1 H        0.926     0.033     2.550     2.497
   185   1 H        0.926     0.032     2.552     2.498
   186   1 H        0.926     0.034     2.532     2.488
   187   1 H        0.926     0.046     2.365     2.405
   188   1 H        0.926     0.047     2.361     2.403
   189   1 H        0.926     0.034     2.536     2.491
   190   1 H        0.926     0.031     2.569     2.507
   191   1 H        0.926     0.031     2.569     2.506
   192   1 H        0.926     0.032     2.551     2.498
   193   1 H        0.926     0.034     2.529     2.487
   194   1 H        0.926     0.034     2.533     2.489
   195   1 H        0.926     0.034     2.534     2.489
   196   1 H        0.926     0.034     2.534     2.489
   197   1 H        0.926     0.034     2.533     2.489
   198   1 H        0.926     0.034     2.529     2.487
   199   1 H        0.926     0.033     2.551     2.498
   200   8 O        1.710    -0.230    17.805     5.697
   201   8 O        1.709    -0.233    17.869     5.707
   202   8 O        1.709    -0.234    17.879     5.709

 Mol. C6AA /au·bohr⁶  :     899560.587477
 Mol. C8AA /au·bohr⁸  :   24937394.156924
 Mol. α(0) /au        :       1548.395765


Wiberg/Mayer (AO) data.
largest (>0.10) Wiberg bond orders for each atom

 ---------------------------------------------------------------------------
     #   Z sym  total        # sym  WBO       # sym  WBO       # sym  WBO
 ---------------------------------------------------------------------------
     1   6 C    3.966 --     5 C    1.400     2 C    1.399   168 H    0.968
     2   6 C    3.975 --     3 C    1.477     1 C    1.399   169 H    0.970
     3   6 C    3.969 --     2 C    1.477     4 C    1.343   170 H    0.963
     4   6 C    3.973 --     3 C    1.343     6 C    1.290    33 C    1.144
     5   6 C    3.921 --     1 C    1.400     6 C    1.275   200 O    1.056
     6   6 C    3.978 --     4 C    1.290     5 C    1.275     7 C    1.177
     7   6 C    3.953 --    37 C    1.289    10 C    1.270     6 C    1.177
     8   6 C    3.938 --     9 C    1.511    13 C    1.231   171 H    0.966
     9   6 C    3.910 --     8 C    1.511    10 C    1.189   200 O    1.043
    10   6 C    3.950 --     7 C    1.270    11 C    1.268     9 C    1.189
    11   6 C    3.974 --    10 C    1.268    14 C    1.251    41 C    1.235
    12   6 C    3.896 --    13 C    1.370    17 C    1.347   172 H    0.967
    13   6 C    3.975 --    12 C    1.370     8 C    1.231    14 C    1.213
    14   6 C    3.960 --    15 C    1.273    11 C    1.251    13 C    1.213
    15   6 C    3.980 --    14 C    1.273    18 C    1.269    45 C    1.214
    16   6 C    3.929 --    20 C    1.489    17 C    1.246   173 H    0.966
    17   6 C    3.974 --    12 C    1.347    16 C    1.246    18 C    1.220
    18   6 C    3.961 --    15 C    1.269    19 C    1.250    17 C    1.220
    19   6 C    3.975 --    21 C    1.286    18 C    1.250    49 C    1.220
    20   6 C    3.912 --    16 C    1.489    21 C    1.206   201 O    1.048
    21   6 C    3.938 --    19 C    1.286    22 C    1.229    20 C    1.206
    22   6 C    3.953 --    53 C    1.273    25 C    1.238    21 C    1.229
    23   6 C    3.943 --    24 C    1.501    28 C    1.242   174 H    0.966
    24   6 C    3.923 --    23 C    1.501    25 C    1.199   201 O    1.045
    25   6 C    3.950 --    26 C    1.289    22 C    1.238    24 C    1.199
    26   6 C    3.975 --    25 C    1.289    29 C    1.238    57 C    1.225
    27   6 C    3.944 --    31 C    1.477    28 C    1.320   175 H    0.969
    28   6 C    3.983 --    27 C    1.320    29 C    1.249    23 C    1.242
    29   6 C    3.980 --    30 C    1.263    28 C    1.249    26 C    1.238
    30   6 C    3.982 --    32 C    1.390    29 C    1.263    61 C    1.132
    31   6 C    3.982 --    27 C    1.477    32 C    1.408   191 H    0.971
    32   6 C    3.943 --    31 C    1.408    30 C    1.390   192 H    0.963
    33   6 C    3.960 --    34 C    1.323    38 C    1.293     4 C    1.144
    34   6 C    3.964 --    35 C    1.512    33 C    1.323   176 H    0.962
    35   6 C    3.959 --    34 C    1.512    36 C    1.318   177 H    0.960
    36   6 C    3.953 --    35 C    1.318    39 C    1.280    67 C    1.160
    37   6 C    3.968 --     7 C    1.289    42 C    1.248    38 C    1.206
    38   6 C    3.980 --    33 C    1.293    39 C    1.254    37 C    1.206
    39   6 C    3.972 --    36 C    1.280    38 C    1.254    40 C    1.214
    40   6 C    3.956 --    43 C    1.265    71 C    1.263    39 C    1.214
    41   6 C    3.966 --    42 C    1.276    11 C    1.235    46 C    1.233
    42   6 C    3.967 --    41 C    1.276    37 C    1.248    43 C    1.221
    43   6 C    3.956 --    40 C    1.265    44 C    1.257    42 C    1.221
    44   6 C    3.964 --    43 C    1.257    75 C    1.250    47 C    1.240
    45   6 C    3.951 --    46 C    1.273    50 C    1.253    15 C    1.214
    46   6 C    3.965 --    45 C    1.273    47 C    1.242    41 C    1.233
    47   6 C    3.957 --    48 C    1.262    46 C    1.242    44 C    1.240
    48   6 C    3.961 --    47 C    1.262    51 C    1.253    79 C    1.231
    49   6 C    3.957 --    54 C    1.274    50 C    1.247    19 C    1.220
    50   6 C    3.965 --    45 C    1.253    51 C    1.249    49 C    1.247
    51   6 C    3.960 --    48 C    1.253    50 C    1.249    52 C    1.242
    52   6 C    3.962 --    55 C    1.270    51 C    1.242    83 C    1.234
    53   6 C    3.967 --    22 C    1.273    58 C    1.237    54 C    1.236
    54   6 C    3.966 --    49 C    1.274    55 C    1.236    53 C    1.236
    55   6 C    3.953 --    52 C    1.270    54 C    1.236    56 C    1.236
    56   6 C    3.960 --    87 C    1.256    59 C    1.253    55 C    1.236
    57   6 C    3.954 --    58 C    1.294    26 C    1.225    62 C    1.218
    58   6 C    3.970 --    57 C    1.294    53 C    1.237    59 C    1.215
    59   6 C    3.958 --    60 C    1.276    56 C    1.253    58 C    1.215
    60   6 C    3.961 --    59 C    1.276    91 C    1.247    63 C    1.220
    61   6 C    3.953 --    65 C    1.342    62 C    1.285    30 C    1.132
    62   6 C    3.981 --    61 C    1.285    63 C    1.252    57 C    1.218
    63   6 C    3.977 --    64 C    1.281    62 C    1.252    60 C    1.220
    64   6 C    3.965 --    66 C    1.334    63 C    1.281    95 C    1.151
    65   6 C    3.969 --    66 C    1.492    61 C    1.342   193 H    0.962
    66   6 C    3.955 --    65 C    1.492    64 C    1.334   194 H    0.961
    67   6 C    3.895 --    72 C    1.291    68 C    1.246    36 C    1.160
    68   6 C    3.925 --    69 C    1.564    67 C    1.246   178 H    0.944
    69   6 C    3.109 --    68 C    1.564    70 C    1.344
    70   6 C    3.919 --    69 C    1.344    73 C    1.222   101 C    1.158
    71   6 C    3.951 --    40 C    1.263    76 C    1.263    72 C    1.209
    72   6 C    3.976 --    67 C    1.291    73 C    1.255    71 C    1.209
    73   6 C    3.921 --    72 C    1.255    70 C    1.222    74 C    1.216
    74   6 C    3.945 --    77 C    1.263   105 C    1.251    73 C    1.216
    75   6 C    3.961 --    76 C    1.260    44 C    1.250    80 C    1.235
    76   6 C    3.958 --    71 C    1.263    75 C    1.260    77 C    1.221
    77   6 C    3.955 --    74 C    1.263    78 C    1.255    76 C    1.221
    78   6 C    3.958 --    77 C    1.255   109 C    1.249    81 C    1.239
    79   6 C    3.957 --    80 C    1.266    84 C    1.247    48 C    1.231
    80   6 C    3.957 --    79 C    1.266    81 C    1.242    75 C    1.235
    81   6 C    3.958 --    82 C    1.263    80 C    1.242    78 C    1.239
    82   6 C    3.956 --    81 C    1.263    85 C    1.248   113 C    1.232
    83   6 C    3.958 --    88 C    1.264    84 C    1.246    52 C    1.234
    84   6 C    3.960 --    85 C    1.253    79 C    1.247    83 C    1.246
    85   6 C    3.960 --    84 C    1.253    82 C    1.248    86 C    1.245
    86   6 C    3.957 --    89 C    1.266    85 C    1.245   117 C    1.233
    87   6 C    3.961 --    56 C    1.256    92 C    1.251    88 C    1.239
    88   6 C    3.957 --    83 C    1.264    89 C    1.241    87 C    1.239
    89   6 C    3.957 --    86 C    1.266    88 C    1.241    90 C    1.237
    90   6 C    3.960 --   121 C    1.256    93 C    1.253    89 C    1.237
    91   6 C    3.957 --    92 C    1.275    60 C    1.247    96 C    1.219
    92   6 C    3.961 --    91 C    1.275    87 C    1.251    93 C    1.219
    93   6 C    3.960 --    94 C    1.273    90 C    1.253    92 C    1.219
    94   6 C    3.956 --    93 C    1.273   125 C    1.248    97 C    1.220
    95   6 C    3.958 --    99 C    1.328    96 C    1.283    64 C    1.151
    96   6 C    3.978 --    95 C    1.283    97 C    1.252    91 C    1.219
    97   6 C    3.978 --    98 C    1.283    96 C    1.252    94 C    1.220
    98   6 C    3.958 --   100 C    1.328    97 C    1.283   129 C    1.152
    99   6 C    3.961 --   100 C    1.503    95 C    1.328   195 H    0.961
   100   6 C    3.961 --    99 C    1.503    98 C    1.328   196 H    0.961
   101   6 C    3.955 --   102 C    1.319   106 C    1.283    70 C    1.158
   102   6 C    3.943 --   103 C    1.503   101 C    1.319   179 H    0.962
   103   6 C    3.968 --   102 C    1.503   104 C    1.332   180 H    0.960
   104   6 C    3.945 --   103 C    1.332   107 C    1.284   135 C    1.138
   105   6 C    3.961 --   110 C    1.271    74 C    1.251   106 C    1.219
   106   6 C    3.976 --   101 C    1.283   107 C    1.250   105 C    1.219
   107   6 C    3.981 --   104 C    1.284   106 C    1.250   108 C    1.222
   108   6 C    3.937 --   111 C    1.279   139 C    1.231   107 C    1.222
   109   6 C    3.963 --   110 C    1.257    78 C    1.249   114 C    1.240
   110   6 C    3.957 --   105 C    1.271   109 C    1.257   111 C    1.214
   111   6 C    3.969 --   108 C    1.279   112 C    1.256   110 C    1.214
   112   6 C    3.949 --   111 C    1.256   115 C    1.246   143 C    1.237
   113   6 C    3.961 --   114 C    1.267   118 C    1.247    82 C    1.232
   114   6 C    3.952 --   113 C    1.267   109 C    1.240   115 C    1.233
   115   6 C    3.965 --   116 C    1.269   112 C    1.246   114 C    1.233
   116   6 C    3.950 --   115 C    1.269   119 C    1.252   147 C    1.218
   117   6 C    3.962 --   122 C    1.267   118 C    1.247    86 C    1.233
   118   6 C    3.956 --   119 C    1.248   113 C    1.247   117 C    1.247
   119   6 C    3.965 --   116 C    1.252   118 C    1.248   120 C    1.248
   120   6 C    3.956 --   123 C    1.275   119 C    1.248   151 C    1.217
   121   6 C    3.960 --    90 C    1.256   126 C    1.252   122 C    1.237
   122   6 C    3.952 --   117 C    1.267   123 C    1.238   121 C    1.237
   123   6 C    3.966 --   120 C    1.275   122 C    1.238   124 C    1.233
   124   6 C    3.962 --   155 C    1.269   127 C    1.241   123 C    1.233
   125   6 C    3.961 --   126 C    1.276    94 C    1.248   130 C    1.219
   126   6 C    3.958 --   125 C    1.276   121 C    1.252   127 C    1.216
   127   6 C    3.969 --   128 C    1.290   124 C    1.241   126 C    1.216
   128   6 C    3.949 --   127 C    1.290   158 C    1.225   131 C    1.220
   129   6 C    3.964 --   133 C    1.332   130 C    1.282    98 C    1.152
   130   6 C    3.977 --   129 C    1.282   131 C    1.252   125 C    1.219
   131   6 C    3.980 --   132 C    1.284   130 C    1.252   128 C    1.220
   132   6 C    3.951 --   134 C    1.341   131 C    1.284   162 C    1.133
   133   6 C    3.954 --   134 C    1.493   129 C    1.332   197 H    0.961
   134   6 C    3.969 --   133 C    1.493   132 C    1.341   198 H    0.962
   135   6 C    3.979 --   136 C    1.377   140 C    1.272   104 C    1.138
   136   6 C    3.886 --   137 C    1.393   135 C    1.377   181 H    0.962
   137   6 C    3.983 --   138 C    1.497   136 C    1.393   182 H    0.970
   138   6 C    3.891 --   137 C    1.497   141 C    1.277   183 H    0.969
   139   6 C    3.974 --   144 C    1.285   140 C    1.240   108 C    1.231
   140   6 C    3.945 --   135 C    1.272   139 C    1.240   141 C    1.218
   141   6 C    3.985 --   142 C    1.329   138 C    1.277   140 C    1.218
   142   6 C    3.781 --   145 C    1.335   141 C    1.329   184 H    0.966
   143   6 C    3.974 --   144 C    1.268   148 C    1.253   112 C    1.237
   144   6 C    3.951 --   139 C    1.285   143 C    1.268   145 C    1.177
   145   6 C    3.985 --   142 C    1.335   146 C    1.317   144 C    1.177
   146   6 C    3.762 --   149 C    1.337   145 C    1.317   185 H    0.967
   147   6 C    3.975 --   148 C    1.287   152 C    1.253   116 C    1.218
   148   6 C    3.939 --   147 C    1.287   143 C    1.253   149 C    1.185
   149   6 C    3.979 --   146 C    1.337   150 C    1.304   148 C    1.185
   150   6 C    3.820 --   153 C    1.378   149 C    1.304   186 H    0.967
   151   6 C    3.972 --   156 C    1.273   152 C    1.265   120 C    1.217
   152   6 C    3.931 --   151 C    1.265   147 C    1.253   153 C    1.207
   153   6 C    3.976 --   150 C    1.378   154 C    1.235   152 C    1.207
   154   6 C    3.917 --   157 C    1.494   153 C    1.235   187 H    0.966
   155   6 C    3.952 --   124 C    1.269   156 C    1.236   159 C    1.234
   156   6 C    3.921 --   151 C    1.273   155 C    1.236   157 C    1.204
   157   6 C    3.912 --   154 C    1.494   156 C    1.204   202 O    1.047
   158   6 C    3.975 --   159 C    1.289   163 C    1.237   128 C    1.225
   159   6 C    3.947 --   158 C    1.289   155 C    1.234   160 C    1.201
   160   6 C    3.923 --   161 C    1.499   159 C    1.201   202 O    1.045
   161   6 C    3.940 --   160 C    1.499   164 C    1.243   188 H    0.966
   162   6 C    3.982 --   166 C    1.389   163 C    1.263   132 C    1.133
   163   6 C    3.980 --   162 C    1.263   164 C    1.249   158 C    1.237
   164   6 C    3.983 --   165 C    1.319   163 C    1.249   161 C    1.243
   165   6 C    3.942 --   167 C    1.477   164 C    1.319   189 H    0.969
   166   6 C    3.941 --   167 C    1.408   162 C    1.389   199 H    0.963
   167   6 C    3.982 --   165 C    1.477   166 C    1.408   190 H    0.971
   168   1 H    0.997 --     1 C    0.968
   169   1 H    0.997 --     2 C    0.970
   170   1 H    0.998 --     3 C    0.963
   171   1 H    0.996 --     8 C    0.966
   172   1 H    0.997 --    12 C    0.967
   173   1 H    0.996 --    16 C    0.966
   174   1 H    0.996 --    23 C    0.966
   175   1 H    0.998 --    27 C    0.969
   176   1 H    0.997 --    34 C    0.962
   177   1 H    0.997 --    35 C    0.960
   178   1 H    0.980 --    68 C    0.944
   179   1 H    0.997 --   102 C    0.962
   180   1 H    0.997 --   103 C    0.960
   181   1 H    0.998 --   136 C    0.962
   182   1 H    0.998 --   137 C    0.970
   183   1 H    0.998 --   138 C    0.969
   184   1 H    0.998 --   142 C    0.966
   185   1 H    0.998 --   146 C    0.967
   186   1 H    0.997 --   150 C    0.967
   187   1 H    0.996 --   154 C    0.966
   188   1 H    0.996 --   161 C    0.966
   189   1 H    0.998 --   165 C    0.969
   190   1 H    0.998 --   167 C    0.971
   191   1 H    0.998 --    31 C    0.971
   192   1 H    0.998 --    32 C    0.963
   193   1 H    0.998 --    65 C    0.962
   194   1 H    0.998 --    66 C    0.961
   195   1 H    0.998 --    99 C    0.961
   196   1 H    0.998 --   100 C    0.961
   197   1 H    0.998 --   133 C    0.961
   198   1 H    0.998 --   134 C    0.962
   199   1 H    0.998 --   166 C    0.963
   200   8 O    2.348 --     5 C    1.056     9 C    1.043
   201   8 O    2.338 --    20 C    1.048    24 C    1.045
   202   8 O    2.338 --   157 C    1.047   160 C    1.045
 ---------------------------------------------------------------------------

Topologies differ in total number of bonds
Writing topology from bond orders to xtbtopo.mol

molecular dipole:
                 x           y           z       tot (Debye)
 q only:       -0.268       0.336      -0.006
   full:       -0.210       0.243      -0.017       0.818
molecular quadrupole (traceless):
                xx          xy          yy          xz          yz          zz
 q only:      -25.348       0.022      53.976       0.000      -0.277     -28.628
  q+dip:       15.245       3.167      87.182       0.183      -0.412    -102.427
   full:      -17.092       2.906      56.385       0.082      -0.449     -39.293


           -------------------------------------------------
          | TOTAL ENERGY             -387.604271198990 Eh   |
          | GRADIENT NORM               0.000813245223 Eh/α |
          | HOMO-LUMO GAP               0.007006878948 eV   |
           -------------------------------------------------

------------------------------------------------------------------------
 * finished run on 2025/12/08 at 00:43:29.783     
------------------------------------------------------------------------
 total:
 * wall-time:     0 d,  0 h,  0 min,  0.772 sec
 *  cpu-time:     0 d,  0 h,  0 min, 10.375 sec
 * ratio c/w:    13.439 speedup
 SCF:
 * wall-time:     0 d,  0 h,  0 min,  0.655 sec
 *  cpu-time:     0 d,  0 h,  0 min,  9.016 sec
 * ratio c/w:    13.764 speedup

normal termination of xtb
