      -----------------------------------------------------------      
     |                   =====================                   |     
     |                           x T B                           |     
     |                   =====================                   |     
     |                         S. Grimme                         |     
     |          Mulliken Center for Theoretical Chemistry        |     
     |                    University of Bonn                     |     
      -----------------------------------------------------------      

   * xtb version 6.7.1pre (5071a88) compiled by 'Marcel@Raven' on 2024-07-23

   xtb is free software: you can redistribute it and/or modify it under
   the terms of the GNU Lesser General Public License as published by
   the Free Software Foundation, either version 3 of the License, or
   (at your option) any later version.
   
   xtb is distributed in the hope that it will be useful,
   but WITHOUT ANY WARRANTY; without even the implied warranty of
   MERCHANTABILITY or FITNESS FOR A PARTICULAR PURPOSE.  See the
   GNU Lesser General Public License for more details.
   
   Cite this work as:
   * C. Bannwarth, E. Caldeweyher, S. Ehlert, A. Hansen, P. Pracht,
     J. Seibert, S. Spicher, S. Grimme, WIREs Comput. Mol. Sci., 2020, 11,
     e01493. DOI: 10.1002/wcms.1493
   
   for GFN2-xTB:
   * C. Bannwarth, S. Ehlert and S. Grimme., J. Chem. Theory Comput., 2019,
     15, 1652-1671. DOI: 10.1021/acs.jctc.8b01176
   for GFN1-xTB:
   * S. Grimme, C. Bannwarth, P. Shushkov, J. Chem. Theory Comput., 2017,
     13, 1989-2009. DOI: 10.1021/acs.jctc.7b00118
   for GFN0-xTB:
   * P. Pracht, E. Caldeweyher, S. Ehlert, S. Grimme, ChemRxiv, 2019, preprint.
     DOI: 10.26434/chemrxiv.8326202.v1
   for GFN-FF:
   * S. Spicher and S. Grimme, Angew. Chem. Int. Ed., 2020, 59, 15665-15673.
     DOI: 10.1002/anie.202004239
   
   for ALPB and GBSA implicit solvation:
   * S. Ehlert, M. Stahn, S. Spicher, S. Grimme, J. Chem. Theory Comput.,
     2021, 17, 4250-4261. DOI: 10.1021/acs.jctc.1c00471
   
   for ddCOSMO and CPCM-X implicit solvation:
   * M. Stahn, S. Ehlert, S. Grimme, J. Phys. Chem. A,
     2023, XX, XXXX-XXXX. DOI: 10.1021/acs.jpca.3c04382
   
   for DFT-D4:
   * E. Caldeweyher, C. Bannwarth and S. Grimme, J. Chem. Phys., 2017,
     147, 034112. DOI: 10.1063/1.4993215
   * E. Caldeweyher, S. Ehlert, A. Hansen, H. Neugebauer, S. Spicher,
     C. Bannwarth and S. Grimme, J. Chem. Phys., 2019, 150, 154122.
     DOI: 10.1063/1.5090222
   * E. Caldeweyher, J.-M. Mewes, S. Ehlert and S. Grimme, Phys. Chem. Chem. Phys.
     2020, 22, 8499-8512. DOI: 10.1039/D0CP00502A
   
   for sTDA-xTB:
   * S. Grimme and C. Bannwarth, J. Chem. Phys., 2016, 145, 054103.
     DOI: 10.1063/1.4959605
   
   in the mass-spec context:
   * V. Asgeirsson, C. Bauer and S. Grimme, Chem. Sci., 2017, 8, 4879.
     DOI: 10.1039/c7sc00601b
   * J. Koopman and S. Grimme, ACS Omega 2019, 4, 12, 15120-15133.
     DOI: 10.1021/acsomega.9b02011
   
   for metadynamics refer to:
   * S. Grimme, J. Chem. Theory Comput., 2019, 155, 2847-2862
     DOI: 10.1021/acs.jctc.9b00143
   
   for SPH calculations refer to:
   * S. Spicher and S. Grimme, J. Chem. Theory Comput., 2021, 17, 1701-1714
     DOI: 10.1021/acs.jctc.0c01306
   
   for ONIOM refer to:
   * C. Plett, A. Katbashev, S. Ehlert, S. Grimme, M. Bursch,
     Phys. Chem. Chem. Phys., 2023, 25, 17860-17868. DOI: 10.1039/D3CP02178E
   
   for DIPRO refer to:
   * J. Kohn, N. Gildemeister, S. Grimme, D. Fazzi, A. Hansen,
     J. Chem. Phys., 2023, just accepted.
   
   for PTB refer to:
   * S. Grimme, M. Mueller, A. Hansen, J. Chem. Phys., 2023, 158, 124111.
     DOI: 10.1063/5.0137838
   
   with help from (in alphabetical order)
   P. Atkinson, C. Bannwarth, F. Bohle, G. Brandenburg, E. Caldeweyher
   M. Checinski, S. Dohm, S. Ehlert, S. Ehrlich, I. Gerasimov, C. Hölzer
   A. Katbashev, J. Kohn, J. Koopman, C. Lavigne, S. Lehtola, F. März, M. Müller,
   F. Musil, H. Neugebauer, J. Pisarek, C. Plett, P. Pracht, F. Pultar,
   J. Seibert, P. Shushkov, S. Spicher, M. Stahn, M. Steiner, T. Strunk,
   J. Stückrath, T. Rose, and J. Unsleber
   
 * started run on 2025/12/08 at 00:43:03.778     
   ID    Z sym.   atoms
    1    6 C      1-167
    2    1 H      168-199
    3    8 O      200-202

           -------------------------------------------------
          |                Calculation Setup                |
           -------------------------------------------------

          program call               : xtb "C:\Users\LENOVO GAMING\Documents\GitHub\molecular-conductivity-sim\dataset\2nm-3Odoped-1.5percent.xyz" --opt --parallel 4
          coordinate file            : C:\Users\LENOVO GAMING\Documents\GitHub\molecular-conductivity-sim\dataset\2nm-3Odoped-1.5percent.xyz
          omp threads                :                     4


           -------------------------------------------------
          |                 G F N 2 - x T B                 |
           -------------------------------------------------

        Reference                      10.1021/acs.jctc.8b01176
      * Hamiltonian:
        H0-scaling (s, p, d)           1.850000    2.230000    2.230000
        zeta-weighting                 0.500000
      * Dispersion:
        s8                             2.700000
        a1                             0.520000
        a2                             5.000000
        s9                             5.000000
      * Repulsion:
        kExp                           1.500000    1.000000
        rExp                           1.000000
      * Coulomb:
        alpha                          2.000000
        third order                    shell-resolved
        anisotropic                    true
        a3                             3.000000
        a5                             4.000000
        cn-shift                       1.200000
        cn-exp                         4.000000
        max-rad                        5.000000


          ...................................................
          :                      SETUP                      :
          :.................................................:
          :  # basis functions                 712          :
          :  # atomic orbitals                 712          :
          :  # shells                          372          :
          :  # electrons                       718          :
          :  max. iterations                   250          :
          :  Hamiltonian                  GFN2-xTB          :
          :  restarted?                      false          :
          :  GBSA solvation                  false          :
          :  PC potential                    false          :
          :  electronic temp.          300.0000000     K    :
          :  accuracy                    1.0000000          :
          :  -> integral cutoff          0.2500000E+02      :
          :  -> integral neglect         0.1000000E-07      :
          :  -> SCF convergence          0.1000000E-05 Eh   :
          :  -> wf. convergence          0.1000000E-03 e    :
          :  Broyden damping             0.4000000          :
          :  net charge                          0          :
          :  unpaired electrons                  0          :
          ...................................................

 iter      E             dE          RMSdq      gap      omega  full diag
   1   -394.2625160 -0.394263E+03  0.508E+00    0.35       0.0  T
   2   -391.8002345  0.246228E+01  0.354E+00    0.42       1.0  T
   3   -376.9848700  0.148154E+02  0.475E+00    0.19       1.0  T
   4   -371.6205370  0.536433E+01  0.452E+00    0.10       1.0  T
   5   -391.6440899 -0.200236E+02  0.210E+00    0.25       1.0  T
   6   -394.0574414 -0.241335E+01  0.116E+00    0.51       1.0  T
   7   -394.3228983 -0.265457E+00  0.793E-01    0.20       1.0  T
   8   -394.5252962 -0.202398E+00  0.442E-01    0.07       1.0  T
   9   -394.2975938  0.227702E+00  0.879E-01    0.17       1.0  T
  10   -394.5728206 -0.275227E+00  0.279E-01    0.02       1.0  T
  11   -394.2577349  0.315086E+00  0.915E-01    0.22       1.0  T
  12   -394.2715235 -0.137886E-01  0.851E-01    0.19       1.0  T
  13   -394.4993667 -0.227843E+00  0.485E-01    0.09       1.0  T
  14   -394.5779493 -0.785826E-01  0.112E-01    0.01       1.0  T
  15   -394.5845722 -0.662287E-02  0.314E-02    0.02       1.0  T
  16   -394.5846771 -0.104902E-03  0.151E-02    0.02       1.0  T
  17   -394.5762607  0.841638E-02  0.145E-01    0.01       1.0  T
  18   -394.5843651 -0.810440E-02  0.305E-02    0.02       1.0  T
  19   -394.5845980 -0.232962E-03  0.190E-02    0.02       1.0  T
  20   -394.5845939  0.409819E-05  0.197E-02    0.02       1.0  T
  21   -394.5847382 -0.144206E-03  0.936E-03    0.02       1.0  T
  22   -394.5847826 -0.444197E-04  0.269E-03    0.02       2.6  T
  23   -394.5847837 -0.107957E-05  0.181E-03    0.02       3.9  T
  24   -394.5847844 -0.704642E-06  0.866E-04    0.02       8.1  T
  25   -394.5847844 -0.104165E-07  0.663E-04    0.02      10.6  T

   *** convergence criteria satisfied after 25 iterations ***

         #    Occupation            Energy/Eh            Energy/eV
      -------------------------------------------------------------
         1        2.0000           -0.7304418             -19.8763
       ...           ...                  ...                  ...
       353        2.0000           -0.3673117              -9.9951
       354        2.0000           -0.3653257              -9.9410
       355        2.0000           -0.3583789              -9.7520
       356        2.0000           -0.3550145              -9.6604
       357        2.0000           -0.3534174              -9.6170
       358        1.9999           -0.3409635              -9.2781
       359        1.1811           -0.3313312              -9.0160 (HOMO)
       360        0.8190           -0.3306355              -8.9971 (LUMO)
       361        0.0000           -0.3150614              -8.5733
       362                         -0.2945562              -8.0153
       363                         -0.2915558              -7.9336
       364                         -0.2894422              -7.8761
       ...                                ...                  ...
       712                          0.7594968              20.6670
      -------------------------------------------------------------
                  HL-Gap            0.0006957 Eh            0.0189 eV
             Fermi-level           -0.3309833 Eh           -9.0065 eV

 SCC (total)                   0 d,  0 h,  0 min,  3.845 sec
 SCC setup                      ...        0 min,  0.004 sec (  0.104%)
 Dispersion                     ...        0 min,  0.015 sec (  0.390%)
 classical contributions        ...        0 min,  0.001 sec (  0.026%)
 integral evaluation            ...        0 min,  0.071 sec (  1.847%)
 iterations                     ...        0 min,  3.394 sec ( 88.270%)
 molecular gradient             ...        0 min,  0.346 sec (  8.999%)
 printout                       ...        0 min,  0.014 sec (  0.364%)

         :::::::::::::::::::::::::::::::::::::::::::::::::::::
         ::                     SUMMARY                     ::
         :::::::::::::::::::::::::::::::::::::::::::::::::::::
         :: total energy            -387.573131076388 Eh    ::
         :: gradient norm              0.085553345865 Eh/a0 ::
         :: HOMO-LUMO gap              0.018930797575 eV    ::
         ::.................................................::
         :: SCC energy              -394.601438685531 Eh    ::
         :: -> isotropic ES            0.038442257269 Eh    ::
         :: -> anisotropic ES          0.013498823737 Eh    ::
         :: -> anisotropic XC          0.126577122232 Eh    ::
         :: -> dispersion             -0.483660528245 Eh    ::
         :: repulsion energy           7.028307609144 Eh    ::
         :: add. restraining           0.000000000000 Eh    ::
         :: total charge               0.000000000000 e     ::
         :::::::::::::::::::::::::::::::::::::::::::::::::::::

      ----------------------------------------------------------- 
     |                   =====================                   |
     |                        A N C O P T                        |
     |                   =====================                   |
     |               Approximate Normal Coordinate               |
     |                Rational Function Optimizer                |
      ----------------------------------------------------------- 
      ----------------------------------------------------------- 
     |                   =====================                   |
     |                        A N C O P T                        |
     |                   =====================                   |
     |               Approximate Normal Coordinate               |
     |                Rational Function Optimizer                |
      ----------------------------------------------------------- 

          ...................................................
          :                      SETUP                      :
          :.................................................:
          :   optimization level            normal          :
          :   max. optcycles                   606          :
          :   ANC micro-cycles                  20          :
          :   degrees of freedom               600          :
          :.................................................:
          :   RF solver                   davidson          :
          :   write xtbopt.log                true          :
          :   linear?                        false          :
          :   energy convergence         0.5000000E-05 Eh   :
          :   grad. convergence          0.1000000E-02 Eh/α :
          :   maxmium RF displ.          1.0000000          :
          :   Hlow (freq-cutoff)         0.1000000E-01      :
          :   Hmax (freq-cutoff)         5.0000000          :
          :   S6 in model hess.         20.0000000          :
          ...................................................

generating ANC from exact Hessian ...
Using Lindh-Hessian (1995)
 Shifting diagonal of input Hessian by   9.939588298156082E-003
 Lowest  eigenvalues of input Hessian
    0.000000    0.000000    0.000000    0.000000    0.000000    0.000000
    0.010000    0.010078    0.010100    0.010212    0.010233    0.010660
    0.010711    0.010804    0.010814    0.011043    0.011658    0.011803
 Highest eigenvalues
    2.138919    2.144350    2.153108    2.161001    2.179266    2.183971
 

........................................................................
.............................. CYCLE    1 ..............................
........................................................................

 iter      E             dE          RMSdq      gap      omega  full diag
   1   -394.5847843 -0.394585E+03  0.812E-04    0.02       0.0  T
   2   -394.5841586  0.625729E-03  0.391E-02    0.02       1.0  T
   3   -394.5847837 -0.625086E-03  0.149E-03    0.02       4.7  T
   4   -394.5847845 -0.838627E-06  0.385E-04    0.02      18.3  T
   5   -394.5847845  0.593107E-07  0.537E-04    0.02      13.1  T
     SCC iter.                  ...        0 min,  0.689 sec
     gradient                   ...        0 min,  0.354 sec
 * total energy  :  -387.5731312 Eh     change       -0.8435057E-07 Eh
   gradient norm :     0.0855674 Eh/α   predicted     0.0000000E+00 (-100.00%)
   displ. norm   :     0.5075368 α      lambda       -0.2384460E-01
   maximum displ.:     0.3930724 α      in ANC's #45, #44, #91, ...

........................................................................
.............................. CYCLE    2 ..............................
........................................................................

 iter      E             dE          RMSdq      gap      omega  full diag
   1   -394.4677089 -0.394468E+03  0.877E-01    0.24       0.0  T
   2   -392.8704897  0.159722E+01  0.198E+00    0.25       1.0  T
   3   -394.4519914 -0.158150E+01  0.976E-01    0.53       1.0  T
   4   -394.5083312 -0.563399E-01  0.803E-01    0.37       1.0  T
   5   -394.7176160 -0.209285E+00  0.350E-01    0.06       1.0  T
   6   -394.5224509  0.195165E+00  0.778E-01    0.15       1.0  T
   7   -394.7602034 -0.237753E+00  0.102E-01    0.02       1.0  T
   8   -394.7627789 -0.257547E-02  0.585E-02    0.01       1.0  T
   9   -394.7640562 -0.127733E-02  0.126E-02    0.01       1.0  T
  10   -394.7640299  0.262490E-04  0.145E-02    0.01       1.0  T
  11   -394.7636492  0.380784E-03  0.343E-02    0.01       1.0  T
  12   -394.7640767 -0.427532E-03  0.973E-03    0.01       1.0  T
  13   -394.7641066 -0.299068E-04  0.427E-03    0.01       1.6  T
  14   -394.7641125 -0.588510E-05  0.173E-03    0.01       4.1  T
  15   -394.7641136 -0.116430E-05  0.211E-04    0.01      33.4  T
  16   -394.7641136 -0.383392E-08  0.181E-04    0.01      38.8  T
  17   -394.7641137 -0.115123E-07  0.599E-05    0.01     117.4  T
     SCC iter.                  ...        0 min,  2.870 sec
     gradient                   ...        0 min,  0.437 sec
 * total energy  :  -387.5915952 Eh     change       -0.1846403E-01 Eh
   gradient norm :     0.0456858 Eh/α   predicted    -0.1499497E-01 ( -18.79%)
   displ. norm   :     0.5761481 α      lambda       -0.1388238E-01
   maximum displ.:     0.4929356 α      in ANC's #45, #44, #75, ...

........................................................................
.............................. CYCLE    3 ..............................
........................................................................

 iter      E             dE          RMSdq      gap      omega  full diag
   1   -394.6699994 -0.394670E+03  0.825E-01    0.25       0.0  T
   2   -393.3092755  0.136072E+01  0.186E+00    0.28       1.0  T
   3   -394.5988109 -0.128954E+01  0.996E-01    0.53       1.0  T
   4   -394.6556778 -0.568670E-01  0.840E-01    0.26       1.0  T
   5   -394.9184990 -0.262821E+00  0.173E-01    0.03       1.0  T
   6   -394.9140436  0.445534E-02  0.204E-01    0.02       1.0  T
   7   -394.9147736 -0.730005E-03  0.195E-01    0.02       1.0  T
   8   -394.9121808  0.259280E-02  0.210E-01    0.03       1.0  T
   9   -394.9279821 -0.158013E-01  0.600E-02    0.01       1.0  T
  10   -394.9291000 -0.111790E-02  0.263E-02    0.01       1.0  T
  11   -394.9292955 -0.195466E-03  0.139E-02    0.01       1.0  T
  12   -394.9293563 -0.608218E-04  0.618E-03    0.01       1.1  T
  13   -394.9293626 -0.628003E-05  0.471E-03    0.01       1.5  T
  14   -394.9293709 -0.830357E-05  0.977E-04    0.01       7.2  T
  15   -394.9293712 -0.324344E-06  0.344E-04    0.01      20.4  T
  16   -394.9293712 -0.454484E-07  0.409E-05    0.01     172.0  T
     SCC iter.                  ...        0 min,  2.779 sec
     gradient                   ...        0 min,  0.434 sec
 * total energy  :  -387.6011082 Eh     change       -0.9513018E-02 Eh
   gradient norm :     0.0141173 Eh/α   predicted    -0.9245292E-02 (  -2.81%)
   displ. norm   :     0.4340403 α      lambda       -0.4006491E-02
   maximum displ.:     0.3913603 α      in ANC's #45, #44, #27, ...

........................................................................
.............................. CYCLE    4 ..............................
........................................................................

 iter      E             dE          RMSdq      gap      omega  full diag
   1   -394.9153715 -0.394915E+03  0.533E-01    0.09       0.0  T
   2   -394.1868330  0.728538E+00  0.141E+00    0.56       1.0  T
   3   -394.7133865 -0.526554E+00  0.924E-01    0.46       1.0  T
   4   -394.8898093 -0.176423E+00  0.596E-01    0.09       1.0  T
   5   -395.0134586 -0.123649E+00  0.172E-01    0.03       1.0  T
   6   -395.0248928 -0.114342E-01  0.185E-02    0.01       1.0  T
   7   -395.0221992  0.269355E-02  0.854E-02    0.01       1.0  T
   8   -395.0248491 -0.264987E-02  0.193E-02    0.01       1.0  T
   9   -395.0247923  0.567511E-04  0.223E-02    0.01       1.0  T
  10   -395.0249627 -0.170357E-03  0.769E-03    0.01       1.0  T
  11   -395.0249856 -0.228742E-04  0.211E-04    0.01      33.3  T
  12   -395.0249844  0.117433E-05  0.174E-03    0.01       4.1  T
  13   -395.0249850 -0.613397E-06  0.121E-03    0.01       5.8  T
  14   -395.0249856 -0.570119E-06  0.600E-05    0.01     117.2  T
  15   -395.0249856 -0.100471E-08  0.287E-05    0.01     244.9  T
     SCC iter.                  ...        0 min,  2.564 sec
     gradient                   ...        0 min,  0.472 sec
 * total energy  :  -387.6037228 Eh     change       -0.2614602E-02 Eh
   gradient norm :     0.0073100 Eh/α   predicted    -0.2381885E-02 (  -8.90%)
   displ. norm   :     0.2256182 α      lambda       -0.7891755E-03
   maximum displ.:     0.1966931 α      in ANC's #45, #27, #44, ...

........................................................................
.............................. CYCLE    5 ..............................
........................................................................

 iter      E             dE          RMSdq      gap      omega  full diag
   1   -395.0638920 -0.395064E+03  0.646E-02    0.01       0.0  T
   2   -394.7895861  0.274306E+00  0.820E-01    0.38       1.0  T
   3   -395.0641513 -0.274565E+00  0.540E-02    0.01       1.0  T
   4   -395.0541779  0.997338E-02  0.167E-01    0.02       1.0  T
   5   -395.0623612 -0.818332E-02  0.844E-02    0.02       1.0  T
   6   -395.0651794 -0.281821E-02  0.373E-03    0.01       1.9  T
   7   -395.0651832 -0.378053E-05  0.174E-03    0.01       4.0  T
   8   -395.0651842 -0.977847E-06  0.747E-04    0.01       9.4  T
   9   -395.0651844 -0.155419E-06  0.334E-04    0.01      21.1  T
     SCC iter.                  ...        0 min,  1.584 sec
     gradient                   ...        0 min,  0.440 sec
 * total energy  :  -387.6041940 Eh     change       -0.4711500E-03 Eh
   gradient norm :     0.0053380 Eh/α   predicted    -0.4146771E-03 ( -11.99%)
   displ. norm   :     0.0661831 α      lambda       -0.9210653E-04
   maximum displ.:     0.0422504 α      in ANC's #45, #27, #26, ...

........................................................................
.............................. CYCLE    6 ..............................
........................................................................

 iter      E             dE          RMSdq      gap      omega  full diag
   1   -395.0609823 -0.395061E+03  0.174E-01    0.02       0.0  T
   2   -394.6709654  0.390017E+00  0.975E-01    0.57       1.0  T
   3   -394.9664979 -0.295532E+00  0.516E-01    0.09       1.0  T
   4   -395.0713931 -0.104895E+00  0.547E-02    0.01       1.0  T
   5   -395.0724680 -0.107488E-02  0.144E-02    0.01       1.0  T
   6   -395.0724876 -0.195720E-04  0.123E-02    0.01       1.0  T
   7   -395.0725255 -0.378854E-04  0.700E-03    0.01       1.0  T
   8   -395.0725449 -0.193952E-04  0.242E-04    0.01      29.1  T
   9   -395.0725448  0.243885E-07  0.319E-04    0.01      22.0  T
  10   -395.0725449 -0.269102E-07  0.183E-04    0.01      38.5  T
     SCC iter.                  ...        0 min,  1.727 sec
     gradient                   ...        0 min,  0.432 sec
 * total energy  :  -387.6042531 Eh     change       -0.5910190E-04 Eh
   gradient norm :     0.0026059 Eh/α   predicted    -0.4625693E-04 ( -21.73%)
   displ. norm   :     0.0330328 α      lambda       -0.2164127E-04
   maximum displ.:     0.0143310 α      in ANC's #27, #26, #14, ...

........................................................................
.............................. CYCLE    7 ..............................
........................................................................

 iter      E             dE          RMSdq      gap      omega  full diag
   1   -395.0684040 -0.395068E+03  0.110E-01    0.01       0.0  T
   2   -394.7385034  0.329901E+00  0.897E-01    0.48       1.0  T
   3   -395.0518723 -0.313369E+00  0.231E-01    0.04       1.0  T
   4   -395.0694992 -0.176269E-01  0.950E-02    0.01       1.0  T
   5   -395.0730294 -0.353025E-02  0.291E-03    0.01       2.4  T
   6   -395.0730301 -0.711560E-06  0.199E-03    0.01       3.5  T
   7   -395.0730272  0.291459E-05  0.326E-03    0.01       2.2  T
   8   -395.0730314 -0.414490E-05  0.224E-04    0.01      31.4  T
   9   -395.0730314  0.156444E-07  0.289E-04    0.01      24.3  T
  10   -395.0730314 -0.168640E-07  0.199E-04    0.01      35.4  T
     SCC iter.                  ...        0 min,  1.720 sec
     gradient                   ...        0 min,  0.428 sec
 * total energy  :  -387.6042665 Eh     change       -0.1347363E-04 Eh
   gradient norm :     0.0007950 Eh/α   predicted    -0.1084122E-04 ( -19.54%)
   displ. norm   :     0.0341573 α      lambda       -0.5054022E-05
   maximum displ.:     0.0167723 α      in ANC's #14, #4, #27, ...

........................................................................
.............................. CYCLE    8 ..............................
........................................................................

 iter      E             dE          RMSdq      gap      omega  full diag
   1   -395.0714754 -0.395071E+03  0.418E-02    0.01       0.0  T
   2   -394.8100362  0.261439E+00  0.800E-01    0.27       1.0  T
   3   -395.0721338 -0.262098E+00  0.296E-03    0.01       2.4  T
   4   -395.0720674  0.664108E-04  0.131E-02    0.01       1.0  T
   5   -395.0720869 -0.195360E-04  0.109E-02    0.01       1.0  T
   6   -395.0721328 -0.458888E-04  0.194E-03    0.01       3.6  T
   7   -395.0721342 -0.140649E-05  0.378E-04    0.01      18.6  T
   8   -395.0721339  0.270453E-06  0.899E-04    0.01       7.8  T
   9   -395.0721343 -0.313766E-06  0.123E-04    0.01      57.2  T
     SCC iter.                  ...        0 min,  1.555 sec
     gradient                   ...        0 min,  0.440 sec
 * total energy  :  -387.6042712 Eh     change       -0.4657887E-05 Eh
   gradient norm :     0.0008209 Eh/α   predicted    -0.2531842E-05 ( -45.64%)
   displ. norm   :     0.0363261 α      lambda       -0.3394989E-05
   maximum displ.:     0.0201133 α      in ANC's #14, #4, #2, ...

   *** GEOMETRY OPTIMIZATION CONVERGED AFTER 8 ITERATIONS ***

------------------------------------------------------------------------
 total energy gain   :        -0.0311401 Eh      -19.5407 kcal/mol
 total RMSD          :         0.1229960 a0        0.0651 Å
 total power (kW/mol):       -10.2197959 (step)   -4.0680 (real)
------------------------------------------------------------------------

 ANCopt (total)                0 d,  0 h,  0 min, 20.098 sec
 optimizer setup                ...        0 min,  0.004 sec (  0.020%)
 model hessian                  ...        0 min,  0.176 sec (  0.876%)
 ANC generation                 ...        0 min,  0.068 sec (  0.338%)
 coordinate transformation      ...        0 min,  0.001 sec (  0.005%)
 single point calculation       ...        0 min, 19.817 sec ( 98.602%)
 optimization log               ...        0 min,  0.021 sec (  0.104%)
 hessian update                 ...        0 min,  0.003 sec (  0.015%)
 rational function              ...        0 min,  0.007 sec (  0.035%)

================
 final structure:
================
202
 xtb: 6.7.1pre (5071a88)
C           10.19395170248110        8.10819767430239       -0.08774354268380
C            9.58283721349583        9.35514135065885       -0.09419178348376
C            8.21111376228218        9.48270459067071       -0.08103217968046
C            7.38308947660229        8.35282566656268       -0.06069650301320
C            9.40647705850904        6.97111718057768       -0.06735848842560
C            8.00359925132345        7.08750018414280       -0.05340052134412
C            7.22171342198495        5.89696638366679       -0.03272432559923
C            9.97204277979308        3.41328065930406       -0.04265779840807
C            9.31242102372359        4.61102417608108       -0.04504868559445
C            7.89054234519326        4.66149785318313       -0.03068191099095
C            7.15733771434762        3.46279930338323       -0.01542296303004
C            9.89989778879518        0.94593083265010       -0.02773731272959
C            9.25840109471461        2.18433124864322       -0.02847545233867
C            7.83475862191515        2.22526275114052       -0.01590336761924
C            7.09237172040531        1.03038009533613       -0.00540834617406
C            9.82545105226484       -1.52367542893158       -0.01823008580266
C            9.18597418803680       -0.25675492053414       -0.01743987258321
C            7.76389931177005       -0.20699831863731       -0.00721512683258
C            7.01594009160910       -1.40255851510013       -0.00028602221535
C            9.09512203659825       -2.68435333240558       -0.01107414129580
C            7.67703782206461       -2.63825776284210       -0.00279899261182
C            6.93083845241040       -3.83644373368717        0.00171033524879
C            9.73054725324285       -6.23542978413620       -0.01102460634810
C            9.04569671137603       -5.05269583333177       -0.00834868519225
C            7.62470325447183       -5.06225266941320       -0.00147014308830
C            6.91348118485142       -6.27295568677115        0.00183490700762
C            9.73482161967073       -8.69043927388795       -0.01030145376575
C            9.03996240940854       -7.47379130341043       -0.00739660462149
C            7.62027034407332       -7.49865750799529       -0.00111111209651
C            6.91606478602531       -8.72776950265452        0.00205027029617
C            9.04679130678015       -9.88168955712341       -0.00716382615561
C            7.65924872930124       -9.90573953632021       -0.00111100236063
C            5.93654207342038        8.41158538110357       -0.04353215445613
C            5.24198201892490        9.62854000293996       -0.05830684549256
C            3.87344935415241        9.67713794911813       -0.02714764108940
C            3.08927669559608        8.51508977166293        0.01975254907485
C            5.82168757585825        5.95815385405191       -0.01478058666467
C            5.17144520085129        7.22382371944056       -0.01523642731024
C            3.75201985684162        7.26787665363649        0.01145382760031
C            2.99826126788462        6.05717617396309        0.02416777371127
C            5.74200453361759        3.51682813755062       -0.00152815488040
C            5.07606531616198        4.75841925629721        0.00121589746887
C            3.65822142904948        4.80865944938756        0.01601810525949
C            2.91620399120159        3.60623086725467        0.02122172193313
C            5.67096215454874        1.07421581453535        0.00473646924440
C            4.99923390817125        2.31224444709992        0.00763016115961
C            3.58506900586129        2.35750423004781        0.01669182918658
C            2.84505443273051        1.15601553433456        0.01986064088485
C            5.59698026671964       -1.36930407168933        0.00745277025580
C            4.92713581460153       -0.12612447505531        0.01033701516228
C            3.51431454041148       -0.08822164519758        0.01676777076272
C            2.77496733785326       -1.29546644801981        0.01841054979526
C            5.52795380916127       -3.81124797382680        0.00794698133041
C            4.85697163062608       -2.56740575867694        0.01091657283620
C            3.44292178439182       -2.53605997815822        0.01572840259659
C            2.70987676721308       -3.74946031384013        0.01646322791402
C            5.49278912723870       -6.25206210204928        0.00742414921344
C            4.80441049470255       -5.02664269909768        0.01024142969091
C            3.38400780149080       -4.99315908215850        0.01424016088020
C            2.65578152503125       -6.20002721276166        0.01514987817979
C            5.46586732102080       -8.70588923338916        0.00779338850839
C            4.76935147108015       -7.47552023949078        0.00981242052076
C            3.34773362325736       -7.44496879766478        0.01377236383907
C            2.61537332148459       -8.65234369305490        0.01601362338791
C            4.70608301034322       -9.87912078932115        0.01117034628034
C            3.33407046201962       -9.85345344484186        0.01516931117709
C            1.65309437758163        8.55109902855693        0.06637038675067
C            0.93760480353441        9.77230064235361        0.13471306767753
C           -0.40659949101881        9.73823443140414        0.13791313721193
C           -1.19651140305316        8.61106658057281        0.09836297889039
C            1.58478627311206        6.09633370023248        0.03725007258890
C            0.91006562906400        7.35038543100772        0.05821831707654
C           -0.50740744180864        7.37124071957045        0.07496085435222
C           -1.26168390679206        6.16812091815385        0.05517251126406
C            1.50308369768491        3.64853420902475        0.02843858858302
C            0.83748689093516        4.89524841295645        0.03578715809308
C           -0.58413069742601        4.92997553289357        0.03994817831621
C           -1.32507835635467        3.72558998758435        0.03093193170897
C            1.42918896869628        1.19660464743392        0.02377913152714
C            0.76151142282310        2.44001018762363        0.02722497458364
C           -0.65289464053897        2.47858904629327        0.02697913194107
C           -1.38968146065986        1.27447670511623        0.02217253081505
C            1.35982105067523       -1.25835794218882        0.02075379815123
C            0.69166087560780       -0.01097558942732        0.02265300029160
C           -0.71970730853158        0.02831915206490        0.02149537816504
C           -1.45489105099016       -1.18081267037004        0.01792643274274
C            1.29748471443460       -3.71346374425379        0.01808141846421
C            0.62617703063184       -2.46483066195462        0.01948699488654
C           -0.78832292912139       -2.42542989023390        0.01797611930780
C           -1.52650466560943       -3.63593791451496        0.01502695210471
C            1.23827943402682       -6.16328489842521        0.01655092396081
C            0.56291873909187       -4.92353197195687        0.01711892785993
C           -0.85905147162927       -4.88407175247617        0.01566558133441
C           -1.60093410948781       -6.08544678566841        0.01386171365958
C            1.17384243525758       -8.61588055860668        0.01801560320385
C            0.49532602531274       -7.37678917324803        0.01688450206778
C           -0.92519774713100       -7.33761718487010        0.01570267011641
C           -1.67030016840824       -8.53787394925738        0.01589629363235
C            0.40364502404608       -9.78492913874886        0.02033398967321
C           -0.96528403178611       -9.74735516253962        0.01935473431998
C           -2.62547780957877        8.64762707815516        0.08253444477981
C           -3.30514848316843        9.86963333911376        0.09655058221624
C           -4.67460756614714        9.91386574570335        0.06995690760274
C           -5.44831438816631        8.74497389527140        0.03183137789229
C           -2.67775434099660        6.20528321997583        0.04716615015899
C           -3.36333185768507        7.45083856273798        0.05346766914032
C           -4.78095358762555        7.49824201591416        0.03134768438469
C           -5.51498015388584        6.28149289097166        0.01064860057547
C           -2.73982996755295        3.76294064148855        0.02575321007962
C           -3.41526484403964        5.00407099341567        0.02868021597983
C           -4.83774881122351        5.04474501336279        0.01349348143971
C           -5.57163784787299        3.83649551427428        0.00079017322574
C           -2.80591939922592        1.31449820661279        0.01648695252896
C           -3.47831787348419        2.55460370982875        0.01584330129271
C           -4.89545919280360        2.59361241969888        0.00483983534758
C           -5.63078886685371        1.39027931129397       -0.00355374011928
C           -2.87006196119554       -1.13833802121103        0.01258414408801
C           -3.54179328623020        0.10723053456701        0.01037670424122
C           -4.95455001369141        0.14940030696498        0.00103133345505
C           -5.68982155764100       -1.05667417822085       -0.00489256996954
C           -2.93872189886844       -3.59347459003354        0.01030011270782
C           -3.60427748256965       -2.34167061201917        0.00794641772659
C           -5.01735013569913       -2.29433877535298       -0.00026411380588
C           -5.75451424019603       -3.50113103929707       -0.00493396278777
C           -3.01805585605362       -6.04392677338279        0.00961633201607
C           -3.67926587553966       -4.79890432291633        0.00676488441926
C           -5.09914673640898       -4.75397518705670       -0.00046763797133
C           -5.85311193756445       -5.94133235866254       -0.00409544803906
C           -3.11140121889526       -8.49499197099999        0.01173378892320
C           -3.77660063793265       -7.24956973015414        0.00746460867894
C           -5.19769086739262       -7.20220386802974        0.00080258136750
C           -5.96000737398451       -8.39316002695324       -0.00144649522140
C           -3.89439934743710       -9.65547564792994        0.01069490421215
C           -5.26547720094814       -9.60624915988345        0.00437752758513
C           -6.89496090436639        8.77954253031007       -0.00439459876325
C           -7.61693544015878        9.97326410866087       -0.02681697633883
C           -9.00594063426666        9.98349297895019       -0.05905053700406
C           -9.71351566394313        8.80854154649401       -0.06840179006473
C           -6.93365172163667        6.31420941019887       -0.01032016559292
C           -7.61263916966713        7.55927694842736       -0.02072025921414
C           -9.03831647856924        7.57207565196151       -0.04995123479397
C           -9.74422518539740        6.36529934706465       -0.06035282153816
C           -6.98873335991989        3.86907273062288       -0.01580173403561
C           -7.66231010349220        5.10825638135296       -0.02372385655684
C           -9.09386954537909        5.13014089064685       -0.04599951288738
C           -9.80228625588513        3.92171622917503       -0.05390272476666
C           -7.05151288706038        1.42656998287046       -0.01717750235977
C           -7.72372937475247        2.66075360724666       -0.02502396183394
C           -9.15375090111695        2.68464968584483       -0.04223522638848
C           -9.86218808631298        1.47138281011781       -0.04757930919219
C           -7.10886667595041       -1.01193032278931       -0.01621755391524
C           -7.78822559291244        0.22084908872047       -0.02357049770364
C           -9.21354875414190        0.24104606843365       -0.03764076183332
C           -9.92153081044953       -0.99038876554691       -0.04157095085629
C           -7.15714457137376       -3.44977842261149       -0.01467672657950
C           -7.83588849934036       -2.21383881974688       -0.02105413472172
C           -9.25479728852285       -2.18651051086581       -0.03294866044485
C           -7.27248367856756       -5.88524969361797       -0.01294403019308
C           -7.91648319789916       -4.63753485570939       -0.01895197978578
C           -9.33419037633820       -4.55272486214505       -0.02924794303763
C          -10.08303617661220       -5.69622739608768       -0.03230943454986
C           -7.40878395090570       -8.33645768342460       -0.00993157873133
C           -8.04490987321953       -7.07093676452873       -0.01616998336206
C           -9.46112627505940       -6.96991606892081       -0.02559221854351
C          -10.22114657862549       -8.14707480408436       -0.02825493241040
C           -8.21467500624952       -9.47268449509478       -0.01282695796911
C           -9.59879611892313       -9.37386191370326       -0.02179348356382
H           11.26719867487409        8.00804104871111       -0.09801017330615
H           10.19999382102323       10.24094878221787       -0.10960862815645
H            7.78577946738481       10.47268069895050       -0.08560200035423
H           11.05060864237797        3.40083634058240       -0.05288985798627
H           10.97982928068629        0.91421683457606       -0.03642490637628
H           10.90302472188192       -1.57455913119825       -0.02520350022189
H           10.80920615957208       -6.23035673314913       -0.01618011812959
H           10.81464604561287       -8.67980075755958       -0.01511834241359
H            5.78545838413461       10.55871749065449       -0.09619193078412
H            3.40146188419389       10.64641313468183       -0.04609174737568
H            1.46396078140582       10.71146204176762        0.18669034978559
H           -2.72131981029078       10.77899680056683        0.12655178045499
H           -5.15333096111024       10.87948505028067        0.08074431862727
H           -7.10575853761836       10.92196101091277       -0.02165990178065
H           -9.52636066295673       10.93015402944912       -0.07631767999080
H          -10.79333227315723        8.81281318187022       -0.09142745912569
H          -10.82452673933560        6.39091183350748       -0.08049411434169
H          -10.88249504885979        3.95034159231952       -0.06939599653621
H          -10.94225118927129        1.50099803178195       -0.05966741780077
H          -11.00014353353834       -0.98127705165897       -0.05140100953866
H          -11.15974199568233       -5.63160159331603       -0.03996510187378
H          -11.29876653591114       -8.07761886637882       -0.03539651567350
H          -10.19139262700016      -10.27730660861900       -0.02380345761601
H            9.58966396424834      -10.81586264994513       -0.00953136743347
H            7.16892294436280      -10.86562639196231        0.00095493281872
H            5.19413181818964      -10.84028109789948        0.01046094250140
H            2.81462298228901      -10.79774382284990        0.01728922875053
H            0.88145899147945      -10.75079358494266        0.02268162118700
H           -1.49522332163688      -10.68562664070704        0.02093867645107
H           -3.42703274019286      -10.62655983746866        0.01459080273191
H           -5.80534682275169      -10.53926050490698        0.00367038411928
H           -7.77691701360208      -10.45762734190721       -0.00820026040811
O           10.04052128051685        5.76603880833057       -0.06125167752276
O            9.75141520021352       -3.88187269000367       -0.01275035832431
O           -9.97541244116756       -3.34612907351143       -0.03644660272728
 
 Bond Distances (Angstroems)
 ---------------------------
C1-C2=1.3887         C1-C5=1.3833         C1-H168=1.0780       C2-C1=1.3887         C2-C3=1.3777         C2-H169=1.0797       
C3-C2=1.3777         C3-C4=1.4010         C3-H170=1.0775       C4-C3=1.4010         C4-C6=1.4093         C4-C33=1.4478        
C5-C1=1.3833         C5-C6=1.4078         C5-O200=1.3617       C6-C4=1.4093         C6-C5=1.4078         C6-C7=1.4245         
C7-C6=1.4245         C7-C10=1.4049        C7-C37=1.4015        C8-C9=1.3674         C8-C13=1.4212        C8-H171=1.0787       
C9-C8=1.3674         C9-C10=1.4228        C9-O200=1.3654       C10-C7=1.4049        C10-C9=1.4228        C10-C11=1.4052       
C11-C10=1.4052       C11-C14=1.4108       C11-C41=1.4164       C12-C13=1.3947       C12-C17=1.3987       C12-H172=1.0804      
C13-C8=1.4212        C13-C12=1.3947       C13-C14=1.4243       C14-C11=1.4108       C14-C13=1.4243       C14-C15=1.4068       
C15-C14=1.4068       C15-C18=1.4079       C15-C45=1.4221       C16-C17=1.4192       C16-C20=1.3714       C16-H173=1.0788      
C17-C12=1.3987       C17-C16=1.4192       C17-C18=1.4230       C18-C15=1.4079       C18-C17=1.4230       C18-C19=1.4103       
C19-C18=1.4103       C19-C21=1.4014       C19-C49=1.4194       C20-C16=1.3714       C20-C21=1.4189       C20-O201=1.3656      
C21-C19=1.4014       C21-C20=1.4189       C21-C22=1.4116       C22-C21=1.4116       C22-C25=1.4086       C22-C53=1.4031       
C23-C24=1.3667       C23-C28=1.4179       C23-H174=1.0787      C24-C23=1.3667       C24-C25=1.4210       C24-O201=1.3671      
C25-C22=1.4086       C25-C24=1.4210       C25-C26=1.4042       C26-C25=1.4042       C26-C29=1.4149       C26-C57=1.4209       
C27-C28=1.4011       C27-C31=1.3757       C27-H175=1.0799      C28-C23=1.4179       C28-C27=1.4011       C28-C29=1.4199       
C29-C26=1.4149       C29-C28=1.4199       C29-C30=1.4166       C30-C29=1.4166       C30-C32=1.3928       C30-C61=1.4504       
C31-C27=1.3757       C31-C32=1.3878       C31-H191=1.0805      C32-C30=1.3928       C32-C31=1.3878       C32-H192=1.0779      
C33-C4=1.4478        C33-C34=1.4013       C33-C38=1.4131       C34-C33=1.4013       C34-C35=1.3697       C34-H176=1.0780      
C35-C34=1.3697       C35-C36=1.4027       C35-H177=1.0783      C36-C35=1.4027       C36-C39=1.4124       C36-C67=1.4374       
C37-C7=1.4015        C37-C38=1.4229       C37-C42=1.4126       C38-C33=1.4131       C38-C37=1.4229       C38-C39=1.4204       
C39-C36=1.4124       C39-C38=1.4204       C39-C40=1.4262       C40-C39=1.4262       C40-C43=1.4122       C40-C71=1.4141       
C41-C11=1.4164       C41-C42=1.4089       C41-C46=1.4152       C42-C37=1.4126       C42-C41=1.4089       C42-C43=1.4188       
C43-C40=1.4122       C43-C42=1.4188       C43-C44=1.4130       C44-C43=1.4130       C44-C47=1.4166       C44-C75=1.4138       
C45-C15=1.4221       C45-C46=1.4085       C45-C50=1.4121       C46-C41=1.4152       C46-C45=1.4085       C46-C47=1.4149       
C47-C44=1.4166       C47-C46=1.4149       C47-C48=1.4111       C48-C47=1.4111       C48-C51=1.4128       C48-C79=1.4165       
C49-C19=1.4194       C49-C50=1.4122       C49-C54=1.4082       C50-C45=1.4121       C50-C49=1.4122       C50-C51=1.4133       
C51-C48=1.4128       C51-C50=1.4133       C51-C52=1.4157       C52-C51=1.4157       C52-C55=1.4090       C52-C83=1.4156       
C53-C22=1.4031       C53-C54=1.4133       C53-C58=1.4145       C54-C49=1.4082       C54-C53=1.4133       C54-C55=1.4144       
C55-C52=1.4090       C55-C54=1.4144       C55-C56=1.4176       C56-C55=1.4176       C56-C59=1.4147       C56-C87=1.4129       
C57-C26=1.4209       C57-C58=1.4055       C57-C62=1.4213       C58-C53=1.4145       C58-C57=1.4055       C58-C59=1.4208       
C59-C56=1.4147       C59-C58=1.4208       C59-C60=1.4096       C60-C59=1.4096       C60-C63=1.4243       C60-C91=1.4180       
C61-C30=1.4504       C61-C62=1.4138       C61-C65=1.3978       C62-C57=1.4213       C62-C61=1.4138       C62-C63=1.4220       
C63-C60=1.4243       C63-C62=1.4220       C63-C64=1.4121       C64-C63=1.4121       C64-C66=1.3997       C64-C95=1.4420       
C65-C61=1.3978       C65-C66=1.3723       C65-H193=1.0780      C66-C64=1.3997       C66-C65=1.3723       C66-H194=1.0777      
C67-C36=1.4374       C67-C68=1.4170       C67-C72=1.4120       C68-C67=1.4170       C68-C69=1.3446       C68-H178=1.0779      
C69-C68=1.3446       C69-C70=1.3770       C70-C69=1.3770       C70-C73=1.4187       C70-C101=1.4295      C71-C40=1.4141       
C71-C72=1.4242       C71-C76=1.4146       C72-C67=1.4120       C72-C71=1.4242       C72-C73=1.4177       C73-C70=1.4187       
C73-C72=1.4177       C73-C74=1.4201       C74-C73=1.4201       C74-C77=1.4115       C74-C105=1.4166      C75-C44=1.4138       
C75-C76=1.4133       C75-C80=1.4179       C76-C71=1.4146       C76-C75=1.4133       C76-C77=1.4220       C77-C74=1.4115       
C77-C76=1.4220       C77-C78=1.4141       C78-C77=1.4141       C78-C81=1.4166       C78-C109=1.4153      C79-C48=1.4165       
C79-C80=1.4113       C79-C84=1.4150       C80-C75=1.4179       C80-C79=1.4113       C80-C81=1.4149       C81-C78=1.4166       
C81-C80=1.4149       C81-C82=1.4117       C82-C81=1.4117       C82-C85=1.4148       C82-C113=1.4168      C83-C52=1.4156       
C83-C84=1.4151       C83-C88=1.4120       C84-C79=1.4150       C84-C83=1.4151       C84-C85=1.4119       C85-C82=1.4148       
C85-C84=1.4119       C85-C86=1.4151       C86-C85=1.4151       C86-C89=1.4119       C86-C117=1.4158      C87-C56=1.4129       
C87-C88=1.4177       C87-C92=1.4156       C88-C83=1.4120       C88-C87=1.4177       C88-C89=1.4150       C89-C86=1.4119       
C89-C88=1.4150       C89-C90=1.4178       C90-C89=1.4178       C90-C93=1.4154       C90-C121=1.4129      C91-C60=1.4180       
C91-C92=1.4118       C91-C96=1.4229       C92-C87=1.4156       C92-C91=1.4118       C92-C93=1.4225       C93-C90=1.4154       
C93-C92=1.4225       C93-C94=1.4120       C94-C93=1.4120       C94-C97=1.4229       C94-C125=1.4177      C95-C64=1.4420       
C95-C96=1.4127       C95-C99=1.4000       C96-C91=1.4229       C96-C95=1.4127       C96-C97=1.4211       C97-C94=1.4229       
C97-C96=1.4211       C97-C98=1.4127       C98-C97=1.4127       C98-C100=1.4000      C98-C129=1.4417      C99-C95=1.4000       
C99-C100=1.3694      C99-H195=1.0776      C100-C98=1.4000      C100-C99=1.3694      C100-H196=1.0776     C101-C70=1.4295      
C101-C102=1.3984     C101-C106=1.4063     C102-C101=1.3984     C102-C103=1.3704     C102-H179=1.0811     C103-C102=1.3704     
C103-C104=1.4023     C103-H180=1.0778     C104-C103=1.4023     C104-C107=1.4141     C104-C135=1.4475     C105-C74=1.4166      
C105-C106=1.4218     C105-C110=1.4097     C106-C101=1.4063     C106-C105=1.4218     C106-C107=1.4186     C107-C104=1.4141     
C107-C106=1.4186     C107-C108=1.4212     C108-C107=1.4212     C108-C111=1.4100     C108-C139=1.4192     C109-C78=1.4153      
C109-C110=1.4130     C109-C114=1.4162     C110-C105=1.4097     C110-C109=1.4130     C110-C111=1.4231     C111-C108=1.4100     
C111-C110=1.4231     C111-C112=1.4137     C112-C111=1.4137     C112-C115=1.4149     C112-C143=1.4176     C113-C82=1.4168      
C113-C114=1.4107     C113-C118=1.4139     C114-C109=1.4162     C114-C113=1.4107     C114-C115=1.4177     C115-C112=1.4149     
C115-C114=1.4177     C115-C116=1.4102     C116-C115=1.4102     C116-C119=1.4132     C116-C147=1.4213     C117-C86=1.4158      
C117-C118=1.4152     C117-C122=1.4096     C118-C113=1.4139     C118-C117=1.4152     C118-C119=1.4134     C119-C116=1.4132     
C119-C118=1.4134     C119-C120=1.4125     C120-C119=1.4125     C120-C123=1.4086     C120-C151=1.4198     C121-C90=1.4129      
C121-C122=1.4177     C121-C126=1.4147     C122-C117=1.4096     C122-C121=1.4177     C122-C123=1.4139     C123-C120=1.4086     
C123-C122=1.4139     C123-C124=1.4141     C124-C123=1.4141     C124-C127=1.4139     C124-C155=1.4036     C125-C94=1.4177      
C125-C126=1.4097     C125-C130=1.4244     C126-C121=1.4147     C126-C125=1.4097     C126-C127=1.4206     C127-C124=1.4139     
C127-C126=1.4206     C127-C128=1.4065     C128-C127=1.4065     C128-C131=1.4211     C128-C158=1.4205     C129-C98=1.4417      
C129-C130=1.4119     C129-C133=1.3999     C130-C125=1.4244     C130-C129=1.4119     C130-C131=1.4219     C131-C128=1.4211     
C131-C130=1.4219     C131-C132=1.4140     C132-C131=1.4140     C132-C134=1.3979     C132-C162=1.4499     C133-C129=1.3999     
C133-C134=1.3720     C133-H197=1.0777     C134-C132=1.3979     C134-C133=1.3720     C134-H198=1.0779     C135-C104=1.4475     
C135-C136=1.3952     C135-C140=1.4158     C136-C135=1.3952     C136-C137=1.3894     C136-H181=1.0777     C137-C136=1.3894     
C137-C138=1.3716     C137-H182=1.0804     C138-C137=1.3716     C138-C141=1.4089     C138-H183=1.0801     C139-C108=1.4192     
C139-C140=1.4182     C139-C144=1.4091     C140-C135=1.4158     C140-C139=1.4182     C140-C141=1.4260     C141-C138=1.4089     
C141-C140=1.4260     C141-C142=1.3981     C142-C141=1.3981     C142-C145=1.3960     C142-H184=1.0808     C143-C112=1.4176     
C143-C144=1.4104     C143-C148=1.4143     C144-C139=1.4091     C144-C143=1.4104     C144-C145=1.4319     C145-C142=1.3960     
C145-C144=1.4319     C145-C146=1.4008     C146-C145=1.4008     C146-C149=1.3968     C146-H185=1.0807     C147-C116=1.4213     
C147-C148=1.4054     C147-C152=1.4130     C148-C143=1.4143     C148-C147=1.4054     C148-C149=1.4303     C149-C146=1.3968     
C149-C148=1.4303     C149-C150=1.4050     C150-C149=1.4050     C150-C153=1.3909     C150-H186=1.0805     C151-C120=1.4198     
C151-C152=1.4076     C151-C156=1.4047     C152-C147=1.4130     C152-C151=1.4076     C152-C153=1.4255     C153-C150=1.3909     
C153-C152=1.4255     C153-C154=1.4205     C154-C153=1.4205     C154-C157=1.3694     C154-H187=1.0787     C155-C124=1.4036     
C155-C156=1.4101     C155-C159=1.4097     C156-C151=1.4047     C156-C155=1.4101     C156-C157=1.4192     C157-C154=1.3694     
C157-C156=1.4192     C157-O202=1.3653     C158-C128=1.4205     C158-C159=1.4041     C158-C163=1.4151     C159-C155=1.4097     
C159-C158=1.4041     C159-C160=1.4203     C160-C159=1.4203     C160-C161=1.3669     C160-O202=1.3664     C161-C160=1.3669     
C161-C164=1.4174     C161-H188=1.0787     C162-C132=1.4499     C162-C163=1.4164     C162-C166=1.3930     C163-C158=1.4151     
C163-C162=1.4164     C163-C164=1.4198     C164-C161=1.4174     C164-C163=1.4198     C164-C165=1.4012     C165-C164=1.4012     
C165-C167=1.3756     C165-H189=1.0799     C166-C162=1.3930     C166-C167=1.3877     C166-H199=1.0779     C167-C165=1.3756     
C167-C166=1.3877     C167-H190=1.0805     H168-C1=1.0780       H169-C2=1.0797       H170-C3=1.0775       H171-C8=1.0787       
H172-C12=1.0804      H173-C16=1.0788      H174-C23=1.0787      H175-C27=1.0799      H176-C34=1.0780      H177-C35=1.0783      
H178-C68=1.0779      H179-C102=1.0811     H180-C103=1.0778     H181-C136=1.0777     H182-C137=1.0804     H183-C138=1.0801     
H184-C142=1.0808     H185-C146=1.0807     H186-C150=1.0805     H187-C154=1.0787     H188-C161=1.0787     H189-C165=1.0799     
H190-C167=1.0805     H191-C31=1.0805      H192-C32=1.0779      H193-C65=1.0780      H194-C66=1.0777      H195-C99=1.0776      
H196-C100=1.0776     H197-C133=1.0777     H198-C134=1.0779     H199-C166=1.0779     O200-C5=1.3617       O200-C9=1.3654       
O201-C20=1.3656      O201-C24=1.3671      O202-C157=1.3653     O202-C160=1.3664     
 C  H  Rav=1.0789 sigma=0.0012  Rmin=1.0775  Rmax=1.0811    32
 C  C  Rav=1.4106 sigma=0.0150  Rmin=1.3446  Rmax=1.4504   231
 O  C  Rav=1.3653 sigma=0.0017  Rmin=1.3617  Rmax=1.3671     6
 
 selected bond angles (degree)
 --------------------
C5-C1-C2=119.19                H168-C1-C2=121.44              H168-C1-C5=119.38              C3-C2-C1=121.42                
H169-C2-C1=119.03              H169-C2-C3=119.56              C4-C3-C2=120.93                H170-C3-C2=118.56              
H170-C3-C4=120.51              C6-C4-C3=117.64                C33-C4-C3=123.91               C33-C4-C6=118.44               
C6-C5-C1=119.97                O200-C5-C1=117.55              O200-C5-C6=122.49              C5-C6-C4=120.86                
C7-C6-C4=120.58                C7-C6-C5=118.56                C10-C7-C6=118.27               C37-C7-C6=120.80               
C37-C7-C10=120.93              C13-C8-C9=121.01               H171-C8-C9=119.50              H171-C8-C13=119.49             
C10-C9-C8=120.87               O200-C9-C8=118.93              O200-C9-C10=120.20             C9-C10-C7=120.46               
C11-C10-C7=120.12              C11-C10-C9=119.42              
 
 selected dihedral angles (degree)
 ---------------------------------
C3-C2-C1-C5=  0.00            C3-C2-C1-H168=180.00          H169-C2-C1-C5=179.97          H169-C2-C1-H168=  0.00        
C4-C3-C2-C1=  0.00            C4-C3-C2-H169=180.01          H170-C3-C2-C1=179.93          H170-C3-C2-H169=359.94        
C6-C4-C3-C2=  0.04            C6-C4-C3-H170=180.11          C33-C4-C3-C2=179.88           C33-C4-C3-H170=359.95         
C6-C5-C1-C2=  0.00            C6-C5-C1-H168=179.98          O200-C5-C1-C2=180.02          O200-C5-C1-H168=  0.00        
C5-C6-C4-C3=359.94            C5-C6-C4-C33=180.09           C7-C6-C4-C3=179.99            C7-C6-C4-C33=  0.14           
C4-C6-C5-C1=  0.04            C4-C6-C5-O200=180.02          C7-C6-C5-C1=179.99            C7-C6-C5-O200=359.97          
C10-C7-C6-C4=179.79           C10-C7-C6-C5=359.84           C37-C7-C6-C4=359.79           C37-C7-C6-C5=179.84           
C10-C9-C8-C13=  0.13          C10-C9-C8-H171=180.05         O200-C9-C8-C13=180.11         O200-C9-C8-H171=  0.04        
C9-C10-C7-C6=  0.18           C9-C10-C7-C37=180.18          C11-C10-C7-C6=180.23          C11-C10-C7-C37=  0.23         
C7-C10-C9-C8=179.97           C7-C10-C9-O200=  0.00         C11-C10-C9-C8=359.93          C11-C10-C9-O200=179.94        
           -------------------------------------------------
          |                Final Singlepoint                |
           -------------------------------------------------

          ...................................................
          :                      SETUP                      :
          :.................................................:
          :  # basis functions                 712          :
          :  # atomic orbitals                 712          :
          :  # shells                          372          :
          :  # electrons                       718          :
          :  max. iterations                   250          :
          :  Hamiltonian                  GFN2-xTB          :
          :  restarted?                      false          :
          :  GBSA solvation                  false          :
          :  PC potential                    false          :
          :  electronic temp.          300.0000000     K    :
          :  accuracy                    1.0000000          :
          :  -> integral cutoff          0.2500000E+02      :
          :  -> integral neglect         0.1000000E-07      :
          :  -> SCF convergence          0.1000000E-05 Eh   :
          :  -> wf. convergence          0.1000000E-03 e    :
          :  Broyden damping             0.4000000          :
          :  net charge                          0          :
          :  unpaired electrons                  0          :
          ...................................................

 iter      E             dE          RMSdq      gap      omega  full diag
   1   -395.0721343 -0.395072E+03  0.115E-05    0.01       0.0  T
   2   -395.0721343  0.445425E-09  0.350E-05    0.01     200.8  T
   3   -395.0721342  0.163535E-07  0.206E-04    0.01      34.2  T

   *** convergence criteria satisfied after 3 iterations ***

         #    Occupation            Energy/Eh            Energy/eV
      -------------------------------------------------------------
         1        2.0000           -0.7360606             -20.0292
       ...           ...                  ...                  ...
       353        2.0000           -0.3674090              -9.9977
       354        2.0000           -0.3659993              -9.9593
       355        2.0000           -0.3578332              -9.7371
       356        2.0000           -0.3544337              -9.6446
       357        2.0000           -0.3540686              -9.6347
       358        2.0000           -0.3406738              -9.2702
       359        1.0678           -0.3268976              -8.8953 (HOMO)
       360        0.9322           -0.3266397              -8.8883 (LUMO)
       361        0.0000           -0.3150607              -8.5732
       362                         -0.2944930              -8.0136
       363                         -0.2913261              -7.9274
       364                         -0.2880792              -7.8390
       ...                                ...                  ...
       712                          0.7923281              21.5603
      -------------------------------------------------------------
                  HL-Gap            0.0002580 Eh            0.0070 eV
             Fermi-level           -0.3267687 Eh           -8.8918 eV

 SCC (total)                   0 d,  0 h,  0 min,  1.072 sec
 SCC setup                      ...        0 min,  0.004 sec (  0.373%)
 Dispersion                     ...        0 min,  0.009 sec (  0.840%)
 classical contributions        ...        0 min,  0.001 sec (  0.093%)
 integral evaluation            ...        0 min,  0.084 sec (  7.836%)
 iterations                     ...        0 min,  0.518 sec ( 48.321%)
 molecular gradient             ...        0 min,  0.441 sec ( 41.138%)
 printout                       ...        0 min,  0.015 sec (  1.399%)

         :::::::::::::::::::::::::::::::::::::::::::::::::::::
         ::                     SUMMARY                     ::
         :::::::::::::::::::::::::::::::::::::::::::::::::::::
         :: total energy            -387.604271182536 Eh    ::
         :: gradient norm              0.000828786175 Eh/a0 ::
         :: HOMO-LUMO gap              0.007019428105 eV    ::
         ::.................................................::
         :: SCC energy              -395.089170009218 Eh    ::
         :: -> isotropic ES            0.036871015650 Eh    ::
         :: -> anisotropic ES          0.014003770449 Eh    ::
         :: -> anisotropic XC          0.116887799150 Eh    ::
         :: -> dispersion             -0.490119119970 Eh    ::
         :: repulsion energy           7.484898826683 Eh    ::
         :: add. restraining           0.000000000000 Eh    ::
         :: total charge              -0.000000000000 e     ::
         :::::::::::::::::::::::::::::::::::::::::::::::::::::

           -------------------------------------------------
          |                Property Printout                |
           -------------------------------------------------

    * Orbital Energies and Occupations

         #    Occupation            Energy/Eh            Energy/eV
      -------------------------------------------------------------
         1        2.0000           -0.7360606             -20.0292
       ...           ...                  ...                  ...
       347        2.0000           -0.3861413             -10.5074
       348        2.0000           -0.3855478             -10.4913
       349        2.0000           -0.3848663             -10.4727
       350        2.0000           -0.3841017             -10.4519
       351        2.0000           -0.3799892             -10.3400
       352        2.0000           -0.3725802             -10.1384
       353        2.0000           -0.3674090              -9.9977
       354        2.0000           -0.3659993              -9.9593
       355        2.0000           -0.3578332              -9.7371
       356        2.0000           -0.3544337              -9.6446
       357        2.0000           -0.3540686              -9.6347
       358        2.0000           -0.3406738              -9.2702
       359        1.0678           -0.3268976              -8.8953 (HOMO)
       360        0.9322           -0.3266397              -8.8883 (LUMO)
       361        0.0000           -0.3150607              -8.5732
       362                         -0.2944930              -8.0136
       363                         -0.2913261              -7.9274
       364                         -0.2880792              -7.8390
       365                         -0.2755434              -7.4979
       366                         -0.2733445              -7.4381
       367                         -0.2725653              -7.4169
       368                         -0.2651699              -7.2156
       369                         -0.2624000              -7.1403
       370                         -0.2609041              -7.0996
       ...                                ...                  ...
       712                          0.7923281              21.5603
      -------------------------------------------------------------
                  HL-Gap            0.0002580 Eh            0.0070 eV
             Fermi-level           -0.3267687 Eh           -8.8918 eV

     #   Z          covCN         q      C6AA      α(0)
     1   6 C        2.915    -0.058    29.453     8.899
     2   6 C        2.918    -0.029    28.733     8.790
     3   6 C        2.919    -0.045    29.123     8.850
     4   6 C        2.977     0.006    27.890     8.663
     5   6 C        2.878     0.141    24.935     8.186
     6   6 C        2.996    -0.016    28.396     8.741
     7   6 C        2.996     0.007    27.856     8.658
     8   6 C        2.914    -0.073    29.820     8.955
     9   6 C        2.869     0.136    25.024     8.200
    10   6 C        2.993    -0.015    28.369     8.737
    11   6 C        2.994    -0.001    28.032     8.685
    12   6 C        2.921    -0.048    29.201     8.862
    13   6 C        2.976     0.014    27.698     8.633
    14   6 C        2.996    -0.005    28.148     8.703
    15   6 C        2.992     0.004    27.933     8.670
    16   6 C        2.915    -0.071    29.766     8.947
    17   6 C        2.976     0.014    27.697     8.633
    18   6 C        2.997    -0.006    28.168     8.706
    19   6 C        2.994    -0.000    28.021     8.683
    20   6 C        2.867     0.138    24.981     8.193
    21   6 C        2.994    -0.017    28.414     8.744
    22   6 C        2.999     0.007    27.859     8.658
    23   6 C        2.917    -0.071    29.771     8.947
    24   6 C        2.868     0.137    25.001     8.196
    25   6 C        2.996    -0.016    28.388     8.740
    26   6 C        2.990    -0.000    28.027     8.684
    27   6 C        2.921    -0.038    28.944     8.822
    28   6 C        2.983     0.013    27.710     8.635
    29   6 C        2.997    -0.003    28.094     8.695
    30   6 C        2.975     0.007    27.854     8.657
    31   6 C        2.913    -0.029    28.736     8.790
    32   6 C        2.921    -0.039    28.958     8.825
    33   6 C        2.977     0.004    27.918     8.667
    34   6 C        2.918    -0.036    28.885     8.813
    35   6 C        2.918    -0.037    28.914     8.818
    36   6 C        2.977     0.007    27.865     8.659
    37   6 C        2.990    -0.004    28.122     8.699
    38   6 C        2.991     0.003    27.952     8.673
    39   6 C        2.990     0.002    27.971     8.676
    40   6 C        2.985    -0.000    28.030     8.685
    41   6 C        2.993    -0.000    28.030     8.685
    42   6 C        2.991     0.001    27.998     8.680
    43   6 C        2.990    -0.000    28.020     8.683
    44   6 C        2.990    -0.000    28.026     8.684
    45   6 C        2.991     0.000    28.008     8.681
    46   6 C        2.992     0.000    28.009     8.681
    47   6 C        2.990    -0.001    28.034     8.685
    48   6 C        2.991     0.000    28.012     8.682
    49   6 C        2.993     0.000    28.019     8.683
    50   6 C        2.993     0.001    28.007     8.681
    51   6 C        2.991    -0.001    28.036     8.686
    52   6 C        2.991     0.000    28.013     8.682
    53   6 C        2.994    -0.004    28.107     8.697
    54   6 C        2.993     0.001    27.994     8.679
    55   6 C        2.991    -0.000    28.024     8.684
    56   6 C        2.989     0.000    28.016     8.683
    57   6 C        2.989    -0.000    28.026     8.684
    58   6 C        2.990     0.000    28.010     8.682
    59   6 C        2.989    -0.000    28.022     8.683
    60   6 C        2.986     0.000    28.016     8.683
    61   6 C        2.977     0.005    27.903     8.665
    62   6 C        2.990     0.002    27.977     8.677
    63   6 C        2.990     0.001    27.990     8.679
    64   6 C        2.978     0.005    27.909     8.666
    65   6 C        2.919    -0.036    28.893     8.815
    66   6 C        2.918    -0.037    28.913     8.818
    67   6 C        2.988     0.008    27.837     8.655
    68   6 C        2.914    -0.028    28.708     8.786
    69   6 C        2.013    -0.070    32.932     9.268
    70   6 C        2.983     0.018    27.602     8.618
    71   6 C        2.987     0.000    28.012     8.682
    72   6 C        2.987    -0.002    28.066     8.690
    73   6 C        3.001     0.004    27.912     8.666
    74   6 C        2.987     0.001    27.987     8.678
    75   6 C        2.990     0.000    28.018     8.683
    76   6 C        2.987    -0.000    28.029     8.685
    77   6 C        2.989     0.000    28.018     8.683
    78   6 C        2.989    -0.000    28.027     8.684
    79   6 C        2.990     0.000    28.019     8.683
    80   6 C        2.989    -0.000    28.022     8.683
    81   6 C        2.990    -0.000    28.021     8.683
    82   6 C        2.990     0.000    28.019     8.683
    83   6 C        2.990    -0.000    28.023     8.684
    84   6 C        2.991    -0.000    28.023     8.684
    85   6 C        2.991    -0.000    28.022     8.683
    86   6 C        2.990    -0.000    28.020     8.683
    87   6 C        2.989    -0.000    28.030     8.685
    88   6 C        2.989     0.000    28.015     8.682
    89   6 C        2.989     0.000    28.017     8.683
    90   6 C        2.989    -0.000    28.029     8.685
    91   6 C        2.986     0.000    28.021     8.683
    92   6 C        2.987    -0.000    28.022     8.683
    93   6 C        2.987    -0.000    28.023     8.684
    94   6 C        2.986    -0.000    28.021     8.683
    95   6 C        2.978     0.005    27.909     8.666
    96   6 C        2.990     0.001    27.986     8.678
    97   6 C        2.989     0.001    27.986     8.678
    98   6 C        2.979     0.005    27.909     8.666
    99   6 C        2.919    -0.036    28.908     8.817
   100   6 C        2.919    -0.037    28.908     8.817
   101   6 C        2.985     0.009    27.810     8.651
   102   6 C        2.919    -0.033    28.830     8.805
   103   6 C        2.918    -0.035    28.877     8.812
   104   6 C        2.977     0.005    27.906     8.665
   105   6 C        2.987     0.000    28.015     8.682
   106   6 C        2.992     0.001    27.995     8.679
   107   6 C        2.990     0.002    27.982     8.677
   108   6 C        2.987    -0.000    28.029     8.685
   109   6 C        2.989    -0.000    28.025     8.684
   110   6 C        2.989     0.000    28.016     8.682
   111   6 C        2.988    -0.000    28.032     8.685
   112   6 C        2.990    -0.001    28.042     8.687
   113   6 C        2.990     0.000    28.020     8.683
   114   6 C        2.990    -0.000    28.022     8.683
   115   6 C        2.990     0.000    28.017     8.683
   116   6 C        2.990    -0.000    28.025     8.684
   117   6 C        2.991     0.000    28.017     8.683
   118   6 C        2.991    -0.001    28.036     8.686
   119   6 C        2.992     0.000    28.014     8.682
   120   6 C        2.992     0.000    28.019     8.683
   121   6 C        2.989     0.000    28.018     8.683
   122   6 C        2.991    -0.000    28.027     8.684
   123   6 C        2.993     0.001    28.001     8.680
   124   6 C        2.994    -0.004    28.102     8.696
   125   6 C        2.986     0.000    28.018     8.683
   126   6 C        2.989    -0.000    28.023     8.684
   127   6 C        2.990     0.000    28.011     8.682
   128   6 C        2.989    -0.000    28.025     8.684
   129   6 C        2.978     0.005    27.909     8.666
   130   6 C        2.990     0.001    27.990     8.678
   131   6 C        2.990     0.002    27.978     8.677
   132   6 C        2.977     0.005    27.904     8.665
   133   6 C        2.918    -0.037    28.913     8.818
   134   6 C        2.919    -0.036    28.894     8.815
   135   6 C        2.974     0.007    27.870     8.659
   136   6 C        2.921    -0.036    28.893     8.815
   137   6 C        2.911    -0.030    28.738     8.790
   138   6 C        2.921    -0.036    28.905     8.817
   139   6 C        2.986     0.001    27.995     8.679
   140   6 C        2.994     0.002    27.976     8.676
   141   6 C        2.979     0.013    27.723     8.637
   142   6 C        2.924    -0.044    29.098     8.846
   143   6 C        2.988     0.001    27.992     8.679
   144   6 C        2.993     0.000    28.016     8.683
   145   6 C        2.973     0.012    27.739     8.639
   146   6 C        2.923    -0.045    29.118     8.849
   147   6 C        2.990     0.002    27.966     8.675
   148   6 C        2.994    -0.000    28.028     8.684
   149   6 C        2.972     0.013    27.721     8.636
   150   6 C        2.922    -0.047    29.165     8.856
   151   6 C        2.993    -0.001    28.031     8.685
   152   6 C        2.995    -0.004    28.122     8.699
   153   6 C        2.975     0.013    27.713     8.635
   154   6 C        2.915    -0.072    29.790     8.950
   155   6 C        2.999     0.007    27.862     8.659
   156   6 C        2.994    -0.016    28.407     8.743
   157   6 C        2.867     0.138    24.983     8.193
   158   6 C        2.990    -0.000    28.027     8.684
   159   6 C        2.995    -0.016    28.395     8.741
   160   6 C        2.868     0.137    25.000     8.196
   161   6 C        2.917    -0.071    29.772     8.948
   162   6 C        2.975     0.007    27.853     8.657
   163   6 C        2.996    -0.003    28.096     8.695
   164   6 C        2.983     0.013    27.711     8.635
   165   6 C        2.921    -0.038    28.944     8.823
   166   6 C        2.921    -0.039    28.958     8.825
   167   6 C        2.913    -0.029    28.736     8.790
   168   1 H        0.926     0.049     2.328     2.386
   169   1 H        0.926     0.040     2.447     2.446
   170   1 H        0.926     0.038     2.472     2.459
   171   1 H        0.926     0.047     2.361     2.403
   172   1 H        0.926     0.036     2.502     2.474
   173   1 H        0.926     0.047     2.354     2.399
   174   1 H        0.926     0.047     2.359     2.402
   175   1 H        0.926     0.034     2.536     2.490
   176   1 H        0.926     0.035     2.516     2.481
   177   1 H        0.926     0.036     2.507     2.476
   178   1 H        0.926     0.047     2.353     2.399
   179   1 H        0.926     0.041     2.437     2.441
   180   1 H        0.926     0.035     2.511     2.478
   181   1 H        0.926     0.033     2.540     2.492
   182   1 H        0.926     0.030     2.580     2.512
   183   1 H        0.926     0.032     2.560     2.502
   184   1 H        0.926     0.033     2.550     2.497
   185   1 H        0.926     0.032     2.552     2.498
   186   1 H        0.926     0.034     2.532     2.488
   187   1 H        0.926     0.046     2.365     2.405
   188   1 H        0.926     0.047     2.361     2.403
   189   1 H        0.926     0.034     2.536     2.491
   190   1 H        0.926     0.031     2.569     2.507
   191   1 H        0.926     0.031     2.569     2.506
   192   1 H        0.926     0.032     2.551     2.498
   193   1 H        0.926     0.034     2.529     2.487
   194   1 H        0.926     0.034     2.533     2.489
   195   1 H        0.926     0.034     2.534     2.489
   196   1 H        0.926     0.034     2.534     2.489
   197   1 H        0.926     0.034     2.533     2.489
   198   1 H        0.926     0.034     2.529     2.487
   199   1 H        0.926     0.033     2.551     2.498
   200   8 O        1.710    -0.230    17.805     5.697
   201   8 O        1.709    -0.233    17.869     5.707
   202   8 O        1.709    -0.234    17.879     5.709

 Mol. C6AA /au·bohr⁶  :     899560.584937
 Mol. C8AA /au·bohr⁸  :   24937394.136032
 Mol. α(0) /au        :       1548.395763


Wiberg/Mayer (AO) data.
largest (>0.10) Wiberg bond orders for each atom

 ---------------------------------------------------------------------------
     #   Z sym  total        # sym  WBO       # sym  WBO       # sym  WBO
 ---------------------------------------------------------------------------
     1   6 C    3.966 --     5 C    1.400     2 C    1.399   168 H    0.968
     2   6 C    3.975 --     3 C    1.477     1 C    1.399   169 H    0.970
     3   6 C    3.969 --     2 C    1.477     4 C    1.343   170 H    0.963
     4   6 C    3.973 --     3 C    1.343     6 C    1.290    33 C    1.144
     5   6 C    3.921 --     1 C    1.400     6 C    1.275   200 O    1.056
     6   6 C    3.978 --     4 C    1.290     5 C    1.275     7 C    1.177
     7   6 C    3.953 --    37 C    1.289    10 C    1.270     6 C    1.177
     8   6 C    3.938 --     9 C    1.511    13 C    1.231   171 H    0.966
     9   6 C    3.910 --     8 C    1.511    10 C    1.189   200 O    1.043
    10   6 C    3.950 --     7 C    1.270    11 C    1.268     9 C    1.189
    11   6 C    3.974 --    10 C    1.268    14 C    1.251    41 C    1.235
    12   6 C    3.896 --    13 C    1.370    17 C    1.347   172 H    0.967
    13   6 C    3.975 --    12 C    1.370     8 C    1.231    14 C    1.213
    14   6 C    3.960 --    15 C    1.273    11 C    1.251    13 C    1.213
    15   6 C    3.980 --    14 C    1.273    18 C    1.269    45 C    1.214
    16   6 C    3.929 --    20 C    1.489    17 C    1.246   173 H    0.966
    17   6 C    3.974 --    12 C    1.347    16 C    1.246    18 C    1.220
    18   6 C    3.961 --    15 C    1.269    19 C    1.250    17 C    1.220
    19   6 C    3.975 --    21 C    1.286    18 C    1.250    49 C    1.220
    20   6 C    3.912 --    16 C    1.489    21 C    1.206   201 O    1.048
    21   6 C    3.938 --    19 C    1.286    22 C    1.229    20 C    1.206
    22   6 C    3.953 --    53 C    1.273    25 C    1.238    21 C    1.229
    23   6 C    3.943 --    24 C    1.501    28 C    1.242   174 H    0.966
    24   6 C    3.923 --    23 C    1.501    25 C    1.199   201 O    1.045
    25   6 C    3.950 --    26 C    1.289    22 C    1.238    24 C    1.199
    26   6 C    3.975 --    25 C    1.289    29 C    1.238    57 C    1.225
    27   6 C    3.944 --    31 C    1.477    28 C    1.320   175 H    0.969
    28   6 C    3.983 --    27 C    1.320    29 C    1.249    23 C    1.242
    29   6 C    3.980 --    30 C    1.263    28 C    1.249    26 C    1.238
    30   6 C    3.982 --    32 C    1.390    29 C    1.263    61 C    1.132
    31   6 C    3.982 --    27 C    1.477    32 C    1.408   191 H    0.971
    32   6 C    3.943 --    31 C    1.408    30 C    1.390   192 H    0.963
    33   6 C    3.960 --    34 C    1.323    38 C    1.293     4 C    1.144
    34   6 C    3.964 --    35 C    1.512    33 C    1.323   176 H    0.962
    35   6 C    3.959 --    34 C    1.512    36 C    1.318   177 H    0.960
    36   6 C    3.953 --    35 C    1.318    39 C    1.280    67 C    1.160
    37   6 C    3.968 --     7 C    1.289    42 C    1.248    38 C    1.206
    38   6 C    3.980 --    33 C    1.293    39 C    1.254    37 C    1.206
    39   6 C    3.972 --    36 C    1.280    38 C    1.254    40 C    1.214
    40   6 C    3.956 --    43 C    1.265    71 C    1.263    39 C    1.214
    41   6 C    3.966 --    42 C    1.276    11 C    1.235    46 C    1.233
    42   6 C    3.967 --    41 C    1.276    37 C    1.248    43 C    1.221
    43   6 C    3.956 --    40 C    1.265    44 C    1.257    42 C    1.221
    44   6 C    3.964 --    43 C    1.257    75 C    1.250    47 C    1.240
    45   6 C    3.951 --    46 C    1.273    50 C    1.253    15 C    1.214
    46   6 C    3.965 --    45 C    1.273    47 C    1.242    41 C    1.233
    47   6 C    3.957 --    48 C    1.262    46 C    1.242    44 C    1.240
    48   6 C    3.961 --    47 C    1.262    51 C    1.253    79 C    1.231
[...]
    16   6 C       17   6 C                                       1.4191615
    15   6 C       18   6 C                                       1.4078559
    17   6 C       18   6 C                                       1.4229819
    18   6 C       19   6 C                                       1.4102679
    16   6 C       20   6 C                                       1.3713516
    19   6 C       21   6 C                                       1.4014312
    20   6 C       21   6 C                                       1.4188575
    21   6 C       22   6 C                                       1.4115537
    23   6 C       24   6 C                                       1.3667068
    22   6 C       25   6 C                                       1.4085689
    24   6 C       25   6 C                                       1.4210424
    25   6 C       26   6 C                                       1.4041545
    23   6 C       28   6 C                                       1.4179070
    27   6 C       28   6 C                                       1.4010961
    26   6 C       29   6 C                                       1.4148869
    28   6 C       29   6 C                                       1.4199239
    29   6 C       30   6 C                                       1.4165564
    27   6 C       31   6 C                                       1.3756719
    30   6 C       32   6 C                                       1.3928195
    31   6 C       32   6 C                                       1.3877643
    33   6 C       34   6 C                                       1.4012890
    34   6 C       35   6 C                                       1.3697499
    35   6 C       36   6 C                                       1.4026699
     7   6 C       37   6 C                                       1.4014773
    33   6 C       38   6 C                                       1.4131355
    37   6 C       38   6 C                                       1.4229322
    36   6 C       39   6 C                                       1.4123874
    38   6 C       39   6 C                                       1.4203597
    39   6 C       40   6 C                                       1.4262222
    11   6 C       41   6 C                                       1.4164323
    37   6 C       42   6 C                                       1.4126471
    41   6 C       42   6 C                                       1.4089114
    40   6 C       43   6 C                                       1.4122352
    42   6 C       43   6 C                                       1.4188111
    43   6 C       44   6 C                                       1.4129585
    15   6 C       45   6 C                                       1.4221217
    41   6 C       46   6 C                                       1.4152082
    45   6 C       46   6 C                                       1.4085249
    44   6 C       47   6 C                                       1.4165873
    46   6 C       47   6 C                                       1.4149181
    47   6 C       48   6 C                                       1.4111014
    19   6 C       49   6 C                                       1.4193707
    45   6 C       50   6 C                                       1.4121353
    49   6 C       50   6 C                                       1.4121600
    48   6 C       51   6 C                                       1.4128146
    50   6 C       51   6 C                                       1.4133444
    51   6 C       52   6 C                                       1.4156544
    22   6 C       53   6 C                                       1.4031249
    49   6 C       54   6 C                                       1.4082162
    53   6 C       54   6 C                                       1.4132833
    52   6 C       55   6 C                                       1.4089865
    54   6 C       55   6 C                                       1.4144055
    55   6 C       56   6 C                                       1.4176376
    26   6 C       57   6 C                                       1.4208568
    53   6 C       58   6 C                                       1.4144628
    57   6 C       58   6 C                                       1.4055341
    56   6 C       59   6 C                                       1.4146535
    58   6 C       59   6 C                                       1.4208031
    59   6 C       60   6 C                                       1.4095550
    57   6 C       62   6 C                                       1.4213437
    61   6 C       62   6 C                                       1.4138411
    60   6 C       63   6 C                                       1.4243172
    62   6 C       63   6 C                                       1.4219517
    63   6 C       64   6 C                                       1.4121300
    61   6 C       65   6 C                                       1.3977683
    64   6 C       66   6 C                                       1.3997111
    65   6 C       66   6 C                                       1.3722586
    67   6 C       68   6 C                                       1.4170144
    68   6 C       69   6 C                                       1.3446398
    69   6 C       70   6 C                                       1.3769651
    40   6 C       71   6 C                                       1.4140779
    67   6 C       72   6 C                                       1.4120452
    71   6 C       72   6 C                                       1.4241958
    70   6 C       73   6 C                                       1.4186545
    72   6 C       73   6 C                                       1.4177255
    73   6 C       74   6 C                                       1.4201487
    44   6 C       75   6 C                                       1.4137719
    71   6 C       76   6 C                                       1.4145900
    75   6 C       76   6 C                                       1.4132833
    74   6 C       77   6 C                                       1.4114937
    76   6 C       77   6 C                                       1.4220479
    77   6 C       78   6 C                                       1.4140826
    48   6 C       79   6 C                                       1.4164527
    75   6 C       80   6 C                                       1.4179075
    79   6 C       80   6 C                                       1.4113337
    78   6 C       81   6 C                                       1.4166363
    80   6 C       81   6 C                                       1.4149323
    81   6 C       82   6 C                                       1.4116532
    52   6 C       83   6 C                                       1.4156348
    79   6 C       84   6 C                                       1.4149909
    83   6 C       84   6 C                                       1.4150635
    82   6 C       85   6 C                                       1.4148409
    84   6 C       85   6 C                                       1.4119157
    85   6 C       86   6 C                                       1.4151000
    56   6 C       87   6 C                                       1.4128517
    83   6 C       88   6 C                                       1.4120241
    87   6 C       88   6 C                                       1.4176533
    86   6 C       89   6 C                                       1.4118730
    88   6 C       89   6 C                                       1.4150495
    89   6 C       90   6 C                                       1.4178332
    60   6 C       91   6 C                                       1.4179790
    87   6 C       92   6 C                                       1.4155754
    91   6 C       92   6 C                                       1.4117720
    90   6 C       93   6 C                                       1.4153913
    92   6 C       93   6 C                                       1.4225185
    93   6 C       94   6 C                                       1.4119828
    91   6 C       96   6 C                                       1.4228749
    95   6 C       96   6 C                                       1.4127044
    94   6 C       97   6 C                                       1.4228683
    96   6 C       97   6 C                                       1.4210644
    97   6 C       98   6 C                                       1.4127258
    95   6 C       99   6 C                                       1.3999587
    98   6 C      100   6 C                                       1.3999660
    99   6 C      100   6 C                                       1.3694451
    70   6 C      101   6 C                                       1.4295218
   101   6 C      102   6 C                                       1.3983735
   102   6 C      103   6 C                                       1.3704314
   103   6 C      104   6 C                                       1.4022783
    74   6 C      105   6 C                                       1.4165807
   101   6 C      106   6 C                                       1.4062633
   105   6 C      106   6 C                                       1.4217822
   104   6 C      107   6 C                                       1.4141115
   106   6 C      107   6 C                                       1.4185867
   107   6 C      108   6 C                                       1.4211623
    78   6 C      109   6 C                                       1.4152542
   105   6 C      110   6 C                                       1.4096718
   109   6 C      110   6 C                                       1.4130201
   108   6 C      111   6 C                                       1.4100341
   110   6 C      111   6 C                                       1.4231465
   111   6 C      112   6 C                                       1.4137262
    82   6 C      113   6 C                                       1.4168148
   109   6 C      114   6 C                                       1.4161713
   113   6 C      114   6 C                                       1.4106673
   112   6 C      115   6 C                                       1.4149179
   114   6 C      115   6 C                                       1.4177209
   115   6 C      116   6 C                                       1.4102451
    86   6 C      117   6 C                                       1.4158184
   113   6 C      118   6 C                                       1.4138753
   117   6 C      118   6 C                                       1.4151570
   116   6 C      119   6 C                                       1.4131883
   118   6 C      119   6 C                                       1.4134170
   119   6 C      120   6 C                                       1.4125422
    90   6 C      121   6 C                                       1.4128635
   117   6 C      122   6 C                                       1.4096466
   121   6 C      122   6 C                                       1.4177388
   120   6 C      123   6 C                                       1.4085643
   122   6 C      123   6 C                                       1.4138891
   123   6 C      124   6 C                                       1.4141360
    94   6 C      125   6 C                                       1.4177363
   121   6 C      126   6 C                                       1.4147364
   125   6 C      126   6 C                                       1.4097121
   124   6 C      127   6 C                                       1.4139114
   126   6 C      127   6 C                                       1.4206101
   127   6 C      128   6 C                                       1.4065184
   125   6 C      130   6 C                                       1.4244192
   129   6 C      130   6 C                                       1.4119438
   128   6 C      131   6 C                                       1.4210553
   130   6 C      131   6 C                                       1.4218951
   131   6 C      132   6 C                                       1.4140398
   129   6 C      133   6 C                                       1.3999321
   132   6 C      134   6 C                                       1.3978525
   133   6 C      134   6 C                                       1.3719759
   135   6 C      136   6 C                                       1.3952496
   136   6 C      137   6 C                                       1.3894169
   137   6 C      138   6 C                                       1.3715907
   108   6 C      139   6 C                                       1.4192038
   135   6 C      140   6 C                                       1.4157602
   139   6 C      140   6 C                                       1.4182121
   138   6 C      141   6 C                                       1.4089296
   140   6 C      141   6 C                                       1.4260345
   141   6 C      142   6 C                                       1.3981147
   112   6 C      143   6 C                                       1.4175672
   139   6 C      144   6 C                                       1.4090585
   143   6 C      144   6 C                                       1.4104414
   142   6 C      145   6 C                                       1.3959890
   144   6 C      145   6 C                                       1.4319001 (max)
   145   6 C      146   6 C                                       1.4007881
   116   6 C      147   6 C                                       1.4212529
   143   6 C      148   6 C                                       1.4143336
   147   6 C      148   6 C                                       1.4053989
   146   6 C      149   6 C                                       1.3968064
   148   6 C      149   6 C                                       1.4303249
   149   6 C      150   6 C                                       1.4049657
   120   6 C      151   6 C                                       1.4197957
   147   6 C      152   6 C                                       1.4129932
   151   6 C      152   6 C                                       1.4075966
   150   6 C      153   6 C                                       1.3908848
   152   6 C      153   6 C                                       1.4255358
   153   6 C      154   6 C                                       1.4204528
   124   6 C      155   6 C                                       1.4036040
   151   6 C      156   6 C                                       1.4046952
   155   6 C      156   6 C                                       1.4100642
   154   6 C      157   6 C                                       1.3694216
   156   6 C      157   6 C                                       1.4192219
   128   6 C      158   6 C                                       1.4205070
   155   6 C      159   6 C                                       1.4097444
   158   6 C      159   6 C                                       1.4041240
   159   6 C      160   6 C                                       1.4202791
   160   6 C      161   6 C                                       1.3668862
   158   6 C      163   6 C                                       1.4150996
   162   6 C      163   6 C                                       1.4164175
   161   6 C      164   6 C                                       1.4174273
   163   6 C      164   6 C                                       1.4198462
   164   6 C      165   6 C                                       1.4011927
   162   6 C      166   6 C                                       1.3930113
   165   6 C      167   6 C                                       1.3756340
   166   6 C      167   6 C                                       1.3876736
     1   6 C      168   1 H                                       1.0779592
     2   6 C      169   1 H                                       1.0797106
     3   6 C      170   1 H                                       1.0774892 (min)
     8   6 C      171   1 H                                       1.0786863
    12   6 C      172   1 H                                       1.0804321
    16   6 C      173   1 H                                       1.0787970
    23   6 C      174   1 H                                       1.0786833
    27   6 C      175   1 H                                       1.0798877
    34   6 C      176   1 H                                       1.0779760
    35   6 C      177   1 H                                       1.0782512
    68   6 C      178   1 H                                       1.0778574
   102   6 C      179   1 H                                       1.0810634
   103   6 C      180   1 H                                       1.0778281
   136   6 C      181   1 H                                       1.0776616
   137   6 C      182   1 H                                       1.0804178
   138   6 C      183   1 H                                       1.0800706
   142   6 C      184   1 H                                       1.0807929
   146   6 C      185   1 H                                       1.0806992
   150   6 C      186   1 H                                       1.0805368
   154   6 C      187   1 H                                       1.0786961
   161   6 C      188   1 H                                       1.0786708
   165   6 C      189   1 H                                       1.0798797
   167   6 C      190   1 H                                       1.0804569
    31   6 C      191   1 H                                       1.0804610
    32   6 C      192   1 H                                       1.0778713
    65   6 C      193   1 H                                       1.0779710
    66   6 C      194   1 H                                       1.0777359
    99   6 C      195   1 H                                       1.0775927
   100   6 C      196   1 H                                       1.0775861
   133   6 C      197   1 H                                       1.0777066
   134   6 C      198   1 H                                       1.0779472
   166   6 C      199   1 H                                       1.0778525
     5   6 C      200   8 O                                       1.3617135
     9   6 C      200   8 O                                       1.3654493
    20   6 C      201   8 O                                       1.3655682
    24   6 C      201   8 O                                       1.3670717
   157   6 C      202   8 O                                       1.3652890
   160   6 C      202   8 O                                       1.3664155

 * 3 distinct bonds (by element types)

   Z      Z             #   av. dist./Å        max./Å        min./Å
   1 H    6 C          32     1.0789134     1.0810634     1.0774892
   6 C    6 C         224     1.4094950     1.4319001     1.3446398
   6 C    8 O           6     1.3652512     1.3670717     1.3617135


optimized geometry written to: xtbopt.xyz


           -------------------------------------------------
          | TOTAL ENERGY             -387.604271182536 Eh   |
          | GRADIENT NORM               0.000828786175 Eh/α |
          | HOMO-LUMO GAP               0.007019428105 eV   |
           -------------------------------------------------

------------------------------------------------------------------------
 * finished run on 2025/12/08 at 00:43:28.971     
------------------------------------------------------------------------
 total:
 * wall-time:     0 d,  0 h,  0 min, 25.190 sec
 *  cpu-time:     0 d,  0 h,  1 min, 38.859 sec
 * ratio c/w:     3.925 speedup
 SCF:
 * wall-time:     0 d,  0 h,  0 min,  3.848 sec
 *  cpu-time:     0 d,  0 h,  0 min, 15.188 sec
 * ratio c/w:     3.947 speedup
 ANC optimizer:
 * wall-time:     0 d,  0 h,  0 min, 21.181 sec
 *  cpu-time:     0 d,  0 h,  1 min, 23.094 sec
 * ratio c/w:     3.923 speedup

normal termination of xtb
