202
 energy: -387.604271182536 gnorm: 0.000828786175 xtb: 6.7.1pre (5071a88)
C           10.19395170248110        8.10819767430239       -0.08774354268380
C            9.58283721349583        9.35514135065885       -0.09419178348376
C            8.21111376228218        9.48270459067071       -0.08103217968046
C            7.38308947660229        8.35282566656268       -0.06069650301320
C            9.40647705850904        6.97111718057768       -0.06735848842560
C            8.00359925132345        7.08750018414280       -0.05340052134412
C            7.22171342198495        5.89696638366679       -0.03272432559923
C            9.97204277979308        3.41328065930406       -0.04265779840807
C            9.31242102372359        4.61102417608108       -0.04504868559445
C            7.89054234519326        4.66149785318313       -0.03068191099095
C            7.15733771434762        3.46279930338323       -0.01542296303004
C            9.89989778879518        0.94593083265010       -0.02773731272959
C            9.25840109471461        2.18433124864322       -0.02847545233867
C            7.83475862191515        2.22526275114052       -0.01590336761924
C            7.09237172040531        1.03038009533613       -0.00540834617406
C            9.82545105226484       -1.52367542893158       -0.01823008580266
C            9.18597418803680       -0.25675492053414       -0.01743987258321
C            7.76389931177005       -0.20699831863731       -0.00721512683258
C            7.01594009160910       -1.40255851510013       -0.00028602221535
C            9.09512203659825       -2.68435333240558       -0.01107414129580
C            7.67703782206461       -2.63825776284210       -0.00279899261182
C            6.93083845241040       -3.83644373368717        0.00171033524879
C            9.73054725324285       -6.23542978413620       -0.01102460634810
C            9.04569671137603       -5.05269583333177       -0.00834868519225
C            7.62470325447183       -5.06225266941320       -0.00147014308830
C            6.91348118485142       -6.27295568677115        0.00183490700762
C            9.73482161967073       -8.69043927388795       -0.01030145376575
C            9.03996240940854       -7.47379130341043       -0.00739660462149
C            7.62027034407332       -7.49865750799529       -0.00111111209651
C            6.91606478602531       -8.72776950265452        0.00205027029617
C            9.04679130678015       -9.88168955712341       -0.00716382615561
C            7.65924872930124       -9.90573953632021       -0.00111100236063
C            5.93654207342038        8.41158538110357       -0.04353215445613
C            5.24198201892490        9.62854000293996       -0.05830684549256
C            3.87344935415241        9.67713794911813       -0.02714764108940
C            3.08927669559608        8.51508977166293        0.01975254907485
C            5.82168757585825        5.95815385405191       -0.01478058666467
C            5.17144520085129        7.22382371944056       -0.01523642731024
C            3.75201985684162        7.26787665363649        0.01145382760031
C            2.99826126788462        6.05717617396309        0.02416777371127
C            5.74200453361759        3.51682813755062       -0.00152815488040
C            5.07606531616198        4.75841925629721        0.00121589746887
C            3.65822142904948        4.80865944938756        0.01601810525949
C            2.91620399120159        3.60623086725467        0.02122172193313
C            5.67096215454874        1.07421581453535        0.00473646924440
C            4.99923390817125        2.31224444709992        0.00763016115961
C            3.58506900586129        2.35750423004781        0.01669182918658
C            2.84505443273051        1.15601553433456        0.01986064088485
C            5.59698026671964       -1.36930407168933        0.00745277025580
C            4.92713581460153       -0.12612447505531        0.01033701516228
C            3.51431454041148       -0.08822164519758        0.01676777076272
C            2.77496733785326       -1.29546644801981        0.01841054979526
C            5.52795380916127       -3.81124797382680        0.00794698133041
C            4.85697163062608       -2.56740575867694        0.01091657283620
C            3.44292178439182       -2.53605997815822        0.01572840259659
C            2.70987676721308       -3.74946031384013        0.01646322791402
C            5.49278912723870       -6.25206210204928        0.00742414921344
C            4.80441049470255       -5.02664269909768        0.01024142969091
C            3.38400780149080       -4.99315908215850        0.01424016088020
C            2.65578152503125       -6.20002721276166        0.01514987817979
C            5.46586732102080       -8.70588923338916        0.00779338850839
C            4.76935147108015       -7.47552023949078        0.00981242052076
C            3.34773362325736       -7.44496879766478        0.01377236383907
C            2.61537332148459       -8.65234369305490        0.01601362338791
C            4.70608301034322       -9.87912078932115        0.01117034628034
C            3.33407046201962       -9.85345344484186        0.01516931117709
C            1.65309437758163        8.55109902855693        0.06637038675067
C            0.93760480353441        9.77230064235361        0.13471306767753
C           -0.40659949101881        9.73823443140414        0.13791313721193
C           -1.19651140305316        8.61106658057281        0.09836297889039
C            1.58478627311206        6.09633370023248        0.03725007258890
C            0.91006562906400        7.35038543100772        0.05821831707654
C           -0.50740744180864        7.37124071957045        0.07496085435222
C           -1.26168390679206        6.16812091815385        0.05517251126406
C            1.50308369768491        3.64853420902475        0.02843858858302
C            0.83748689093516        4.89524841295645        0.03578715809308
C           -0.58413069742601        4.92997553289357        0.03994817831621
C           -1.32507835635467        3.72558998758435        0.03093193170897
C            1.42918896869628        1.19660464743392        0.02377913152714
C            0.76151142282310        2.44001018762363        0.02722497458364
C           -0.65289464053897        2.47858904629327        0.02697913194107
C           -1.38968146065986        1.27447670511623        0.02217253081505
C            1.35982105067523       -1.25835794218882        0.02075379815123
C            0.69166087560780       -0.01097558942732        0.02265300029160
C           -0.71970730853158        0.02831915206490        0.02149537816504
C           -1.45489105099016       -1.18081267037004        0.01792643274274
C            1.29748471443460       -3.71346374425379        0.01808141846421
C            0.62617703063184       -2.46483066195462        0.01948699488654
C           -0.78832292912139       -2.42542989023390        0.01797611930780
C           -1.52650466560943       -3.63593791451496        0.01502695210471
C            1.23827943402682       -6.16328489842521        0.01655092396081
C            0.56291873909187       -4.92353197195687        0.01711892785993
C           -0.85905147162927       -4.88407175247617        0.01566558133441
C           -1.60093410948781       -6.08544678566841        0.01386171365958
C            1.17384243525758       -8.61588055860668        0.01801560320385
C            0.49532602531274       -7.37678917324803        0.01688450206778
C           -0.92519774713100       -7.33761718487010        0.01570267011641
C           -1.67030016840824       -8.53787394925738        0.01589629363235
C            0.40364502404608       -9.78492913874886        0.02033398967321
C           -0.96528403178611       -9.74735516253962        0.01935473431998
C           -2.62547780957877        8.64762707815516        0.08253444477981
C           -3.30514848316843        9.86963333911376        0.09655058221624
C           -4.67460756614714        9.91386574570335        0.06995690760274
C           -5.44831438816631        8.74497389527140        0.03183137789229
C           -2.67775434099660        6.20528321997583        0.04716615015899
C           -3.36333185768507        7.45083856273798        0.05346766914032
C           -4.78095358762555        7.49824201591416        0.03134768438469
C           -5.51498015388584        6.28149289097166        0.01064860057547
C           -2.73982996755295        3.76294064148855        0.02575321007962
C           -3.41526484403964        5.00407099341567        0.02868021597983
C           -4.83774881122351        5.04474501336279        0.01349348143971
C           -5.57163784787299        3.83649551427428        0.00079017322574
C           -2.80591939922592        1.31449820661279        0.01648695252896
C           -3.47831787348419        2.55460370982875        0.01584330129271
C           -4.89545919280360        2.59361241969888        0.00483983534758
C           -5.63078886685371        1.39027931129397       -0.00355374011928
C           -2.87006196119554       -1.13833802121103        0.01258414408801
C           -3.54179328623020        0.10723053456701        0.01037670424122
C           -4.95455001369141        0.14940030696498        0.00103133345505
C           -5.68982155764100       -1.05667417822085       -0.00489256996954
C           -2.93872189886844       -3.59347459003354        0.01030011270782
C           -3.60427748256965       -2.34167061201917        0.00794641772659
C           -5.01735013569913       -2.29433877535298       -0.00026411380588
C           -5.75451424019603       -3.50113103929707       -0.00493396278777
C           -3.01805585605362       -6.04392677338279        0.00961633201607
C           -3.67926587553966       -4.79890432291633        0.00676488441926
C           -5.09914673640898       -4.75397518705670       -0.00046763797133
C           -5.85311193756445       -5.94133235866254       -0.00409544803906
C           -3.11140121889526       -8.49499197099999        0.01173378892320
C           -3.77660063793265       -7.24956973015414        0.00746460867894
C           -5.19769086739262       -7.20220386802974        0.00080258136750
C           -5.96000737398451       -8.39316002695324       -0.00144649522140
C           -3.89439934743710       -9.65547564792994        0.01069490421215
C           -5.26547720094814       -9.60624915988345        0.00437752758513
C           -6.89496090436639        8.77954253031007       -0.00439459876325
C           -7.61693544015878        9.97326410866087       -0.02681697633883
C           -9.00594063426666        9.98349297895019       -0.05905053700406
C           -9.71351566394313        8.80854154649401       -0.06840179006473
C           -6.93365172163667        6.31420941019887       -0.01032016559292
C           -7.61263916966713        7.55927694842736       -0.02072025921414
C           -9.03831647856924        7.57207565196151       -0.04995123479397
C           -9.74422518539740        6.36529934706465       -0.06035282153816
C           -6.98873335991989        3.86907273062288       -0.01580173403561
C           -7.66231010349220        5.10825638135296       -0.02372385655684
C           -9.09386954537909        5.13014089064685       -0.04599951288738
C           -9.80228625588513        3.92171622917503       -0.05390272476666
C           -7.05151288706038        1.42656998287046       -0.01717750235977
C           -7.72372937475247        2.66075360724666       -0.02502396183394
C           -9.15375090111695        2.68464968584483       -0.04223522638848
C           -9.86218808631298        1.47138281011781       -0.04757930919219
C           -7.10886667595041       -1.01193032278931       -0.01621755391524
C           -7.78822559291244        0.22084908872047       -0.02357049770364
C           -9.21354875414190        0.24104606843365       -0.03764076183332
C           -9.92153081044953       -0.99038876554691       -0.04157095085629
C           -7.15714457137376       -3.44977842261149       -0.01467672657950
C           -7.83588849934036       -2.21383881974688       -0.02105413472172
C           -9.25479728852285       -2.18651051086581       -0.03294866044485
C           -7.27248367856756       -5.88524969361797       -0.01294403019308
C           -7.91648319789916       -4.63753485570939       -0.01895197978578
C           -9.33419037633820       -4.55272486214505       -0.02924794303763
C          -10.08303617661220       -5.69622739608768       -0.03230943454986
C           -7.40878395090570       -8.33645768342460       -0.00993157873133
C           -8.04490987321953       -7.07093676452873       -0.01616998336206
C           -9.46112627505940       -6.96991606892081       -0.02559221854351
C          -10.22114657862549       -8.14707480408436       -0.02825493241040
C           -8.21467500624952       -9.47268449509478       -0.01282695796911
C           -9.59879611892313       -9.37386191370326       -0.02179348356382
H           11.26719867487409        8.00804104871111       -0.09801017330615
H           10.19999382102323       10.24094878221787       -0.10960862815645
H            7.78577946738481       10.47268069895050       -0.08560200035423
H           11.05060864237797        3.40083634058240       -0.05288985798627
H           10.97982928068629        0.91421683457606       -0.03642490637628
H           10.90302472188192       -1.57455913119825       -0.02520350022189
H           10.80920615957208       -6.23035673314913       -0.01618011812959
H           10.81464604561287       -8.67980075755958       -0.01511834241359
H            5.78545838413461       10.55871749065449       -0.09619193078412
H            3.40146188419389       10.64641313468183       -0.04609174737568
H            1.46396078140582       10.71146204176762        0.18669034978559
H           -2.72131981029078       10.77899680056683        0.12655178045499
H           -5.15333096111024       10.87948505028067        0.08074431862727
H           -7.10575853761836       10.92196101091277       -0.02165990178065
H           -9.52636066295673       10.93015402944912       -0.07631767999080
H          -10.79333227315723        8.81281318187022       -0.09142745912569
H          -10.82452673933560        6.39091183350748       -0.08049411434169
H          -10.88249504885979        3.95034159231952       -0.06939599653621
H          -10.94225118927129        1.50099803178195       -0.05966741780077
H          -11.00014353353834       -0.98127705165897       -0.05140100953866
H          -11.15974199568233       -5.63160159331603       -0.03996510187378
H          -11.29876653591114       -8.07761886637882       -0.03539651567350
H          -10.19139262700016      -10.27730660861900       -0.02380345761601
H            9.58966396424834      -10.81586264994513       -0.00953136743347
H            7.16892294436280      -10.86562639196231        0.00095493281872
H            5.19413181818964      -10.84028109789948        0.01046094250140
H            2.81462298228901      -10.79774382284990        0.01728922875053
H            0.88145899147945      -10.75079358494266        0.02268162118700
H           -1.49522332163688      -10.68562664070704        0.02093867645107
H           -3.42703274019286      -10.62655983746866        0.01459080273191
H           -5.80534682275169      -10.53926050490698        0.00367038411928
H           -7.77691701360208      -10.45762734190721       -0.00820026040811
O           10.04052128051685        5.76603880833057       -0.06125167752276
O            9.75141520021352       -3.88187269000367       -0.01275035832431
O           -9.97541244116756       -3.34612907351143       -0.03644660272728
