202
 energy: -387.573131160738 gnorm: 0.085567401269 xtb: 6.7.1pre (5071a88)
C           10.27114100000000        8.15175800000000       -0.08886800000000
C            9.65613500000000        9.41259600000000       -0.09662500000000
C            8.27410400000000        9.54550200000000       -0.08461500000000
C            7.43984700000000        8.40656800000000       -0.06427500000000
C            9.46745400000000        7.02433200000000       -0.06814800000000
C            8.05989600000000        7.13050300000000       -0.05484400000000
C            7.27591200000000        5.93214400000000       -0.03382400000000
C           10.04684700000000        3.44018700000000       -0.04264000000000
C            9.37147900000000        4.63192800000000       -0.04485100000000
C            7.94332400000000        4.69137800000000       -0.03136500000000
C            7.20963200000000        3.48434600000000       -0.01524400000000
C            9.97383300000000        0.95117000000000       -0.02754800000000
C            9.32880100000000        2.19795200000000       -0.02851000000000
C            7.89231500000000        2.23727300000000       -0.01673000000000
C            7.14666900000000        1.03549700000000       -0.00454200000000
C            9.89783500000000       -1.54071100000000       -0.01816100000000
C            9.25479700000000       -0.26024300000000       -0.01746400000000
C            7.82124300000000       -0.21001700000000       -0.00785900000000
C            7.06818600000000       -1.41444700000000        0.00037400000000
C            9.15131700000000       -2.69367200000000       -0.01095800000000
C            7.72819600000000       -2.65745800000000       -0.00286300000000
C            6.98217200000000       -3.86263900000000        0.00179600000000
C            9.80509600000000       -6.26797300000000       -0.01126800000000
C            9.10332200000000       -5.09446100000000       -0.00848200000000
C            7.67647300000000       -5.09361100000000       -0.00122800000000
C            6.96628600000000       -6.31334900000000        0.00166300000000
C            9.81169800000000       -8.74555100000000       -0.01094100000000
C            9.11275500000000       -7.52139900000000       -0.00780600000000
C            7.67993200000000       -7.54783500000000       -0.00117000000000
C            6.97194400000000       -8.78707400000000        0.00165700000000
C            9.11808200000000       -9.94718800000000       -0.00805100000000
C            7.71926600000000       -9.97331100000000       -0.00189100000000
C            5.97792800000000        8.46718600000000       -0.04958100000000
C            5.27632300000000        9.69056700000000       -0.07025900000000
C            3.89746300000000        9.73803200000000       -0.04613300000000
C            3.10539300000000        8.56830000000000        0.00715400000000
C            5.86793600000000        5.99426300000000       -0.01708400000000
C            5.21043500000000        7.26994900000000       -0.01989300000000
C            3.77882400000000        7.31622100000000        0.00603500000000
C            3.02117200000000        6.09346300000000        0.02277900000000
C            5.78507900000000        3.53775500000000       -0.00410200000000
C            5.11638000000000        4.78779400000000        0.00075500000000
C            3.68651400000000        4.83885600000000        0.01278500000000
C            2.94046000000000        3.62797800000000        0.02520000000000
C            5.71300500000000        1.07958400000000        0.00186300000000
C            5.03787400000000        2.32436200000000        0.01001300000000
C            3.61350200000000        2.36999200000000        0.01307700000000
C            2.86942000000000        1.16177200000000        0.02493200000000
C            5.63811200000000       -1.38037800000000        0.00545300000000
C            4.96454800000000       -0.12905300000000        0.01315300000000
C            3.54301800000000       -0.09059300000000        0.01291300000000
C            2.79878900000000       -1.30663700000000        0.02247700000000
C            5.57206700000000       -3.83791600000000        0.00739100000000
C            4.89521200000000       -2.58592100000000        0.01260900000000
C            3.47120500000000       -2.55361000000000        0.01306800000000
C            2.73142300000000       -3.77573200000000        0.01870700000000
C            5.53413300000000       -6.29360000000000        0.00759500000000
C            4.84313700000000       -5.06169100000000        0.01065000000000
C            3.41033400000000       -5.02804000000000        0.01353600000000
C            2.67645100000000       -6.24023900000000        0.01581900000000
C            5.50568800000000       -8.76627900000000        0.00784100000000
C            4.80586000000000       -7.52679400000000        0.00977200000000
C            3.37203900000000       -7.49688200000000        0.01409100000000
C            2.63555700000000       -8.71200000000000        0.01612400000000
C            4.74023900000000       -9.94671900000000        0.01115500000000
C            3.35856500000000       -9.92139400000000        0.01522300000000
C            1.65061700000000        8.61622600000000        0.05955000000000
C            0.92396200000000        9.83300700000000        0.14843800000000
C           -0.46220700000000        9.93091300000000        0.14891700000000
C           -1.17537700000000        8.70334700000000        0.11485300000000
C            1.59625400000000        6.13776900000000        0.03865200000000
C            0.91651600000000        7.39787400000000        0.06325500000000
C           -0.51316500000000        7.44016300000000        0.10099800000000
C           -1.26176400000000        6.21772600000000        0.07432300000000
C            1.51832300000000        3.67195000000000        0.02821200000000
C            0.84805200000000        4.92635000000000        0.04352200000000
C           -0.58541500000000        4.96649900000000        0.04618400000000
C           -1.32870500000000        3.75262700000000        0.03808200000000
C            1.44297200000000        1.20321000000000        0.02066100000000
C            0.77163600000000        2.45449700000000        0.03438500000000
C           -0.65272000000000        2.49492600000000        0.02663300000000
C           -1.39353500000000        1.28368900000000        0.02829700000000
C            1.37298100000000       -1.26868500000000        0.01708500000000
C            0.69994300000000       -0.01213000000000        0.02831300000000
C           -0.71995400000000        0.02835300000000        0.01869400000000
C           -1.46158400000000       -1.18828000000000        0.02250500000000
C            1.31027800000000       -3.73897600000000        0.01588200000000
C            0.63367100000000       -2.48094000000000        0.02347900000000
C           -0.79110900000000       -2.44038700000000        0.01510300000000
C           -1.53692500000000       -3.65848100000000        0.01768300000000
C            1.24810400000000       -6.20311300000000        0.01642900000000
C            0.56929800000000       -4.95631900000000        0.01907700000000
C           -0.86517400000000       -4.91562400000000        0.01477300000000
C           -1.61297100000000       -6.12246700000000        0.01492000000000
C            1.17975700000000       -8.67468600000000        0.01847100000000
C            0.49899500000000       -7.42625100000000        0.01745400000000
C           -0.93357500000000       -7.38578500000000        0.01624100000000
C           -1.68327800000000       -8.59391700000000        0.01632100000000
C            0.40340300000000       -9.85058000000000        0.02056900000000
C           -0.97482000000000       -9.81190500000000        0.01970800000000
C           -2.63217000000000        8.71354500000000        0.08845200000000
C           -3.33829100000000        9.93256100000000        0.11126000000000
C           -4.71677800000000        9.97571500000000        0.06268800000000
C           -5.49156100000000        8.79871500000000        0.01859000000000
C           -2.69015300000000        6.25005800000000        0.05664700000000
C           -3.37745300000000        7.50732700000000        0.05355600000000
C           -4.80924800000000        7.54820800000000        0.02388800000000
C           -5.54716800000000        6.32218300000000        0.00388200000000
C           -2.75270600000000        3.78979200000000        0.02842400000000
C           -3.42987200000000        5.04093800000000        0.03244000000000
C           -4.86398300000000        5.07776300000000        0.01212700000000
C           -5.60202500000000        3.86111900000000       -0.00125900000000
C           -2.82000500000000        1.32404100000000        0.01543500000000
C           -3.49521700000000        2.57324200000000        0.01941500000000
C           -4.92263400000000        2.60962400000000        0.00503100000000
C           -5.66267500000000        1.40008900000000       -0.00326000000000
C           -2.88717100000000       -1.14566400000000        0.01050600000000
C           -3.56193200000000        0.11022700000000        0.01350900000000
C           -4.98421100000000        0.15171100000000        0.00033600000000
C           -5.72543000000000       -1.05978400000000       -0.00443900000000
C           -2.95834100000000       -3.61494200000000        0.00913200000000
C           -3.62812000000000       -2.35380000000000        0.01013500000000
C           -5.05164200000000       -2.30578000000000       -0.00092500000000
C           -5.79707700000000       -3.51752800000000       -0.00487400000000
C           -3.04113800000000       -6.07839700000000        0.00992500000000
C           -3.70601400000000       -4.82702600000000        0.00770900000000
C           -5.13806300000000       -4.77989500000000       -0.00029800000000
C           -5.89743100000000       -5.97268000000000       -0.00407300000000
C           -3.13842500000000       -8.54804400000000        0.01226700000000
C           -3.80568000000000       -7.29368900000000        0.00784500000000
C           -5.23910800000000       -7.24376500000000        0.00125800000000
C           -6.00688500000000       -8.44320400000000       -0.00136300000000
C           -3.92800200000000       -9.71482600000000        0.01086400000000
C           -5.30880000000000       -9.66413400000000        0.00450200000000
C           -6.95185500000000        8.82279300000000       -0.01610700000000
C           -7.69073800000000       10.01601000000000       -0.03537700000000
C           -9.09379400000000       10.02779500000000       -0.06497500000000
C           -9.80210600000000        8.84341300000000       -0.07196100000000
C           -6.97850800000000        6.34690400000000       -0.01670700000000
C           -7.67087000000000        7.59232400000000       -0.02958500000000
C           -9.11038200000000        7.60415600000000       -0.05415600000000
C           -9.81377800000000        6.38877200000000       -0.06263500000000
C           -7.02916000000000        3.89102500000000       -0.01782900000000
C           -7.70687300000000        5.13389900000000       -0.02817900000000
C           -9.14811900000000        5.15269900000000       -0.04860300000000
C           -9.86475600000000        3.93887800000000       -0.05582600000000
C           -7.09422800000000        1.43636200000000       -0.01771200000000
C           -7.76866100000000        2.67750700000000       -0.02681600000000
C           -9.21074400000000        2.69788600000000       -0.04364900000000
C           -9.93077300000000        1.47834400000000       -0.04894100000000
C           -7.15514600000000       -1.01543300000000       -0.01657500000000
C           -7.83901900000000        0.22639700000000       -0.02442900000000
C           -9.27992600000000        0.24327700000000       -0.03865500000000
C           -9.99490600000000       -0.99940100000000       -0.04267600000000
C           -7.20906500000000       -3.46470600000000       -0.01481200000000
C           -7.88565000000000       -2.22357700000000       -0.02161100000000
C           -9.31272100000000       -2.18719200000000       -0.03366700000000
C           -7.32908100000000       -5.91422300000000       -0.01284100000000
C           -7.97082300000000       -4.65816200000000       -0.01937900000000
C           -9.39326800000000       -4.58339600000000       -0.02959700000000
C          -10.16017000000000       -5.71555800000000       -0.03282800000000
C           -7.47114600000000       -8.38321200000000       -0.01002800000000
C           -8.10937900000000       -7.10734200000000       -0.01640300000000
C           -9.53830500000000       -7.00371300000000       -0.02594700000000
C          -10.30439400000000       -8.18746700000000       -0.02877500000000
C           -8.28233900000000       -9.52640400000000       -0.01327800000000
C           -9.67793600000000       -9.42483100000000       -0.02239700000000
H           11.35058900000000        8.04494900000000       -0.09846000000000
H           10.27829000000000       10.30251500000000       -0.11196200000000
H            7.84679900000000       10.54115000000000       -0.08949500000000
H           11.13219000000000        3.43789900000000       -0.05316100000000
H           11.06040100000000        0.91903100000000       -0.03669800000000
H           10.98150000000000       -1.60216600000000       -0.02550900000000
H           10.89031000000000       -6.25165100000000       -0.01670900000000
H           10.89818400000000       -8.73670400000000       -0.01586700000000
H            5.81963000000000       10.62794200000000       -0.10939300000000
H            3.42112300000000       10.71021000000000       -0.07571100000000
H            1.50506900000000       10.75103000000000        0.24442500000000
H           -2.74382000000000       10.83904500000000        0.16901400000000
H           -5.19969600000000       10.94626600000000        0.07534600000000
H           -7.17842300000000       10.97073400000000       -0.02824300000000
H           -9.61634500000000       10.97894200000000       -0.07981000000000
H          -10.88782600000000        8.84212400000000       -0.09129300000000
H          -10.90014800000000        6.40650800000000       -0.08196300000000
H          -10.95095000000000        3.96857200000000       -0.07107800000000
H          -11.01665300000000        1.51188900000000       -0.06092100000000
H          -11.07979700000000       -0.99802500000000       -0.05251000000000
H          -11.24256500000000       -5.63778500000000       -0.04058200000000
H          -11.38858900000000       -8.11832500000000       -0.03600300000000
H          -10.27519100000000      -10.33206100000000       -0.02462700000000
H            9.66541500000000      -10.88554800000000       -0.01070200000000
H            7.22404400000000      -10.93728900000000       -0.00032400000000
H            5.22953000000000      -10.91358700000000        0.01066500000000
H            2.83688700000000      -10.87067800000000        0.01693500000000
H            0.88250800000000      -10.82183800000000        0.02291800000000
H           -1.50735500000000      -10.75502500000000        0.02086600000000
H           -3.45961500000000      -10.69130700000000        0.01453300000000
H           -5.85033200000000      -10.60268500000000        0.00351600000000
H           -7.84035500000000      -10.51568900000000       -0.00888400000000
O           10.09907700000000        5.79938900000000       -0.06054200000000
O            9.80715300000000       -3.90625500000000       -0.01261900000000
O          -10.03072700000000       -3.35887700000000       -0.03703900000000
202
 energy: -387.591595189751 gnorm: 0.045685766496 xtb: 6.7.1pre (5071a88)
C           10.24913529528651        8.14166681137274       -0.08851545514384
C            9.63803559021314        9.39378641129450       -0.09605415276968
C            8.26323401934384        9.52383557629802       -0.08401024652380
C            7.42708205345878        8.39296737745534       -0.06370800192604
C            9.45167501235837        7.01064136430741       -0.06785839204774
C            8.04586938307629        7.12180390363592       -0.05472216524224
C            7.26184270443970        5.92619051552593       -0.03385469234178
C           10.02193314501166        3.43362520476896       -0.04252878009187
C            9.35501139357381        4.62973977356519       -0.04477918660230
C            7.92930973705848        4.68562611783976       -0.03119707427449
C            7.19662770349163        3.48031353445026       -0.01572338209924
C            9.94883908594318        0.95064917429222       -0.02772311302041
C            9.30776444870631        2.19531603821489       -0.02848723528692
C            7.87748244129953        2.23596199733119       -0.01637337021779
C            7.13397117378817        1.03508447591785       -0.00540191615025
C            9.87369260935879       -1.53539855881893       -0.01821666992027
C            9.23436505797541       -0.25884274315871       -0.01744981319269
C            7.80636140866407       -0.20921051440800       -0.00755907483322
C            7.05505118141543       -1.41128912419741       -0.00015238898999
C            9.13569698511768       -2.69399277585680       -0.01097943340202
C            7.71446069736310       -2.65349958481654       -0.00285262326383
C            6.96902609269062       -3.85846412390619        0.00181843366569
C            9.78178954411233       -6.26417354518068       -0.01119933962710
C            9.08765485451019       -5.08537311011720       -0.00833979877971
C            7.66299840547854       -5.08940051954323       -0.00133257986146
C            6.95352074938504       -6.30677865762885        0.00183319546132
C            9.78949280701541       -8.73111071300966       -0.01084114351282
C            9.09226939644942       -7.51150807136992       -0.00769393834002
C            7.66598818603154       -7.53690000095137       -0.00121675097573
C            6.96094882625695       -8.77145993263399        0.00173893180642
C            9.10105483096333       -9.92589358321248       -0.00797535608148
C            7.70997121883567       -9.95130541721333       -0.00185564542517
C            5.97078488247089        8.45189995081645       -0.04920602470261
C            5.27027141623686        9.66954993192689       -0.07044479788656
C            3.89714722302652        9.71753960816715       -0.04428147472186
C            3.10429975578149        8.55534652880070        0.01167866873981
C            5.85605225933064        5.98809849443210       -0.01707687290938
C            5.20158881236434        7.26011309050052       -0.01968147147993
C            3.77383312827121        7.30572538101610        0.00687576683007
C            3.01684702311205        6.08728043293924        0.02297544147629
C            5.77515871025938        3.53466152957216       -0.00291999484333
C            5.10718520896831        4.78305431757070       -0.00005610939602
C            3.68084256760319        4.83421292283078        0.01431831322887
C            2.93572279550182        3.62515526428959        0.02266984995541
C            5.70421088858041        1.07923470052258        0.00357426262689
C            5.02982311925607        2.32298473603607        0.00789155056461
C            3.60792312893249        2.36897288574094        0.01575355098444
C            2.86468778751672        1.16158785690322        0.02167825697225
C            5.62877911288532       -1.37792370453988        0.00669014063382
C            4.95694455704227       -0.12782819184476        0.01095915601286
C            3.53722440597092       -0.08963405569253        0.01571319475000
C            2.79417949541591       -1.30424358144678        0.01960876102570
C            5.56085200891821       -3.83341311834094        0.00771925541743
C            4.88675761618526       -2.58264002197407        0.01137333569121
C            3.46522624526161       -2.55077193376201        0.01490681888877
C            2.72742264657035       -3.77116629085816        0.01712328429418
C            5.52545535321652       -6.28586552192986        0.00748255061664
C            4.83450599889086       -5.05545831085485        0.01041685583755
C            3.40531043741752       -5.02154569012774        0.01408671188056
C            2.67281050691746       -6.23248819408677        0.01553193663688
C            5.50024310780784       -8.74927752351040        0.00775856621045
C            4.79900373849938       -7.51510477841816        0.00986470689137
C            3.36889877924259       -7.48435102634306        0.01394848244390
C            2.63250934100598       -8.69520171116458        0.01613022200435
C            4.73491412359585       -9.92361839995968        0.01115130766536
C            3.35814464256317       -9.89795128921294        0.01513953752587
C            1.65549640451105        8.59653106041281        0.06668145350635
C            0.93228473106771        9.80770215276163        0.15420860080553
C           -0.43382559752426        9.84688430250261        0.15174131031591
C           -1.18806070558609        8.66841201395430        0.10989551243400
C            1.59486094243299        6.12918018700764        0.03930094031599
C            0.91527361308399        7.38609144635365        0.06240195208902
C           -0.51220539389482        7.42066450745760        0.08964853075083
C           -1.26515249118973        6.20722352999169        0.06833848128357
C            1.51522491168520        3.66892096742664        0.03054920076674
C            0.84539981944832        4.92165810590947        0.04166062682990
C           -0.58555485085754        4.96124053928323        0.04759863785615
C           -1.32854434105806        3.74923440321123        0.03668689170705
C            1.44046576790343        1.20305827708595        0.02387133193091
C            0.76970900321282        2.45330372774365        0.03120775090916
C           -0.65276236542220        2.49387208452696        0.02924921893305
C           -1.39264948138019        1.28318127764000        0.02533538906097
C            1.37064659154374       -1.26645252689107        0.01997479431300
C            0.69884680612261       -0.01131964699739        0.02492168504767
C           -0.71977739254385        0.02911560000678        0.02158447928062
C           -1.45980769284452       -1.18665813160056        0.01967326448628
C            1.30782932002786       -3.73446637486247        0.01762535461875
C            0.63250418130042       -2.47830004168910        0.02077272528663
C           -0.79027865824670       -2.43794338692047        0.01745331281495
C           -1.53443139833916       -3.65454727818519        0.01595404159371
C            1.24676045275674       -6.19500488206483        0.01670568993275
C            0.56796223342077       -4.95011011912546        0.01785403798330
C           -0.86360737264669       -4.90961083939458        0.01569277612830
C           -1.61101857556695       -6.11475269342604        0.01450401052215
C            1.18010726449402       -8.65748761011746        0.01828201466013
C            0.49801289046947       -7.41385294176921        0.01731984937709
C           -0.93159069496026       -7.37355742587737        0.01612407814738
C           -1.68225459782861       -8.57697458170309        0.01623278702339
C            0.40214491392686       -9.82689350139943        0.02051051625238
C           -0.97156689829023       -9.78835694651245        0.01953727775858
C           -2.63598351222707        8.69339395796259        0.09091847312001
C           -3.33605868688870        9.91059891718565        0.11025821710602
C           -4.70948676569796        9.95456386383299        0.06726277255880
C           -5.48580291827386        8.78382056447190        0.02153029209897
C           -2.69042690606353        6.24043413913105        0.05402820508960
C           -3.37935047542931        7.49274787149012        0.05486297245634
C           -4.80631618225166        7.53636567802687        0.02539495516135
C           -5.54202136999122        6.31354831951115        0.00509343467147
C           -2.75092408961992        3.78544994266826        0.02937251357794
C           -3.42929519650279        5.03350700581000        0.03186452601206
C           -4.86017254807549        5.07164705989433        0.01194097638026
C           -5.59587674180197        3.85669635814937       -0.00068497332695
C           -2.81707066163697        1.32306918154476        0.01739623492380
C           -3.49215771272778        2.57026798773568        0.01832844788125
C           -4.91710284833023        2.60735962304266        0.00513697136143
C           -5.65545066050135        1.39838736041656       -0.00337181242751
C           -2.88318355128500       -1.14395763527632        0.01241035399352
C           -3.55708968973331        0.10986085092720        0.01180043527120
C           -4.97712283624430        0.15150278851464        0.00105211567017
C           -5.71641458163691       -1.05959094190541       -0.00469719345289
C           -2.95410708391562       -3.61124645159277        0.01018736571674
C           -3.62238747563541       -2.35198563379163        0.00878948630976
C           -5.04324705077394       -2.30431682446998       -0.00042754176463
C           -5.78568127544813       -3.51563651884022       -0.00486063761585
C           -3.03681562058924       -6.07171937377212        0.00995517911026
C           -3.70057768748580       -4.82180808402611        0.00728590455753
C           -5.12911515171894       -4.77573846243082       -0.00031234344297
C           -5.88783548106150       -5.96687366049556       -0.00393504987825
C           -3.13408918332440       -8.53248230310888        0.01205681687585
C           -3.80154366600862       -7.28254087841406        0.00785400567124
C           -5.23116800783889       -7.23380530471144        0.00108565852971
C           -5.99999858386354       -8.42757687536907       -0.00137644158670
C           -3.92566721719213       -9.69282625757243        0.01077480255927
C           -5.30153315058712       -9.64244698542250        0.00441428487243
C           -6.94181545375540        8.81265118863199       -0.01540180922117
C           -7.67873469994743       10.00186501499021       -0.03510552919510
C           -9.07311723159548       10.01043300512330       -0.06393367684142
C           -9.77723432590642        8.83153718247148       -0.07151855235323
C           -6.96899473845269        6.34120091057822       -0.01688436296902
C           -7.65789527311156        7.58567341452064       -0.02910832368040
C           -9.09046337336020        7.59587886918549       -0.05448291773362
C           -9.79187097776275        6.38332635695782       -0.06272953368708
C           -7.01978157003899        3.88669318636465       -0.01808307978845
C           -7.69609764539122        5.12926125213342       -0.02785797330009
C           -9.13236423627515        5.14823337843342       -0.04872223200406
C           -9.84296624579919        3.93539912553581       -0.05555329201070
C           -7.08369924124782        1.43369323249736       -0.01778394477436
C           -7.75661696520487        2.67358434299828       -0.02644554908088
C           -9.19251045635180        2.69545063999907       -0.04354430011779
C           -9.90548828150784        1.47727703351481       -0.04858619487914
C           -7.14241520559457       -1.01489705753352       -0.01654408550310
C           -7.82444903960425        0.22407004621894       -0.02417234207001
C           -9.25773178729248        0.24317710929114       -0.03845235084551
C           -9.96840548912865       -0.99593293897801       -0.04236083701476
C           -7.19464780965277       -3.46320770559492       -0.01483833040996
C           -7.87093857837992       -2.22192578167703       -0.02143147792008
C           -9.29478617635320       -2.18943717827212       -0.03348957774451
C           -7.31497768882579       -5.90970664300007       -0.01290655008455
C           -7.95593863669404       -4.65579962619517       -0.01916242943484
C           -9.37666693829084       -4.57609613482112       -0.02951762976323
C          -10.13663999035715       -5.71361320237304       -0.03265508875098
C           -7.45902489225591       -8.36951511732475       -0.01005002416035
C           -8.09455764795911       -7.09829976350303       -0.01628548291187
C           -9.51723359519421       -6.99585499076202       -0.02584209568336
C          -10.28127235701112       -8.17501134352220       -0.02864805086056
C           -8.27181442076463       -9.50628477757693       -0.01326178767543
C           -9.65959861128420       -9.40543702849073       -0.02230955672564
H           11.32492263169556        8.04082554663806       -0.09819832546591
H           10.25904527155148       10.28084919242388       -0.11156034554028
H            7.84233212250466       10.51822454390950       -0.08931859975274
H           11.10348730595343        3.42877138798054       -0.05272822642815
H           11.03208359118527        0.91886594151129       -0.03633658339037
H           10.95376221846520       -1.59348210442379       -0.02526059644946
H           10.86323773274904       -6.25334742653386       -0.01655386060465
H           10.87238918221120       -8.72536828035743       -0.01573616584850
H            5.81177136966868       10.60440707848059       -0.10935002078426
H            3.42645068405319       10.68970048795335       -0.07406448623551
H            1.48661920702655       10.73826497376379        0.23070455928606
H           -2.75074097386993       10.82118738053894        0.16012108087000
H           -5.18886680284182       10.92354333838976        0.07592574764328