      -----------------------------------------------------------      
     |                   =====================                   |     
     |                           x T B                           |     
     |                   =====================                   |     
     |                         S. Grimme                         |     
     |          Mulliken Center for Theoretical Chemistry        |     
     |                    University of Bonn                     |     
      -----------------------------------------------------------      

   * xtb version 6.7.1pre (5071a88) compiled by 'Marcel@Raven' on 2024-07-23

   xtb is free software: you can redistribute it and/or modify it under
   the terms of the GNU Lesser General Public License as published by
   the Free Software Foundation, either version 3 of the License, or
   (at your option) any later version.
   
   xtb is distributed in the hope that it will be useful,
   but WITHOUT ANY WARRANTY; without even the implied warranty of
   MERCHANTABILITY or FITNESS FOR A PARTICULAR PURPOSE.  See the
   GNU Lesser General Public License for more details.
   
   Cite this work as:
   * C. Bannwarth, E. Caldeweyher, S. Ehlert, A. Hansen, P. Pracht,
     J. Seibert, S. Spicher, S. Grimme, WIREs Comput. Mol. Sci., 2020, 11,
     e01493. DOI: 10.1002/wcms.1493
   
   for GFN2-xTB:
   * C. Bannwarth, S. Ehlert and S. Grimme., J. Chem. Theory Comput., 2019,
     15, 1652-1671. DOI: 10.1021/acs.jctc.8b01176
   for GFN1-xTB:
   * S. Grimme, C. Bannwarth, P. Shushkov, J. Chem. Theory Comput., 2017,
     13, 1989-2009. DOI: 10.1021/acs.jctc.7b00118
   for GFN0-xTB:
   * P. Pracht, E. Caldeweyher, S. Ehlert, S. Grimme, ChemRxiv, 2019, preprint.
     DOI: 10.26434/chemrxiv.8326202.v1
   for GFN-FF:
   * S. Spicher and S. Grimme, Angew. Chem. Int. Ed., 2020, 59, 15665-15673.
     DOI: 10.1002/anie.202004239
   
   for ALPB and GBSA implicit solvation:
   * S. Ehlert, M. Stahn, S. Spicher, S. Grimme, J. Chem. Theory Comput.,
     2021, 17, 4250-4261. DOI: 10.1021/acs.jctc.1c00471
   
   for ddCOSMO and CPCM-X implicit solvation:
   * M. Stahn, S. Ehlert, S. Grimme, J. Phys. Chem. A,
     2023, XX, XXXX-XXXX. DOI: 10.1021/acs.jpca.3c04382
   
   for DFT-D4:
   * E. Caldeweyher, C. Bannwarth and S. Grimme, J. Chem. Phys., 2017,
     147, 034112. DOI: 10.1063/1.4993215
   * E. Caldeweyher, S. Ehlert, A. Hansen, H. Neugebauer, S. Spicher,
     C. Bannwarth and S. Grimme, J. Chem. Phys., 2019, 150, 154122.
     DOI: 10.1063/1.5090222
   * E. Caldeweyher, J.-M. Mewes, S. Ehlert and S. Grimme, Phys. Chem. Chem. Phys.
     2020, 22, 8499-8512. DOI: 10.1039/D0CP00502A
   
   for sTDA-xTB:
   * S. Grimme and C. Bannwarth, J. Chem. Phys., 2016, 145, 054103.
     DOI: 10.1063/1.4959605
   
   in the mass-spec context:
   * V. Asgeirsson, C. Bauer and S. Grimme, Chem. Sci., 2017, 8, 4879.
     DOI: 10.1039/c7sc00601b
   * J. Koopman and S. Grimme, ACS Omega 2019, 4, 12, 15120-15133.
     DOI: 10.1021/acsomega.9b02011
   
   for metadynamics refer to:
   * S. Grimme, J. Chem. Theory Comput., 2019, 155, 2847-2862
     DOI: 10.1021/acs.jctc.9b00143
   
   for SPH calculations refer to:
   * S. Spicher and S. Grimme, J. Chem. Theory Comput., 2021, 17, 1701-1714
     DOI: 10.1021/acs.jctc.0c01306
   
   for ONIOM refer to:
   * C. Plett, A. Katbashev, S. Ehlert, S. Grimme, M. Bursch,
     Phys. Chem. Chem. Phys., 2023, 25, 17860-17868. DOI: 10.1039/D3CP02178E
   
   for DIPRO refer to:
   * J. Kohn, N. Gildemeister, S. Grimme, D. Fazzi, A. Hansen,
     J. Chem. Phys., 2023, just accepted.
   
   for PTB refer to:
   * S. Grimme, M. Mueller, A. Hansen, J. Chem. Phys., 2023, 158, 124111.
     DOI: 10.1063/5.0137838
   
   with help from (in alphabetical order)
   P. Atkinson, C. Bannwarth, F. Bohle, G. Brandenburg, E. Caldeweyher
   M. Checinski, S. Dohm, S. Ehlert, S. Ehrlich, I. Gerasimov, C. Hölzer
   A. Katbashev, J. Kohn, J. Koopman, C. Lavigne, S. Lehtola, F. März, M. Müller,
   F. Musil, H. Neugebauer, J. Pisarek, C. Plett, P. Pracht, F. Pultar,
   J. Seibert, P. Shushkov, S. Spicher, M. Stahn, M. Steiner, T. Strunk,
   J. Stückrath, T. Rose, and J. Unsleber
   
 * started run on 2025/12/08 at 00:32:34.251     
   ID    Z sym.   atoms
    1    6 C      1-100
    2    1 H      101-128
    3   15 P      129-132

           -------------------------------------------------
          |                Calculation Setup                |
           -------------------------------------------------

          program call               : xtb "C:\Users\LENOVO GAMING\Documents\GitHub\molecular-conductivity-sim\dataset\1.5nm-4Pdoped-3percent.xyz" --opt --parallel 4
          coordinate file            : C:\Users\LENOVO GAMING\Documents\GitHub\molecular-conductivity-sim\dataset\1.5nm-4Pdoped-3percent.xyz
          omp threads                :                     4


           -------------------------------------------------
          |                 G F N 2 - x T B                 |
           -------------------------------------------------

        Reference                      10.1021/acs.jctc.8b01176
      * Hamiltonian:
        H0-scaling (s, p, d)           1.850000    2.230000    2.230000
        zeta-weighting                 0.500000
      * Dispersion:
        s8                             2.700000
        a1                             0.520000
        a2                             5.000000
        s9                             5.000000
      * Repulsion:
        kExp                           1.500000    1.000000
        rExp                           1.000000
      * Coulomb:
        alpha                          2.000000
        third order                    shell-resolved
        anisotropic                    true
        a3                             3.000000
        a5                             4.000000
        cn-shift                       1.200000
        cn-exp                         4.000000
        max-rad                        5.000000


          ...................................................
          :                      SETUP                      :
          :.................................................:
          :  # basis functions                 468          :
          :  # atomic orbitals                 464          :
          :  # shells                          240          :
          :  # electrons                       448          :
          :  max. iterations                   250          :
          :  Hamiltonian                  GFN2-xTB          :
          :  restarted?                      false          :
          :  GBSA solvation                  false          :
          :  PC potential                    false          :
          :  electronic temp.          300.0000000     K    :
          :  accuracy                    1.0000000          :
          :  -> integral cutoff          0.2500000E+02      :
          :  -> integral neglect         0.1000000E-07      :
          :  -> SCF convergence          0.1000000E-05 Eh   :
          :  -> wf. convergence          0.1000000E-03 e    :
          :  Broyden damping             0.4000000          :
          :  net charge                          0          :
          :  unpaired electrons                  0          :
          ...................................................

 iter      E             dE          RMSdq      gap      omega  full diag
   1   -243.3907714 -0.243391E+03  0.507E+00    1.13       0.0  T
   2   -243.4434439 -0.526725E-01  0.298E+00    1.11       1.0  T
   3   -243.3501664  0.932775E-01  0.836E-01    1.03       1.0  T
   4   -243.4370611 -0.868947E-01  0.343E-01    1.09       1.0  T
   5   -243.4568900 -0.198289E-01  0.128E-01    1.11       1.0  T
   6   -243.4583763 -0.148628E-02  0.577E-02    1.10       1.0  T
   7   -243.4584909 -0.114622E-03  0.343E-02    1.10       1.0  T
   8   -243.4585912 -0.100297E-03  0.129E-02    1.10       1.0  T
   9   -243.4586099 -0.187127E-04  0.420E-03    1.10       2.1  T
  10   -243.4586104 -0.523909E-06  0.193E-03    1.10       4.5  T
  11   -243.4586108 -0.413259E-06  0.479E-04    1.10      18.2  T
  12   -243.4586109 -0.189068E-07  0.271E-04    1.10      32.1  T

   *** convergence criteria satisfied after 12 iterations ***

         #    Occupation            Energy/Eh            Energy/eV
      -------------------------------------------------------------
         1        2.0000           -0.6699181             -18.2294
       ...           ...                  ...                  ...
       218        2.0000           -0.3789940             -10.3130
       219        2.0000           -0.3775254             -10.2730
       220        2.0000           -0.3703770             -10.0785
       221        2.0000           -0.3652788              -9.9397
       222        2.0000           -0.3580858              -9.7440
       223        2.0000           -0.3548641              -9.6563
       224        2.0000           -0.3462159              -9.4210 (HOMO)
       225                         -0.3056653              -8.3176 (LUMO)
       226                         -0.2962858              -8.0623
       227                         -0.2887254              -7.8566
       228                         -0.2767419              -7.5305
       229                         -0.2710090              -7.3745
       ...                                ...                  ...
       464                          0.9299909              25.3063
      -------------------------------------------------------------
                  HL-Gap            0.0405506 Eh            1.1034 eV
             Fermi-level           -0.3259406 Eh           -8.8693 eV

 SCC (total)                   0 d,  0 h,  0 min,  1.107 sec
 SCC setup                      ...        0 min,  0.003 sec (  0.271%)
 Dispersion                     ...        0 min,  0.008 sec (  0.723%)
 classical contributions        ...        0 min,  0.001 sec (  0.090%)
 integral evaluation            ...        0 min,  0.048 sec (  4.336%)
 iterations                     ...        0 min,  0.841 sec ( 75.971%)
 molecular gradient             ...        0 min,  0.200 sec ( 18.067%)
 printout                       ...        0 min,  0.006 sec (  0.542%)

         :::::::::::::::::::::::::::::::::::::::::::::::::::::
         ::                     SUMMARY                     ::
         :::::::::::::::::::::::::::::::::::::::::::::::::::::
         :: total energy            -239.196136267991 Eh    ::
         :: gradient norm              0.043974895849 Eh/a0 ::
         :: HOMO-LUMO gap              1.103437414853 eV    ::
         ::.................................................::
         :: SCC energy              -243.466221794393 Eh    ::
         :: -> isotropic ES            0.003092520629 Eh    ::
         :: -> anisotropic ES          0.009607234971 Eh    ::
         :: -> anisotropic XC          0.094282038433 Eh    ::
         :: -> dispersion             -0.296240804399 Eh    ::
         :: repulsion energy           4.270085526402 Eh    ::
         :: add. restraining           0.000000000000 Eh    ::
         :: total charge               0.000000000000 e     ::
         :::::::::::::::::::::::::::::::::::::::::::::::::::::

      ----------------------------------------------------------- 
     |                   =====================                   |
     |                        A N C O P T                        |
     |                   =====================                   |
     |               Approximate Normal Coordinate               |
     |                Rational Function Optimizer                |
      ----------------------------------------------------------- 
      ----------------------------------------------------------- 
     |                   =====================                   |
     |                        A N C O P T                        |
     |                   =====================                   |
     |               Approximate Normal Coordinate               |
     |                Rational Function Optimizer                |
      ----------------------------------------------------------- 

          ...................................................
          :                      SETUP                      :
          :.................................................:
          :   optimization level            normal          :
          :   max. optcycles                   396          :
          :   ANC micro-cycles                  20          :
          :   degrees of freedom               390          :
          :.................................................:
          :   RF solver                   davidson          :
          :   write xtbopt.log                true          :
          :   linear?                        false          :
          :   energy convergence         0.5000000E-05 Eh   :
          :   grad. convergence          0.1000000E-02 Eh/α :
          :   maxmium RF displ.          1.0000000          :
          :   Hlow (freq-cutoff)         0.1000000E-01      :
          :   Hmax (freq-cutoff)         5.0000000          :
          :   S6 in model hess.         20.0000000          :
          ...................................................

generating ANC from exact Hessian ...
Using Lindh-Hessian (1995)
 Shifting diagonal of input Hessian by   9.894173546123028E-003
 Lowest  eigenvalues of input Hessian
    0.000000    0.000000    0.000000    0.000000    0.000000    0.000000
    0.010000    0.010135    0.010240    0.010361    0.010406    0.011181
    0.011224    0.011412    0.011459    0.011650    0.012610    0.012932
 Highest eigenvalues
    2.066666    2.080559    2.090898    2.114915    2.126646    2.133615
 

........................................................................
.............................. CYCLE    1 ..............................
........................................................................

 iter      E             dE          RMSdq      gap      omega  full diag
   1   -243.4586109 -0.243459E+03  0.118E-04    1.10       0.0  T
   2   -243.4586109 -0.173173E-09  0.862E-05    1.10     101.0  T
   3   -243.4586109 -0.798480E-09  0.451E-05    1.10     192.8  T
     SCC iter.                  ...        0 min,  0.213 sec
     gradient                   ...        0 min,  0.179 sec
 * total energy  :  -239.1961363 Eh     change       -0.5489198E-08 Eh
   gradient norm :     0.0439746 Eh/α   predicted     0.0000000E+00 (-100.00%)
   displ. norm   :     0.5567487 α      lambda       -0.1816722E-01
   maximum displ.:     0.3394421 α      in ANC's #54, #31, #41, ...

........................................................................
.............................. CYCLE    2 ..............................
........................................................................

 iter      E             dE          RMSdq      gap      omega  full diag
   1   -243.5938477 -0.243594E+03  0.176E-01    1.11       0.0  T
   2   -243.5938826 -0.348699E-04  0.102E-01    1.11       1.0  T
   3   -243.5935757  0.306873E-03  0.457E-02    1.11       1.0  T
   4   -243.5938888 -0.313105E-03  0.161E-02    1.11       1.0  T
   5   -243.5939086 -0.197105E-04  0.697E-03    1.11       1.2  T
   6   -243.5939144 -0.587777E-05  0.157E-03    1.11       5.5  T
   7   -243.5939145 -0.111899E-06  0.916E-04    1.11       9.5  T
   8   -243.5939146 -0.740468E-08  0.390E-04    1.11      22.3  T
     SCC iter.                  ...        0 min,  0.562 sec
     gradient                   ...        0 min,  0.203 sec
 * total energy  :  -239.2095317 Eh     change       -0.1339544E-01 Eh
   gradient norm :     0.0228183 Eh/α   predicted    -0.1189929E-01 ( -11.17%)
   displ. norm   :     0.5505401 α      lambda       -0.9212340E-02
   maximum displ.:     0.2997077 α      in ANC's #54, #31, #41, ...

........................................................................
.............................. CYCLE    3 ..............................
........................................................................

 iter      E             dE          RMSdq      gap      omega  full diag
   1   -243.7223496 -0.243722E+03  0.111E-01    1.11       0.0  T
   2   -243.7223539 -0.434597E-05  0.680E-02    1.10       1.0  T
   3   -243.7220155  0.338482E-03  0.517E-02    1.10       1.0  T
   4   -243.7223884 -0.372972E-03  0.771E-03    1.10       1.1  T
   5   -243.7223893 -0.889101E-06  0.581E-03    1.10       1.5  T
   6   -243.7223935 -0.416908E-05  0.155E-03    1.10       5.6  T
   7   -243.7223935 -0.372055E-07  0.826E-04    1.10      10.5  T
   8   -243.7223936 -0.328686E-07  0.254E-04    1.10      34.3  T
     SCC iter.                  ...        0 min,  0.526 sec
     gradient                   ...        0 min,  0.200 sec
 * total energy  :  -239.2154328 Eh     change       -0.5901035E-02 Eh
   gradient norm :     0.0093543 Eh/α   predicted    -0.6004495E-02 (   1.75%)
   displ. norm   :     0.3110023 α      lambda       -0.1853045E-02
   maximum displ.:     0.1408582 α      in ANC's #31, #54, #41, ...

........................................................................
.............................. CYCLE    4 ..............................
........................................................................

 iter      E             dE          RMSdq      gap      omega  full diag
   1   -243.7674127 -0.243767E+03  0.693E-02    1.11       0.0  T
   2   -243.7674190 -0.625338E-05  0.395E-02    1.11       1.0  T
   3   -243.7674033  0.156747E-04  0.101E-02    1.11       1.0  T
   4   -243.7674172 -0.139098E-04  0.542E-03    1.11       1.6  T
   5   -243.7674212 -0.396948E-05  0.210E-03    1.11       4.1  T
   6   -243.7674215 -0.313918E-06  0.805E-04    1.11      10.8  T
   7   -243.7674215 -0.136426E-07  0.525E-04    1.11      16.6  T
     SCC iter.                  ...        0 min,  0.459 sec
     gradient                   ...        0 min,  0.193 sec
 * total energy  :  -239.2164721 Eh     change       -0.1039369E-02 Eh
   gradient norm :     0.0042867 Eh/α   predicted    -0.1016179E-02 (  -2.23%)
   displ. norm   :     0.1181223 α      lambda       -0.2131571E-03
   maximum displ.:     0.0749633 α      in ANC's #10, #31, #20, ...

........................................................................
.............................. CYCLE    5 ..............................
........................................................................

 iter      E             dE          RMSdq      gap      omega  full diag
   1   -243.7736591 -0.243774E+03  0.334E-02    1.11       0.0  T
   2   -243.7736598 -0.659173E-06  0.194E-02    1.11       1.0  T
   3   -243.7736555  0.430820E-05  0.534E-03    1.11       1.6  T
   4   -243.7736597 -0.422519E-05  0.206E-03    1.11       4.2  T
   5   -243.7736601 -0.414555E-06  0.758E-04    1.11      11.5  T
   6   -243.7736602 -0.652351E-07  0.254E-04    1.11      34.3  T
     SCC iter.                  ...        0 min,  0.428 sec
     gradient                   ...        0 min,  0.184 sec
 * total energy  :  -239.2166089 Eh     change       -0.1367828E-03 Eh
   gradient norm :     0.0022810 Eh/α   predicted    -0.1080651E-03 ( -21.00%)
   displ. norm   :     0.1127477 α      lambda       -0.9892589E-04
   maximum displ.:     0.0885755 α      in ANC's #10, #20, #15, ...

........................................................................
.............................. CYCLE    6 ..............................
........................................................................

 iter      E             dE          RMSdq      gap      omega  full diag
   1   -243.7729479 -0.243773E+03  0.260E-02    1.11       0.0  T
   2   -243.7729480 -0.594519E-07  0.152E-02    1.11       1.0  T
   3   -243.7729408  0.715719E-05  0.723E-03    1.11       1.2  T
   4   -243.7729484 -0.757351E-05  0.927E-04    1.11       9.4  T
   5   -243.7729485 -0.613462E-07  0.426E-04    1.11      20.4  T
   6   -243.7729485 -0.183419E-07  0.153E-04    1.11      57.0  T
     SCC iter.                  ...        0 min,  0.380 sec
     gradient                   ...        0 min,  0.200 sec
 * total energy  :  -239.2166821 Eh     change       -0.7319975E-04 Eh
   gradient norm :     0.0015693 Eh/α   predicted    -0.5010436E-04 ( -31.55%)
   displ. norm   :     0.1595403 α      lambda       -0.6689152E-04
   maximum displ.:     0.1214008 α      in ANC's #10, #15, #20, ...

........................................................................
.............................. CYCLE    7 ..............................
........................................................................

 iter      E             dE          RMSdq      gap      omega  full diag
   1   -243.7685249 -0.243769E+03  0.344E-02    1.11       0.0  T
   2   -243.7685250 -0.114246E-06  0.202E-02    1.11       1.0  T
   3   -243.7685179  0.706721E-05  0.729E-03    1.11       1.2  T
   4   -243.7685254 -0.743738E-05  0.978E-04    1.11       8.9  T
   5   -243.7685254 -0.942226E-07  0.432E-04    1.11      20.1  T
   6   -243.7685255 -0.198526E-07  0.162E-04    1.11      53.8  T
     SCC iter.                  ...        0 min,  0.401 sec
     gradient                   ...        0 min,  0.189 sec
 * total energy  :  -239.2167539 Eh     change       -0.7175024E-04 Eh
   gradient norm :     0.0020305 Eh/α   predicted    -0.3382563E-04 ( -52.86%)
   displ. norm   :     0.0900830 α      lambda       -0.4456509E-04
   maximum displ.:     0.0658875 α      in ANC's #10, #15, #3, ...

........................................................................
.............................. CYCLE    8 ..............................
........................................................................

 iter      E             dE          RMSdq      gap      omega  full diag
   1   -243.7689415 -0.243769E+03  0.184E-02    1.11       0.0  T
   2   -243.7689417 -0.137826E-06  0.108E-02    1.11       1.0  T
   3   -243.7689412  0.469912E-06  0.175E-03    1.11       5.0  T
   4   -243.7689417 -0.468295E-06  0.666E-04    1.11      13.1  T
   5   -243.7689417 -0.636191E-07  0.180E-04    1.11      48.3  T
     SCC iter.                  ...        0 min,  0.327 sec
     gradient                   ...        0 min,  0.185 sec
 * total energy  :  -239.2167915 Eh     change       -0.3768587E-04 Eh
   gradient norm :     0.0016795 Eh/α   predicted    -0.2246402E-04 ( -40.39%)
   displ. norm   :     0.2062552 α      lambda       -0.5463656E-04
   maximum displ.:     0.1455353 α      in ANC's #10, #15, #3, ...

........................................................................
.............................. CYCLE    9 ..............................
........................................................................

 iter      E             dE          RMSdq      gap      omega  full diag
   1   -243.7692691 -0.243769E+03  0.412E-02    1.11       0.0  T
   2   -243.7692695 -0.447051E-06  0.242E-02    1.11       1.0  T
   3   -243.7692672  0.231941E-05  0.380E-03    1.11       2.3  T
   4   -243.7692696 -0.243664E-05  0.114E-03    1.11       7.6  T
   5   -243.7692698 -0.153092E-06  0.475E-04    1.11      18.3  T
   6   -243.7692698 -0.224459E-07  0.209E-04    1.11      41.6  T
     SCC iter.                  ...        0 min,  0.384 sec
     gradient                   ...        0 min,  0.180 sec
 * total energy  :  -239.2168427 Eh     change       -0.5114646E-04 Eh
   gradient norm :     0.0013130 Eh/α   predicted    -0.2783800E-04 ( -45.57%)
   displ. norm   :     0.0963683 α      lambda       -0.1571389E-04
   maximum displ.:     0.0683989 α      in ANC's #10, #15, #3, ...

........................................................................
.............................. CYCLE   10 ..............................
........................................................................

 iter      E             dE          RMSdq      gap      omega  full diag
   1   -243.7703737 -0.243770E+03  0.176E-02    1.11       0.0  T
   2   -243.7703738 -0.152719E-06  0.102E-02    1.11       1.0  T
   3   -243.7703727  0.111962E-05  0.281E-03    1.11       3.1  T
   4   -243.7703739 -0.117062E-05  0.760E-04    1.11      11.4  T
   5   -243.7703739 -0.616914E-07  0.295E-04    1.11      29.5  T
   6   -243.7703739 -0.111134E-07  0.102E-04    1.11      85.4  T
     SCC iter.                  ...        0 min,  0.396 sec
     gradient                   ...        0 min,  0.196 sec
 * total energy  :  -239.2168608 Eh     change       -0.1806328E-04 Eh
   gradient norm :     0.0009542 Eh/α   predicted    -0.7890692E-05 ( -56.32%)
   displ. norm   :     0.1061363 α      lambda       -0.1618388E-04
   maximum displ.:     0.0693001 α      in ANC's #10, #3, #15, ...

........................................................................
.............................. CYCLE   11 ..............................
........................................................................

 iter      E             dE          RMSdq      gap      omega  full diag
   1   -243.7709212 -0.243771E+03  0.189E-02    1.11       0.0  T
   2   -243.7709213 -0.125030E-06  0.112E-02    1.11       1.0  T
   3   -243.7709196  0.168187E-05  0.345E-03    1.11       2.5  T
   4   -243.7709214 -0.177451E-05  0.721E-04    1.11      12.1  T
   5   -243.7709215 -0.394805E-07  0.415E-04    1.11      21.0  T
   6   -243.7709215 -0.202750E-07  0.135E-04    1.11      64.7  T
     SCC iter.                  ...        0 min,  0.410 sec
     gradient                   ...        0 min,  0.167 sec
 * total energy  :  -239.2168781 Eh     change       -0.1730425E-04 Eh
   gradient norm :     0.0005768 Eh/α   predicted    -0.8136607E-05 ( -52.98%)
   displ. norm   :     0.1015130 α      lambda       -0.1079057E-04
   maximum displ.:     0.0584207 α      in ANC's #10, #3, #20, ...

........................................................................
.............................. CYCLE   12 ..............................
........................................................................

 iter      E             dE          RMSdq      gap      omega  full diag
   1   -243.7710149 -0.243771E+03  0.171E-02    1.11       0.0  T
   2   -243.7710151 -0.163385E-06  0.993E-03    1.11       1.0  T
   3   -243.7710134  0.174278E-05  0.359E-03    1.11       2.4  T
   4   -243.7710152 -0.182537E-05  0.925E-04    1.11       9.4  T
   5   -243.7710153 -0.695231E-07  0.478E-04    1.11      18.2  T
   6   -243.7710153 -0.303188E-07  0.120E-04    1.11      72.8  T
     SCC iter.                  ...        0 min,  0.396 sec
     gradient                   ...        0 min,  0.191 sec
 * total energy  :  -239.2168889 Eh     change       -0.1082389E-04 Eh
   gradient norm :     0.0006024 Eh/α   predicted    -0.5420997E-05 ( -49.92%)
   displ. norm   :     0.0717336 α      lambda       -0.5545838E-05
   maximum displ.:     0.0354988 α      in ANC's #10, #3, #8, ...

........................................................................
.............................. CYCLE   13 ..............................
........................................................................

 iter      E             dE          RMSdq      gap      omega  full diag
   1   -243.7711909 -0.243771E+03  0.124E-02    1.11       0.0  T
   2   -243.7711910 -0.556083E-07  0.725E-03    1.11       1.2  T
   3   -243.7711905  0.493580E-06  0.193E-03    1.11       4.5  T
   4   -243.7711910 -0.499964E-06  0.568E-04    1.11      15.3  T
   5   -243.7711910 -0.314113E-07  0.254E-04    1.11      34.3  T
     SCC iter.                  ...        0 min,  0.332 sec
     gradient                   ...        0 min,  0.179 sec
 * total energy  :  -239.2168947 Eh     change       -0.5774601E-05 Eh
   gradient norm :     0.0004473 Eh/α   predicted    -0.2782801E-05 ( -51.81%)
   displ. norm   :     0.0550472 α      lambda       -0.3753844E-05
   maximum displ.:     0.0275841 α      in ANC's #3, #8, #1, ...

........................................................................
.............................. CYCLE   14 ..............................
........................................................................

 iter      E             dE          RMSdq      gap      omega  full diag
   1   -243.7709108 -0.243771E+03  0.103E-02    1.11       0.0  T
   2   -243.7709109 -0.319347E-07  0.599E-03    1.11       1.5  T
   3   -243.7709107  0.189639E-06  0.113E-03    1.11       7.7  T
   4   -243.7709109 -0.199976E-06  0.303E-04    1.11      28.7  T
   5   -243.7709109 -0.113436E-07  0.102E-04    1.11      85.0  T
     SCC iter.                  ...        0 min,  0.326 sec
     gradient                   ...        0 min,  0.190 sec
 * total energy  :  -239.2168982 Eh     change       -0.3588753E-05 Eh
   gradient norm :     0.0002989 Eh/α   predicted    -0.1882219E-05 ( -47.55%)
   displ. norm   :     0.0556478 α      lambda        0.1081970E-05
   maximum displ.:     0.0279200 α      in ANC's #3, #8, #1, ...

   *** GEOMETRY OPTIMIZATION CONVERGED AFTER 14 ITERATIONS ***

------------------------------------------------------------------------
 total energy gain   :        -0.0207620 Eh      -13.0283 kcal/mol
 total RMSD          :         0.1567226 a0        0.0829 Å
 total power (kW/mol):        -3.8936111 (step)   -5.9386 (real)
------------------------------------------------------------------------

 ANCopt (total)                0 d,  0 h,  0 min,  9.179 sec
 optimizer setup                ...        0 min,  0.001 sec (  0.011%)
 model hessian                  ...        0 min,  0.118 sec (  1.286%)
 ANC generation                 ...        0 min,  0.033 sec (  0.360%)
 coordinate transformation      ...        0 min,  0.002 sec (  0.022%)
 single point calculation       ...        0 min,  8.985 sec ( 97.886%)
 optimization log               ...        0 min,  0.025 sec (  0.272%)
 hessian update                 ...        0 min,  0.002 sec (  0.022%)
 rational function              ...        0 min,  0.007 sec (  0.076%)

================
 final structure:
================
132
 xtb: 6.7.1pre (5071a88)
C            1.39693715348992        7.69307472786876        0.48715868771324
C           -2.80794709641745        6.87924986786538        0.60398630303040
C           -0.45140570349683        6.13316027061630        0.40768275354570
C           -6.97729386136620        6.00341824181400        0.83892895129901
C           -4.63508998755534        5.30597587561695        0.45649371431852
C           -2.32392615313149        4.53490048074604        0.26671704315804
C            0.06264753243191        7.44054414760353        0.55397263966909
C            2.33480830490663        6.66162274894268        0.27358852332875
C           -4.14474113837396        6.61000263321240        0.63036976988350
C           -1.85760973017495        5.85897422390600        0.43332888800477
C            0.46177896195971        5.07475718308653        0.23831830456229
C           -8.78110621848377        4.64016082418294        0.10295022148371
C           -6.50389683581444        3.77729314982189       -0.02843793649263
C           -4.19354075007185        2.93504158677565        0.00655636236651
C           -6.00619438937873        1.34500198454230       -0.39210098401577
C           -7.78948583263153       -0.28881726670121       -0.69117699411981
C           -8.32869615032216        5.80396512936030        0.70596296827208
C           -6.04711437246329        5.03276380388278        0.43725764232694
C           -3.71812859504968        4.26356623938429        0.23972212334685
C           -1.39195289661048        3.47049559680559        0.13685007329149
C           -7.89207798588612        3.64266489681778       -0.24847664263468
C           -5.56823085446630        2.68759571189229       -0.18499026496072
C           -3.25117963019123        1.87164728592367       -0.03698642673359
C           -7.36400642530693        1.00898335704848       -0.66594519092669
C           -5.08634794743214        0.27426787420860       -0.27178592148294
C           -6.90670884287669       -1.36342914706136       -0.47404731211392
C            5.91240713876077        8.60767223207023       -0.14323780417480
C            3.71708240013230        6.94081833243507        0.15311166660925
C            6.05152466724136        6.14038859641907       -0.18134490115205
C            1.85604289895388        5.33544006505803        0.17797843182464
C            4.16377832121946        4.55707848397146       -0.05538229095767
C            6.46455518667142        3.73957657906495       -0.31375068696766
C           -0.00811495794363        3.73644546455966        0.13594553474779
C            2.31151117636531        2.93837495613135       -0.00414972764072
C            4.61301209231641        2.14362902576375       -0.19109984863496
C            6.90670884287669        1.36342914706137       -0.47404731211392
C            6.60237339844693        7.47189434767541       -0.27402087492891
C            4.63623390055073        5.90702556545073       -0.01663026824383
C            6.90533258232353        5.08489900351683       -0.31921948702167
C            2.78130092456793        4.27795376103348        0.03484549824106
C            5.07214698309414        3.47899508176298       -0.18597583251832
C            7.35062857160693        2.68615429915414       -0.46384018268989
C           -1.85863653004113        2.13686650425817        0.03613765831478
C            7.36400642530693       -1.00898335704848       -0.66594519092668
C           -0.06264753243191       -7.44054414760353        0.55397263966906
C            0.46043268324453        1.33813407466470        0.00789253215130
C           -6.90533258232353       -5.08489900351682       -0.31921948702167
C            2.77168338792871        0.53180512037875       -0.08065667748533
C           -4.63623390055074       -5.90702556545072       -0.01663026824380
C            5.08634794743215       -0.27426787420860       -0.27178592148294
C           -2.33480830490663       -6.66162274894267        0.27358852332875
C           -3.70012199247001        0.53937786553683       -0.12824968777695
C            5.56823085446630       -2.68759571189229       -0.18499026496073
C           -1.38766396950449       -0.26738164416881       -0.02369514014245
C            7.89207798588612       -3.64266489681779       -0.24847664263468
C            0.93069667183362       -1.07294913428983        0.00462703939591
C           -6.60237339844696       -7.47189434767540       -0.27402087492884
C            3.25117963019123       -1.87164728592367       -0.03698642673360
C           -5.52924893174101       -1.07366525061651       -0.31230982353295
C            3.71812859504968       -4.26356623938429        0.23972212334683
C           -3.22604335880136       -1.87224894233371       -0.09226240648262
C            6.04711437246329       -5.03276380388280        0.43725764232691
C           -0.92072158617065       -2.67248987727038        0.04315211883398
C            8.32869615032216       -5.80396512936032        0.70596296827201
C            1.39195289661048       -3.47049559680559        0.13685007329148
C           -7.35062857160693       -2.68615429915414       -0.46384018268989
C            1.85760973017495       -5.85897422390601        0.43332888800475
C           -5.07214698309414       -3.47899508176298       -0.18597583251832
C            4.14474113837396       -6.61000263321241        0.63036976988348
C           -2.78130092456793       -4.27795376103347        0.03484549824104
C           -0.46177896195971       -5.07475718308653        0.23831830456227
C            0.92072158617065        2.67248987727039        0.04315211883399
C           -6.46455518667142       -3.73957657906495       -0.31375068696765
C            2.80794709641744       -6.87924986786538        0.60398630303037
C            3.22604335880136        1.87224894233371       -0.09226240648261
C           -4.16377832121946       -4.55707848397145       -0.05538229095769
C            5.52924893174101        1.07366525061651       -0.31230982353294
C           -1.85604289895388       -5.33544006505803        0.17797843182461
C            7.78948583263153        0.28881726670121       -0.69117699411981
C            0.45140570349683       -6.13316027061630        0.40768275354567
C           -0.93069667183361        1.07294913428983        0.00462703939592
C            1.38766396950449        0.26738164416881       -0.02369514014244
C           -6.05152466724137       -6.14038859641906       -0.18134490115203
C            3.70012199247001       -0.53937786553683       -0.12824968777695
C           -3.71708240013230       -6.94081833243505        0.15311166660929
C            6.00619438937874       -1.34500198454230       -0.39210098401577
C           -1.39693715348993       -7.69307472786875        0.48715868771322
C           -2.77168338792871       -0.53180512037875       -0.08065667748534
C            6.50389683581444       -3.77729314982189       -0.02843793649265
C           -0.46043268324453       -1.33813407466470        0.00789253215129
C            8.78110621848379       -4.64016082418295        0.10295022148369
C            1.85863653004114       -2.13686650425817        0.03613765831477
C           -5.91240713876082       -8.60767223207022       -0.14323780417470
C            4.19354075007185       -2.93504158677566        0.00655636236649
C           -4.61301209231641       -2.14362902576375       -0.19109984863497
C            4.63508998755533       -5.30597587561696        0.45649371431850
C           -2.31151117636531       -2.93837495613135       -0.00414972764073
C            6.97729386136620       -6.00341824181403        0.83892895129895
C            0.00811495794363       -3.73644546455966        0.13594553474778
C            2.32392615313149       -4.53490048074604        0.26671704315802
H            1.75808732627367        8.70619541528158        0.61089423822737
H           -2.49331205871007        7.90340091859396        0.71656033225626
H           -6.63340100411179        6.92630367192292        1.27635316343264
H            3.69106298733365        9.17570075275189       -0.82666115019566
H           -0.60577719644959        8.26859300158593        0.72213667938647
H           -4.82902615854001        7.43351817670459        0.75167774611390
H           -9.83615984758054        4.49641690616039       -0.08819782885189
H           -8.83011854049967       -0.50469719610887       -0.89767184341061
H           -9.02955080181059        6.55654906615743        1.03505055142981
H            6.40490184208783        9.56719574464881       -0.24303955073512
H            7.65942526183111        7.51665366627903       -0.50968753102364
H            7.96347615375315        5.26747308009299       -0.44745937404493
H            8.40569313215711        2.88799756642699       -0.58277459932530
H            0.60577719644958       -8.26859300158594        0.72213667938642
H           -7.96347615375316       -5.26747308009298       -0.44745937404490
H           -7.65942526183111       -7.51665366627900       -0.50968753102375
H           -3.69106298733350       -9.17570075275211       -0.82666115019565
H            9.02955080181060       -6.55654906615744        1.03505055142976
H           -8.40569313215711       -2.88799756642698       -0.58277459932529
H            4.82902615854000       -7.43351817670461        0.75167774611386
H            2.49331205871007       -7.90340091859397        0.71656033225623
H            8.83011854049967        0.50469719610887       -0.89767184341061
H           -1.75808732627368       -8.70619541528158        0.61089423822733
H            9.83615984758055       -4.49641690616039       -0.08819782885191
H           -6.40490184208787       -9.56719574464881       -0.24303955073517
H            6.63340100411180       -6.92630367192293        1.27635316343260
H           -9.57728158577095        1.91029105956228       -0.31933904774988
H            9.57728158577093       -1.91029105956229       -0.31933904774984
P            8.55053738435895       -2.26080473636180       -1.20628694349911
P           -4.20118465394390       -8.68001893115023        0.38641402210190
P           -8.55053738435894        2.26080473636180       -1.20628694349911
P            4.20118465394393        8.68001893115021        0.38641402210207
 
 Bond Distances (Angstroems)
 ---------------------------
C1-C7=1.3596         C1-C8=1.4104         C1-H101=1.0827       C2-C9=1.3639         C2-C10=1.4047        C2-H102=1.0773       
C3-C7=1.4124         C3-C10=1.4329        C3-C11=1.4081        C4-C17=1.3725        C4-C18=1.4031        C4-H103=1.0776       
C5-C9=1.4040         C5-C18=1.4383        C5-C19=1.4051        C6-C10=1.4136        C6-C19=1.4206        C6-C20=1.4207        
C7-C1=1.3596         C7-C3=1.4124         C7-H105=1.0774       C8-C1=1.4104         C8-C28=1.4153        C8-C30=1.4132        
C9-C2=1.3639         C9-C5=1.4040         C9-H106=1.0776       C10-C2=1.4047        C10-C3=1.4329        C10-C6=1.4136        
C11-C3=1.4081        C11-C30=1.4197       C11-C33=1.4221       C12-C17=1.3866       C12-C21=1.3816       C12-H107=1.0818      
C13-C18=1.4148       C13-C21=1.4119       C13-C22=1.4448       C14-C19=1.4302       C14-C22=1.4099       C14-C23=1.4215       
C15-C22=1.4273       C15-C24=1.4253       C15-C25=1.4167       C16-C24=1.3660       C16-C26=1.4076       C16-H108=1.0827      
C17-C4=1.3725        C17-C12=1.3866       C17-H109=1.0798      C18-C4=1.4031        C18-C5=1.4383        C18-C13=1.4148       
C19-C5=1.4051        C19-C6=1.4206        C19-C14=1.4302       C20-C6=1.4207        C20-C33=1.4092       C20-C43=1.4165       
C21-C12=1.3816       C21-C13=1.4119       C21-P131=1.8057      C22-C13=1.4448       C22-C14=1.4099       C22-C15=1.4273       
C23-C14=1.4215       C23-C43=1.4195       C23-C52=1.4088       C24-C15=1.4253       C24-C16=1.3660       C24-P131=1.8075      
C25-C15=1.4167       C25-C52=1.4186       C25-C59=1.4194       C26-C16=1.4076       C26-C59=1.4169       C26-C66=1.3953       
C27-C37=1.3353       C27-H110=1.0831      C27-P132=1.7928      C28-C8=1.4153        C28-C38=1.3937       C28-P132=1.8203      
C29-C37=1.4439       C29-C38=1.4438       C29-C39=1.3646       C30-C8=1.4132        C30-C11=1.4197       C30-C40=1.4124       
C31-C38=1.4308       C31-C40=1.4133       C31-C41=1.4158       C32-C39=1.4157       C32-C41=1.4223       C32-C42=1.3847       
C33-C11=1.4221       C33-C20=1.4092       C33-C72=1.4154       C34-C40=1.4201       C34-C72=1.4168       C34-C75=1.4074       
C35-C41=1.4121       C35-C75=1.4167       C35-C77=1.4139       C36-C42=1.3953       C36-C77=1.4169       C36-C79=1.4076       
C37-C27=1.3353       C37-C29=1.4439       C37-H111=1.0839      C38-C28=1.3937       C38-C29=1.4438       C38-C31=1.4308       
C39-C29=1.3646       C39-C32=1.4157       C39-H112=1.0814      C40-C30=1.4124       C40-C31=1.4133       C40-C34=1.4201       
C41-C31=1.4158       C41-C32=1.4223       C41-C35=1.4121       C42-C32=1.3847       C42-C36=1.3953       C42-H113=1.0808      
C43-C20=1.4165       C43-C23=1.4195       C43-C81=1.4121       C44-C79=1.3660       C44-C86=1.4253       C44-P129=1.8075      
C45-C80=1.4124       C45-C87=1.3596       C45-H114=1.0774      C46-C72=1.4120       C46-C81=1.4162       C46-C82=1.4168       
C47-C73=1.4157       C47-C83=1.3646       C47-H115=1.0814      C48-C75=1.4154       C48-C82=1.4102       C48-C84=1.4183       
C49-C76=1.4308       C49-C83=1.4438       C49-C85=1.3937       C50-C77=1.4194       C50-C84=1.4186       C50-C86=1.4167       
C51-C78=1.4132       C51-C85=1.4153       C51-C87=1.4104       C52-C23=1.4088       C52-C25=1.4186       C52-C88=1.4183       
C53-C86=1.4273       C53-C89=1.4448       C53-C94=1.4099       C54-C81=1.4164       C54-C88=1.4102       C54-C90=1.4168       
C55-C89=1.4119       C55-C91=1.3816       C55-P129=1.8057      C56-C82=1.4164       C56-C90=1.4162       C56-C92=1.4121       
C57-C83=1.4439       C57-C93=1.3353       C57-H116=1.0839      C58-C84=1.4088       C58-C92=1.4195       C58-C94=1.4215       
C59-C25=1.4194       C59-C26=1.4169       C59-C95=1.4139       C60-C94=1.4302       C60-C96=1.4051       C60-C100=1.4206      
C61-C88=1.4154       C61-C95=1.4167       C61-C97=1.4074       C62-C89=1.4148       C62-C96=1.4383       C62-C98=1.4031       
C63-C90=1.4120       C63-C97=1.4168       C63-C99=1.4154       C64-C91=1.3866       C64-C98=1.3725       C64-H118=1.0798      
C65-C92=1.4165       C65-C99=1.4092       C65-C100=1.4207      C66-C26=1.3953       C66-C73=1.3847       C66-H119=1.0808      
C67-C74=1.4047       C67-C80=1.4329       C67-C100=1.4136      C68-C73=1.4223       C68-C76=1.4158       C68-C95=1.4121       
C69-C74=1.3639       C69-C96=1.4040       C69-H120=1.0776      C70-C76=1.4133       C70-C78=1.4124       C70-C97=1.4201       
C71-C78=1.4197       C71-C80=1.4081       C71-C99=1.4221       C72-C33=1.4154       C72-C34=1.4168       C72-C46=1.4120       
C73-C47=1.4157       C73-C66=1.3847       C73-C68=1.4223       C74-C67=1.4047       C74-C69=1.3639       C74-H121=1.0773      
C75-C34=1.4074       C75-C35=1.4167       C75-C48=1.4154       C76-C49=1.4308       C76-C68=1.4158       C76-C70=1.4133       
C77-C35=1.4139       C77-C36=1.4169       C77-C50=1.4194       C78-C51=1.4132       C78-C70=1.4124       C78-C71=1.4197       
C79-C36=1.4076       C79-C44=1.3660       C79-H122=1.0827      C80-C45=1.4124       C80-C67=1.4329       C80-C71=1.4081       
C81-C43=1.4121       C81-C46=1.4162       C81-C54=1.4164       C82-C46=1.4168       C82-C48=1.4102       C82-C56=1.4164       
C83-C47=1.3646       C83-C49=1.4438       C83-C57=1.4439       C84-C48=1.4183       C84-C50=1.4186       C84-C58=1.4088       
C85-C49=1.3937       C85-C51=1.4153       C85-P130=1.8203      C86-C44=1.4253       C86-C50=1.4167       C86-C53=1.4273       
C87-C45=1.3596       C87-C51=1.4104       C87-H123=1.0827      C88-C52=1.4183       C88-C54=1.4102       C88-C61=1.4154       
C89-C53=1.4448       C89-C55=1.4119       C89-C62=1.4148       C90-C54=1.4168       C90-C56=1.4162       C90-C63=1.4120       
C91-C55=1.3816       C91-C64=1.3866       C91-H124=1.0818      C92-C56=1.4121       C92-C58=1.4195       C92-C65=1.4165       
C93-C57=1.3353       C93-H125=1.0831      C93-P130=1.7928      C94-C53=1.4099       C94-C58=1.4215       C94-C60=1.4302       
C95-C59=1.4139       C95-C61=1.4167       C95-C68=1.4121       C96-C60=1.4051       C96-C62=1.4383       C96-C69=1.4040       
C97-C61=1.4074       C97-C63=1.4168       C97-C70=1.4201       C98-C62=1.4031       C98-C64=1.3725       C98-H126=1.0776      
C99-C63=1.4154       C99-C65=1.4092       C99-C71=1.4221       C100-C60=1.4206      C100-C65=1.4207      C100-C67=1.4136      
H101-C1=1.0827       H102-C2=1.0773       H103-C4=1.0776       H104-P132=1.4062     H105-C7=1.0774       H106-C9=1.0776       
H107-C12=1.0818      H108-C16=1.0827      H109-C17=1.0798      H110-C27=1.0831      H111-C37=1.0839      H112-C39=1.0814      
H113-C42=1.0808      H114-C45=1.0774      H115-C47=1.0814      H116-C57=1.0839      H117-P130=1.4062     H118-C64=1.0798      
H119-C66=1.0808      H120-C69=1.0776      H121-C74=1.0773      H122-C79=1.0827      H123-C87=1.0827      H124-C91=1.0818      
H125-C93=1.0831      H126-C98=1.0776      H127-P131=1.4013     H128-P129=1.4013     P129-C44=1.8075      P129-C55=1.8057      
P129-H128=1.4013     P130-C85=1.8203      P130-C93=1.7928      P130-H117=1.4062     P131-C21=1.8057      P131-C24=1.8075      
P131-H127=1.4013     P132-C27=1.7928      P132-C28=1.8203      P132-H104=1.4062     
 C  H  Rav=1.0805 sigma=0.0024  Rmin=1.0773  Rmax=1.0839    24
 C  C  Rav=1.4102 sigma=0.0198  Rmin=1.3353  Rmax=1.4448   134
 P  H  Rav=1.4038 sigma=0.0024  Rmin=1.4013  Rmax=1.4062     4
 P  C  Rav=1.8066 sigma=0.0098  Rmin=1.7928  Rmax=1.8203     8
 
 selected bond angles (degree)
 --------------------
C8-C1-C7=121.61                H101-C1-C7=119.71              H101-C1-C8=118.68              C10-C2-C9=121.47               
H102-C2-C9=118.16              H102-C2-C10=120.37             C10-C3-C7=122.17               C11-C3-C7=118.18               
C11-C3-C10=119.65              C18-C4-C17=121.63              H103-C4-C17=118.55             H103-C4-C18=119.81             
C18-C5-C9=121.40               C19-C5-C9=118.70               C19-C5-C18=119.85              C19-C6-C10=120.32              
C20-C6-C10=119.74              C20-C6-C19=119.93              C3-C7-C1=121.60                H105-C7-C1=118.28              
H105-C7-C3=120.12              C28-C8-C1=121.20               C30-C8-C1=118.12               C30-C8-C28=120.68              
C5-C9-C2=121.55                H106-C9-C2=118.28              H106-C9-C5=120.13              C3-C10-C2=121.81               
C6-C10-C2=118.13               C6-C10-C3=120.06               
 
 selected dihedral angles (degree)
 ---------------------------------
C3-C7-C1-C8=359.75            C3-C7-C1-H101=180.45          H105-C7-C1-C8=179.81          H105-C7-C1-H101=  0.51        
C1-C7-C3-C10=182.03           C1-C7-C3-C11=  2.34           H105-C7-C3-C10=  1.97         H105-C7-C3-C11=182.28         
C28-C8-C1-C7=177.49           C28-C8-C1-H101=356.80         C30-C8-C1-C7=357.70           C30-C8-C1-H101=177.01         
C5-C9-C2-C10=358.46           C5-C9-C2-H102=178.36          H106-C9-C2-C10=180.76         H106-C9-C2-H102=  0.66        
C2-C9-C5-C18=182.25           C2-C9-C5-C19=359.46           H106-C9-C5-C18=359.91         H106-C9-C5-C19=177.11         
C3-C10-C2-C9=180.15           C3-C10-C2-H102=  0.25         C6-C10-C2-C9=  0.98           C6-C10-C2-H102=181.09         
C2-C10-C3-C7=  0.10           C2-C10-C3-C11=179.79          C6-C10-C3-C7=179.25           C6-C10-C3-C11=358.94          
C2-C10-C6-C19=  1.61          C2-C10-C6-C20=182.13          C3-C10-C6-C19=182.43          C3-C10-C6-C20=  2.95          
           -------------------------------------------------
          |                Final Singlepoint                |
           -------------------------------------------------

          ...................................................
          :                      SETUP                      :
          :.................................................:
          :  # basis functions                 468          :
          :  # atomic orbitals                 464          :
          :  # shells                          240          :
          :  # electrons                       448          :
          :  max. iterations                   250          :
          :  Hamiltonian                  GFN2-xTB          :
          :  restarted?                      false          :
          :  GBSA solvation                  false          :
          :  PC potential                    false          :
          :  electronic temp.          300.0000000     K    :
          :  accuracy                    1.0000000          :
          :  -> integral cutoff          0.2500000E+02      :
          :  -> integral neglect         0.1000000E-07      :
          :  -> SCF convergence          0.1000000E-05 Eh   :
          :  -> wf. convergence          0.1000000E-03 e    :
          :  Broyden damping             0.4000000          :
          :  net charge                          0          :
          :  unpaired electrons                  0          :
          ...................................................

 iter      E             dE          RMSdq      gap      omega  full diag
   1   -243.7709109 -0.243771E+03  0.485E-05    1.11       0.0  T
   2   -243.7709109  0.980549E-11  0.306E-05    1.11     284.2  T
   3   -243.7709109 -0.156319E-10  0.247E-05    1.11     352.0  T

   *** convergence criteria satisfied after 3 iterations ***

         #    Occupation            Energy/Eh            Energy/eV
      -------------------------------------------------------------
         1        2.0000           -0.6733334             -18.3223
       ...           ...                  ...                  ...
       218        2.0000           -0.3803401             -10.3496
       219        2.0000           -0.3796617             -10.3311
       220        2.0000           -0.3722784             -10.1302
       221        2.0000           -0.3670161              -9.9870
       222        2.0000           -0.3591191              -9.7721
       223        2.0000           -0.3557091              -9.6793
       224        2.0000           -0.3467123              -9.4345 (HOMO)
       225                         -0.3060375              -8.3277 (LUMO)
       226                         -0.2961648              -8.0591
       227                         -0.2888310              -7.8595
       228                         -0.2763702              -7.5204
       229                         -0.2704110              -7.3583
       ...                                ...                  ...
       464                          1.0037618              27.3138
      -------------------------------------------------------------
                  HL-Gap            0.0406748 Eh            1.1068 eV
             Fermi-level           -0.3263748 Eh           -8.8811 eV

 SCC (total)                   0 d,  0 h,  0 min,  0.415 sec
 SCC setup                      ...        0 min,  0.003 sec (  0.723%)
 Dispersion                     ...        0 min,  0.004 sec (  0.964%)
 classical contributions        ...        0 min,  0.001 sec (  0.241%)
 integral evaluation            ...        0 min,  0.043 sec ( 10.361%)
 iterations                     ...        0 min,  0.186 sec ( 44.819%)
 molecular gradient             ...        0 min,  0.173 sec ( 41.687%)
 printout                       ...        0 min,  0.005 sec (  1.205%)

         :::::::::::::::::::::::::::::::::::::::::::::::::::::
         ::                     SUMMARY                     ::
         :::::::::::::::::::::::::::::::::::::::::::::::::::::
         :: total energy            -239.216898243039 Eh    ::
         :: gradient norm              0.000298624056 Eh/a0 ::
         :: HOMO-LUMO gap              1.106817575195 eV    ::
         ::.................................................::
         :: SCC energy              -243.778581252388 Eh    ::
         :: -> isotropic ES            0.003622734233 Eh    ::
         :: -> anisotropic ES          0.008463938308 Eh    ::
         :: -> anisotropic XC          0.088049689045 Eh    ::
         :: -> dispersion             -0.300569226841 Eh    ::
         :: repulsion energy           4.561683009349 Eh    ::
         :: add. restraining           0.000000000000 Eh    ::
         :: total charge               0.000000000000 e     ::
         :::::::::::::::::::::::::::::::::::::::::::::::::::::

           -------------------------------------------------
          |                Property Printout                |
           -------------------------------------------------

    * Orbital Energies and Occupations

         #    Occupation            Energy/Eh            Energy/eV
      -------------------------------------------------------------
         1        2.0000           -0.6733334             -18.3223
       ...           ...                  ...                  ...
       212        2.0000           -0.3926224             -10.6838
       213        2.0000           -0.3908526             -10.6356
       214        2.0000           -0.3896875             -10.6039
       215        2.0000           -0.3883940             -10.5687
       216        2.0000           -0.3856292             -10.4935
       217        2.0000           -0.3831060             -10.4248
       218        2.0000           -0.3803401             -10.3496
       219        2.0000           -0.3796617             -10.3311
       220        2.0000           -0.3722784             -10.1302
       221        2.0000           -0.3670161              -9.9870
       222        2.0000           -0.3591191              -9.7721
       223        2.0000           -0.3557091              -9.6793
       224        2.0000           -0.3467123              -9.4345 (HOMO)
       225                         -0.3060375              -8.3277 (LUMO)
       226                         -0.2961648              -8.0591
       227                         -0.2888310              -7.8595
       228                         -0.2763702              -7.5204
       229                         -0.2704110              -7.3583
       230                         -0.2685057              -7.3064
       231                         -0.2651130              -7.2141
       232                         -0.2623205              -7.1381
       233                         -0.2554801              -6.9520
       234                         -0.2548245              -6.9341
       235                         -0.2454591              -6.6793
       ...                                ...                  ...
       464                          1.0037618              27.3138
      -------------------------------------------------------------
                  HL-Gap            0.0406748 Eh            1.1068 eV
             Fermi-level           -0.3263748 Eh           -8.8811 eV

     #   Z          covCN         q      C6AA      α(0)
     1   6 C        2.931    -0.035    28.865     8.811
     2   6 C        2.919    -0.037    28.910     8.817
     3   6 C        2.980     0.006    27.892     8.663
     4   6 C        2.925    -0.037    28.923     8.820
     5   6 C        2.983     0.005    27.913     8.666
     6   6 C        2.990     0.002    27.984     8.678
     7   6 C        2.917    -0.035    28.859     8.809
     8   6 C        3.083     0.004    27.843     8.650
     9   6 C        2.919    -0.037    28.917     8.818
    10   6 C        2.981     0.005    27.906     8.665
    11   6 C        2.991     0.002    27.974     8.676
    12   6 C        3.041    -0.034    28.814     8.804
    13   6 C        3.044     0.005    27.872     8.659
    14   6 C        2.984    -0.001    28.040     8.686
    15   6 C        3.034     0.003    27.924     8.668
    16   6 C        3.054    -0.042    28.990     8.830
    17   6 C        2.915    -0.030    28.753     8.793
    18   6 C        2.985     0.006    27.877     8.661
    19   6 C        2.989     0.002    27.980     8.677
    20   6 C        2.988     0.000    28.013     8.682
    21   6 C        2.921     0.005    27.904     8.663
    22   6 C        2.973     0.002    27.981     8.677
    23   6 C        2.987     0.000    28.018     8.683
    24   6 C        2.915     0.004    27.936     8.667
    25   6 C        2.989     0.001    28.003     8.680
    26   6 C        2.982     0.011    27.766     8.644
    27   6 C        2.839    -0.031    28.764     8.789
    28   6 C        2.916    -0.002    28.070     8.688
    29   6 C        2.967     0.012    27.747     8.640
    30   6 C        2.993     0.001    27.995     8.679
    31   6 C        2.987    -0.001    28.034     8.685
    32   6 C        2.978     0.011    27.758     8.642
    33   6 C        2.988    -0.000    28.031     8.685
    34   6 C        2.989    -0.000    28.027     8.684
    35   6 C        2.990     0.001    27.995     8.679
    36   6 C        2.982     0.011    27.766     8.644
    37   6 C        2.994    -0.028    28.689     8.786
    38   6 C        3.027     0.007    27.841     8.655
    39   6 C        2.930    -0.045    29.110     8.848
    40   6 C        2.989    -0.001    28.038     8.686
    41   6 C        2.993     0.001    28.005     8.681
    42   6 C        2.925    -0.045    29.109     8.848
    43   6 C        2.988    -0.000    28.026     8.684
    44   6 C        2.915     0.004    27.936     8.667
    45   6 C        2.917    -0.035    28.859     8.809
    46   6 C        2.990    -0.000    28.027     8.684
    47   6 C        2.930    -0.045    29.110     8.848
    48   6 C        2.989    -0.000    28.029     8.684
    49   6 C        3.027     0.007    27.841     8.655
    50   6 C        2.989     0.001    28.003     8.680
    51   6 C        3.083     0.004    27.843     8.650
    52   6 C        2.989    -0.000    28.021     8.683
    53   6 C        2.973     0.002    27.981     8.677
    54   6 C        2.990    -0.000    28.025     8.684
    55   6 C        2.921     0.005    27.904     8.663
    56   6 C        2.990    -0.000    28.022     8.683
    57   6 C        2.994    -0.028    28.689     8.786
    58   6 C        2.987     0.000    28.018     8.683
    59   6 C        2.994    -0.001    28.037     8.686
    60   6 C        2.989     0.002    27.980     8.677
    61   6 C        2.991     0.000    28.015     8.682
    62   6 C        2.985     0.006    27.877     8.661
    63   6 C        2.990    -0.000    28.024     8.684
    64   6 C        2.915    -0.030    28.753     8.793
    65   6 C        2.988     0.000    28.013     8.682
    66   6 C        2.925    -0.045    29.109     8.848
    67   6 C        2.981     0.005    27.906     8.665
    68   6 C        2.993     0.001    28.005     8.681
    69   6 C        2.919    -0.037    28.917     8.818
    70   6 C        2.989    -0.001    28.038     8.686
    71   6 C        2.991     0.002    27.974     8.676
    72   6 C        2.990    -0.000    28.024     8.684
    73   6 C        2.978     0.011    27.758     8.642
    74   6 C        2.919    -0.037    28.910     8.817
    75   6 C        2.991     0.000    28.015     8.682
    76   6 C        2.987    -0.001    28.034     8.685
    77   6 C        2.994    -0.001    28.037     8.686
    78   6 C        2.993     0.001    27.995     8.679
    79   6 C        3.054    -0.042    28.990     8.830
    80   6 C        2.980     0.006    27.892     8.663
    81   6 C        2.990    -0.000    28.022     8.683
    82   6 C        2.990    -0.000    28.025     8.684
    83   6 C        2.967     0.012    27.747     8.640
    84   6 C        2.989    -0.000    28.021     8.683
    85   6 C        2.916    -0.002    28.070     8.688
    86   6 C        3.034     0.003    27.924     8.668
    87   6 C        2.931    -0.035    28.865     8.811
    88   6 C        2.989    -0.000    28.029     8.684
    89   6 C        3.044     0.005    27.872     8.659
    90   6 C        2.990    -0.000    28.027     8.684
    91   6 C        3.041    -0.034    28.814     8.804
    92   6 C        2.988    -0.000    28.026     8.684
    93   6 C        2.839    -0.031    28.764     8.789
    94   6 C        2.984    -0.001    28.040     8.686
    95   6 C        2.990     0.001    27.995     8.679
    96   6 C        2.983     0.005    27.913     8.666
    97   6 C        2.989    -0.000    28.027     8.684
    98   6 C        2.925    -0.037    28.923     8.820
    99   6 C        2.988    -0.000    28.031     8.685
   100   6 C        2.990     0.002    27.984     8.678
   101   1 H        0.926     0.053     2.277     2.359
   102   1 H        0.926     0.035     2.521     2.483
   103   1 H        0.926     0.036     2.498     2.471
   104   1 H        0.976     0.049     2.325     2.383
   105   1 H        0.926     0.036     2.504     2.475
   106   1 H        0.926     0.035     2.520     2.483
   107   1 H        0.925     0.035     2.512     2.478
   108   1 H        0.925     0.035     2.510     2.478
   109   1 H        0.926     0.033     2.545     2.495
   110   1 H        0.926     0.042     2.419     2.432
   111   1 H        0.925     0.033     2.546     2.495
   112   1 H        0.925     0.031     2.568     2.506
   113   1 H        0.926     0.033     2.548     2.496
   114   1 H        0.926     0.036     2.504     2.475
   115   1 H        0.925     0.031     2.568     2.506
   116   1 H        0.925     0.033     2.546     2.495
   117   1 H        0.976     0.049     2.325     2.383
   118   1 H        0.926     0.033     2.545     2.495
   119   1 H        0.926     0.033     2.548     2.496
   120   1 H        0.926     0.035     2.520     2.483
   121   1 H        0.926     0.035     2.521     2.483
   122   1 H        0.925     0.035     2.510     2.478
   123   1 H        0.926     0.053     2.277     2.359
   124   1 H        0.925     0.035     2.512     2.478
   125   1 H        0.926     0.042     2.419     2.432
   126   1 H        0.926     0.036     2.498     2.471
   127   1 H        0.977     0.048     2.335     2.388
   128   1 H        0.977     0.048     2.335     2.388
   129  15 P        3.216    -0.085   164.051    23.008
   130  15 P        3.091    -0.103   164.900    23.068
   131  15 P        3.216    -0.085   164.051    23.008
   132  15 P        3.091    -0.103   164.900    23.068

 Mol. C6AA /au·bohr⁶  :     391613.181538
 Mol. C8AA /au·bohr⁸  :   11472299.528800
 Mol. α(0) /au        :       1031.754292


Wiberg/Mayer (AO) data.
largest (>0.10) Wiberg bond orders for each atom

 ---------------------------------------------------------------------------
     #   Z sym  total        # sym  WBO       # sym  WBO       # sym  WBO
 ---------------------------------------------------------------------------
     1   6 C    3.951 --     7 C    1.573     8 C    1.258   101 H    0.936
     2   6 C    3.962 --     9 C    1.536    10 C    1.298   102 H    0.960
     3   6 C    3.944 --    11 C    1.298     7 C    1.269    10 C    1.183
     4   6 C    3.984 --    17 C    1.490    18 C    1.335   103 H    0.961
                            21 C    0.100
     5   6 C    3.962 --    19 C    1.308     9 C    1.300    18 C    1.151
     6   6 C    3.976 --    10 C    1.280    19 C    1.250    20 C    1.222
     7   6 C    3.972 --     1 C    1.573     3 C    1.269   105 H    0.960
     8   6 C    3.971 --    28 C    1.260     1 C    1.258    30 C    1.254
     9   6 C    3.965 --     2 C    1.536     5 C    1.300   106 H    0.961
    10   6 C    3.960 --     2 C    1.298     6 C    1.280     3 C    1.183
    11   6 C    3.980 --     3 C    1.298    30 C    1.240    33 C    1.216
    12   6 C    3.979 --    21 C    1.446    17 C    1.383   107 H    0.962
    13   6 C    3.977 --    21 C    1.287    18 C    1.287    22 C    1.167
    14   6 C    3.970 --    22 C    1.319    23 C    1.232    19 C    1.195
    15   6 C    3.948 --    25 C    1.274    22 C    1.236    24 C    1.213
    16   6 C    3.952 --    24 C    1.532    26 C    1.247   108 H    0.958
    17   6 C    3.976 --     4 C    1.490    12 C    1.383   109 H    0.969
    18   6 C    3.974 --     4 C    1.335    13 C    1.287     5 C    1.151
    19   6 C    3.983 --     5 C    1.308     6 C    1.250    14 C    1.195
    20   6 C    3.962 --    33 C    1.281    43 C    1.239     6 C    1.222
    21   6 C    3.971 --    12 C    1.446    13 C    1.287   131 P    1.040
                             4 C    0.100
    22   6 C    3.948 --    14 C    1.319    15 C    1.236    13 C    1.167
    23   6 C    3.964 --    52 C    1.277    43 C    1.235    14 C    1.232
    24   6 C    3.961 --    16 C    1.532    15 C    1.213   131 P    1.037
    25   6 C    3.975 --    15 C    1.274    59 C    1.245    52 C    1.231
    26   6 C    3.971 --    66 C    1.329    16 C    1.247    59 C    1.232
    27   6 C    3.957 --    37 C    1.769   132 P    1.090   110 H    0.951
    28   6 C    3.911 --    38 C    1.386     8 C    1.260   132 P    1.045
    29   6 C    3.970 --    39 C    1.544    38 C    1.148    37 C    1.127
    30   6 C    3.977 --     8 C    1.254    40 C    1.253    11 C    1.240
    31   6 C    3.966 --    40 C    1.270    41 C    1.256    38 C    1.216
    32   6 C    3.972 --    42 C    1.393    39 C    1.217    41 C    1.207
    33   6 C    3.961 --    20 C    1.281    72 C    1.246    11 C    1.216
    34   6 C    3.963 --    75 C    1.280    72 C    1.239    40 C    1.225
    35   6 C    3.978 --    41 C    1.272    77 C    1.258    75 C    1.225
    36   6 C    3.971 --    42 C    1.329    79 C    1.247    77 C    1.232
    37   6 C    3.988 --    27 C    1.769    29 C    1.127   111 H    0.959
    38   6 C    3.973 --    28 C    1.386    31 C    1.216    29 C    1.148
    39   6 C    3.975 --    29 C    1.544    32 C    1.217   112 H    0.965
    40   6 C    3.978 --    31 C    1.270    30 C    1.253    34 C    1.225
    41   6 C    3.962 --    35 C    1.272    31 C    1.256    32 C    1.207
    42   6 C    3.894 --    32 C    1.393    36 C    1.329   113 H    0.966
    43   6 C    3.957 --    81 C    1.269    20 C    1.239    23 C    1.235
    44   6 C    3.961 --    79 C    1.532    86 C    1.213   129 P    1.037
    45   6 C    3.972 --    87 C    1.573    80 C    1.269   114 H    0.960
    46   6 C    3.964 --    72 C    1.262    82 C    1.242    81 C    1.242
    47   6 C    3.975 --    83 C    1.544    73 C    1.217   115 H    0.965
    48   6 C    3.961 --    82 C    1.267    75 C    1.240    84 C    1.236
    49   6 C    3.973 --    85 C    1.386    76 C    1.216    83 C    1.148
    50   6 C    3.975 --    86 C    1.274    77 C    1.245    84 C    1.231
    51   6 C    3.971 --    85 C    1.260    87 C    1.258    78 C    1.254
    52   6 C    3.966 --    23 C    1.277    88 C    1.236    25 C    1.231
    53   6 C    3.948 --    94 C    1.319    86 C    1.236    89 C    1.167
    54   6 C    3.962 --    88 C    1.267    90 C    1.242    81 C    1.236
    55   6 C    3.971 --    91 C    1.446    89 C    1.287   129 P    1.040
                            98 C    0.100
    56   6 C    3.964 --    92 C    1.269    90 C    1.242    82 C    1.236
    57   6 C    3.988 --    93 C    1.769    83 C    1.127   116 H    0.959
    58   6 C    3.964 --    84 C    1.277    92 C    1.235    94 C    1.232
    59   6 C    3.967 --    95 C    1.258    25 C    1.245    26 C    1.232
    60   6 C    3.983 --    96 C    1.308   100 C    1.250    94 C    1.195
    61   6 C    3.963 --    97 C    1.280    88 C    1.240    95 C    1.225
    62   6 C    3.974 --    98 C    1.335    89 C    1.287    96 C    1.151
    63   6 C    3.962 --    90 C    1.262    99 C    1.246    97 C    1.239
    64   6 C    3.976 --    98 C    1.490    91 C    1.383   118 H    0.969
    65   6 C    3.962 --    99 C    1.281    92 C    1.239   100 C    1.222
    66   6 C    3.894 --    73 C    1.393    26 C    1.329   119 H    0.966
    67   6 C    3.960 --    74 C    1.298   100 C    1.280    80 C    1.183
    68   6 C    3.962 --    95 C    1.272    76 C    1.256    73 C    1.207
    69   6 C    3.965 --    74 C    1.536    96 C    1.300   120 H    0.961
    70   6 C    3.978 --    76 C    1.270    78 C    1.253    97 C    1.225
    71   6 C    3.980 --    80 C    1.298    78 C    1.240    99 C    1.216
    72   6 C    3.962 --    46 C    1.262    33 C    1.246    34 C    1.239
    73   6 C    3.972 --    66 C    1.393    47 C    1.217    68 C    1.207
    74   6 C    3.962 --    69 C    1.536    67 C    1.298   121 H    0.960
    75   6 C    3.963 --    34 C    1.280    48 C    1.240    35 C    1.225
    76   6 C    3.966 --    70 C    1.270    68 C    1.256    49 C    1.216
    77   6 C    3.967 --    35 C    1.258    50 C    1.245    36 C    1.232
    78   6 C    3.977 --    51 C    1.254    70 C    1.253    71 C    1.240
    79   6 C    3.952 --    44 C    1.532    36 C    1.247   122 H    0.958
    80   6 C    3.944 --    71 C    1.298    45 C    1.269    67 C    1.183
    81   6 C    3.964 --    43 C    1.269    46 C    1.242    54 C    1.236
    82   6 C    3.962 --    48 C    1.267    46 C    1.242    56 C    1.236
    83   6 C    3.970 --    47 C    1.544    49 C    1.148    57 C    1.127
    84   6 C    3.966 --    58 C    1.277    48 C    1.236    50 C    1.231
    85   6 C    3.911 --    49 C    1.386    51 C    1.260   130 P    1.045
    86   6 C    3.948 --    50 C    1.274    53 C    1.236    44 C    1.213
    87   6 C    3.951 --    45 C    1.573    51 C    1.258   123 H    0.936
    88   6 C    3.961 --    54 C    1.267    61 C    1.240    52 C    1.236
    89   6 C    3.977 --    55 C    1.287    62 C    1.287    53 C    1.167
    90   6 C    3.964 --    63 C    1.262    54 C    1.242    56 C    1.242
    91   6 C    3.979 --    55 C    1.446    64 C    1.383   124 H    0.962
    92   6 C    3.957 --    56 C    1.269    65 C    1.239    58 C    1.235
    93   6 C    3.957 --    57 C    1.769   130 P    1.090   125 H    0.951
    94   6 C    3.970 --    53 C    1.319    58 C    1.232    60 C    1.195
    95   6 C    3.978 --    68 C    1.272    59 C    1.258    61 C    1.225
    96   6 C    3.962 --    60 C    1.308    69 C    1.300    62 C    1.151
    97   6 C    3.963 --    61 C    1.280    63 C    1.239    70 C    1.225
    98   6 C    3.984 --    64 C    1.490    62 C    1.335   126 H    0.961
                            55 C    0.100
    99   6 C    3.961 --    65 C    1.281    63 C    1.246    71 C    1.216
   100   6 C    3.976 --    67 C    1.280    60 C    1.250    65 C    1.222
   101   1 H    0.996 --     1 C    0.936
   102   1 H    0.997 --     2 C    0.960
   103   1 H    0.998 --     4 C    0.961
   104   1 H    0.985 --   132 P    0.918
   105   1 H    0.998 --     7 C    0.960
   106   1 H    0.998 --     9 C    0.961
   107   1 H    0.998 --    12 C    0.962
   108   1 H    0.998 --    16 C    0.958
   109   1 H    0.998 --    17 C    0.969
   110   1 H    0.997 --    27 C    0.951
   111   1 H    0.998 --    37 C    0.959
   112   1 H    0.998 --    39 C    0.965
   113   1 H    0.998 --    42 C    0.966
   114   1 H    0.998 --    45 C    0.960
   115   1 H    0.998 --    47 C    0.965
   116   1 H    0.998 --    57 C    0.959
   117   1 H    0.985 --   130 P    0.918
   118   1 H    0.998 --    64 C    0.969
   119   1 H    0.998 --    66 C    0.966
   120   1 H    0.998 --    69 C    0.961
   121   1 H    0.997 --    74 C    0.960
   122   1 H    0.998 --    79 C    0.958
   123   1 H    0.996 --    87 C    0.936
   124   1 H    0.998 --    91 C    0.962
   125   1 H    0.997 --    93 C    0.951
   126   1 H    0.998 --    98 C    0.961
   127   1 H    0.993 --   131 P    0.941
   128   1 H    0.993 --   129 P    0.941
   129  15 P    3.306 --    55 C    1.040    44 C    1.037   128 H    0.941
   130  15 P    3.369 --    93 C    1.090    85 C    1.045   117 H    0.918
   131  15 P    3.306 --    21 C    1.040    24 C    1.037   127 H    0.941
   132  15 P    3.369 --    27 C    1.090    28 C    1.045   104 H    0.918
 ---------------------------------------------------------------------------

Topologies differ in total number of bonds
Writing topology from bond orders to xtbtopo.mol

molecular dipole:
                 x           y           z       tot (Debye)
 q only:        0.000       0.000       0.132
   full:        0.000       0.000       0.195       0.495
molecular quadrupole (traceless):
                xx          xy          yy          xz          yz          zz
 q only:        5.928      -6.063      16.201       0.000       0.000     -22.129
  q+dip:       37.728      -2.263      28.975       0.000       0.000     -66.703
   full:       19.598      -1.298      12.587       0.000       0.000     -32.185

           -------------------------------------------------
          |                Geometry Summary                 |
           -------------------------------------------------

      molecular mass/u    :     1353.1909790
   center of mass at/Å    :        0.0000000      -0.0000000      -0.0067463
  moments of inertia/u·Å² :        0.3053958E+05   0.3518843E+05   0.6521957E+05
rotational constants/cm⁻¹ :        0.5519930E-03   0.4790675E-03   0.2584751E-03

 * 160 selected distances

     #   Z          #   Z                                           value/Å
     1   6 C        7   6 C                                       1.3596194
     3   6 C        7   6 C                                       1.4124109
     1   6 C        8   6 C                                       1.4103574
     2   6 C        9   6 C                                       1.3638947
     5   6 C        9   6 C                                       1.4039804
     2   6 C       10   6 C                                       1.4047163
     3   6 C       10   6 C                                       1.4329152
     6   6 C       10   6 C                                       1.4136415
     3   6 C       11   6 C                                       1.4081222
     4   6 C       17   6 C                                       1.3724977
    12   6 C       17   6 C                                       1.3866290
     4   6 C       18   6 C                                       1.4031194
    13   6 C       18   6 C                                       1.4148249
     5   6 C       19   6 C                                       1.4051428
     6   6 C       19   6 C                                       1.4206167
    14   6 C       19   6 C                                       1.4301612
     6   6 C       20   6 C                                       1.4207032
    12   6 C       21   6 C                                       1.3816188
    13   6 C       21   6 C                                       1.4119451
    14   6 C       22   6 C                                       1.4098556
    15   6 C       22   6 C                                       1.4273280
    14   6 C       23   6 C                                       1.4215303
    15   6 C       24   6 C                                       1.4253256
    16   6 C       24   6 C                                       1.3660001
    15   6 C       25   6 C                                       1.4167092
    16   6 C       26   6 C                                       1.4075623
     8   6 C       28   6 C                                       1.4153257
     8   6 C       30   6 C                                       1.4131944
    11   6 C       30   6 C                                       1.4197073
    11   6 C       33   6 C                                       1.4220967
    20   6 C       33   6 C                                       1.4091621
    27   6 C       37   6 C                                       1.3353462
    28   6 C       38   6 C                                       1.3936928
    31   6 C       38   6 C                                       1.4307598
    29   6 C       39   6 C                                       1.3645717
    32   6 C       39   6 C                                       1.4157003
    30   6 C       40   6 C                                       1.4123976
    31   6 C       40   6 C                                       1.4132572
    34   6 C       40   6 C                                       1.4201038
    31   6 C       41   6 C                                       1.4157869
    32   6 C       41   6 C                                       1.4223326
    35   6 C       41   6 C                                       1.4121027
    32   6 C       42   6 C                                       1.3846847
    36   6 C       42   6 C                                       1.3952674
    20   6 C       43   6 C                                       1.4165110
    23   6 C       43   6 C                                       1.4194594
    23   6 C       52   6 C                                       1.4088365
    25   6 C       52   6 C                                       1.4186292
    25   6 C       59   6 C                                       1.4194110
    26   6 C       59   6 C                                       1.4168692
    26   6 C       66   6 C                                       1.3952674
    33   6 C       72   6 C                                       1.4153974
    34   6 C       72   6 C                                       1.4167669
    46   6 C       72   6 C                                       1.4119543
    47   6 C       73   6 C                                       1.4157003
    66   6 C       73   6 C                                       1.3846847
    68   6 C       73   6 C                                       1.4223326
    67   6 C       74   6 C                                       1.4047163
    69   6 C       74   6 C                                       1.3638947
    34   6 C       75   6 C                                       1.4073940
    35   6 C       75   6 C                                       1.4167211
    48   6 C       75   6 C                                       1.4154037
    49   6 C       76   6 C                                       1.4307598
    68   6 C       76   6 C                                       1.4157869
    70   6 C       76   6 C                                       1.4132572
    35   6 C       77   6 C                                       1.4138616
    36   6 C       77   6 C                                       1.4168692
    50   6 C       77   6 C                                       1.4194110
    51   6 C       78   6 C                                       1.4131944
    70   6 C       78   6 C                                       1.4123976
    71   6 C       78   6 C                                       1.4197073
    36   6 C       79   6 C                                       1.4075623
    44   6 C       79   6 C                                       1.3660001
    45   6 C       80   6 C                                       1.4124109
    67   6 C       80   6 C                                       1.4329152
    71   6 C       80   6 C                                       1.4081222
    43   6 C       81   6 C                                       1.4120856
    46   6 C       81   6 C                                       1.4161832
    54   6 C       81   6 C                                       1.4163715
    46   6 C       82   6 C                                       1.4167804
    48   6 C       82   6 C                                       1.4102037
    56   6 C       82   6 C                                       1.4163715
    47   6 C       83   6 C                                       1.3645717
    48   6 C       84   6 C                                       1.4183429
    50   6 C       84   6 C                                       1.4186292
    58   6 C       84   6 C                                       1.4088365
    49   6 C       85   6 C                                       1.3936928
    51   6 C       85   6 C                                       1.4153257
    44   6 C       86   6 C                                       1.4253256
    50   6 C       86   6 C                                       1.4167092
    53   6 C       86   6 C                                       1.4273280
    45   6 C       87   6 C                                       1.3596194
    51   6 C       87   6 C                                       1.4103574
    52   6 C       88   6 C                                       1.4183429
    54   6 C       88   6 C                                       1.4102037
    61   6 C       88   6 C                                       1.4154037
    55   6 C       89   6 C                                       1.4119451
    62   6 C       89   6 C                                       1.4148249
    54   6 C       90   6 C                                       1.4167804
    56   6 C       90   6 C                                       1.4161832
    63   6 C       90   6 C                                       1.4119543
    55   6 C       91   6 C                                       1.3816188
    64   6 C       91   6 C                                       1.3866290
    56   6 C       92   6 C                                       1.4120856
    58   6 C       92   6 C                                       1.4194594
    65   6 C       92   6 C                                       1.4165110
    57   6 C       93   6 C                                       1.3353462
    53   6 C       94   6 C                                       1.4098556
    58   6 C       94   6 C                                       1.4215303
    60   6 C       94   6 C                                       1.4301612
    59   6 C       95   6 C                                       1.4138616
    61   6 C       95   6 C                                       1.4167211
    68   6 C       95   6 C                                       1.4121027
    60   6 C       96   6 C                                       1.4051428
    69   6 C       96   6 C                                       1.4039804
    61   6 C       97   6 C                                       1.4073940
    63   6 C       97   6 C                                       1.4167669
    70   6 C       97   6 C                                       1.4201038
    62   6 C       98   6 C                                       1.4031194
    64   6 C       98   6 C                                       1.3724977
    63   6 C       99   6 C                                       1.4153974
    65   6 C       99   6 C                                       1.4091621
    71   6 C       99   6 C                                       1.4220967
    60   6 C      100   6 C                                       1.4206167
    65   6 C      100   6 C                                       1.4207032
    67   6 C      100   6 C                                       1.4136415
     1   6 C      101   1 H                                       1.0826605
     2   6 C      102   1 H                                       1.0772900
     4   6 C      103   1 H                                       1.0776456
     7   6 C      105   1 H                                       1.0773745
     9   6 C      106   1 H                                       1.0775619
    12   6 C      107   1 H                                       1.0818217
    16   6 C      108   1 H                                       1.0826638
    17   6 C      109   1 H                                       1.0797586
    27   6 C      110   1 H                                       1.0831422
    37   6 C      111   1 H                                       1.0839285
    39   6 C      112   1 H                                       1.0814096
    42   6 C      113   1 H                                       1.0807625
    45   6 C      114   1 H                                       1.0773745
    47   6 C      115   1 H                                       1.0814096
    57   6 C      116   1 H                                       1.0839285
    64   6 C      118   1 H                                       1.0797586
    66   6 C      119   1 H                                       1.0807625
    69   6 C      120   1 H                                       1.0775619
    74   6 C      121   1 H                                       1.0772900 (min)
    79   6 C      122   1 H                                       1.0826638
    87   6 C      123   1 H                                       1.0826605
    91   6 C      124   1 H                                       1.0818217
    93   6 C      125   1 H                                       1.0831422
    98   6 C      126   1 H                                       1.0776456
    44   6 C      129  15 P                                       1.8074519 (max)
    55   6 C      129  15 P                                       1.8056875
   128   1 H      129  15 P                                       1.4013352
    93   6 C      130  15 P                                       1.7927766
   117   1 H      130  15 P                                       1.4062277
    21   6 C      131  15 P                                       1.8056875
    24   6 C      131  15 P                                       1.8074519
   127   1 H      131  15 P                                       1.4013352
    27   6 C      132  15 P                                       1.7927766
   104   1 H      132  15 P                                       1.4062277

 * 4 distinct bonds (by element types)

   Z      Z             #   av. dist./Å        max./Å        min./Å
   1 H    6 C          24     1.0805016     1.0839285     1.0772900
   6 C    6 C         126     1.4081572     1.4329152     1.3353462
   1 H   15 P           4     1.4037815     1.4062277     1.4013352
   6 C   15 P           6     1.8019720     1.8074519     1.7927766


optimized geometry written to: xtbopt.xyz


           -------------------------------------------------
          | TOTAL ENERGY             -239.216898243039 Eh   |
          | GRADIENT NORM               0.000298624056 Eh/α |
          | HOMO-LUMO GAP               1.106817575195 eV   |
           -------------------------------------------------

------------------------------------------------------------------------
 * finished run on 2025/12/08 at 00:32:45.121     
------------------------------------------------------------------------
 total:
 * wall-time:     0 d,  0 h,  0 min, 10.866 sec
 *  cpu-time:     0 d,  0 h,  0 min, 42.141 sec
 * ratio c/w:     3.878 speedup
 SCF:
 * wall-time:     0 d,  0 h,  0 min,  1.111 sec
 *  cpu-time:     0 d,  0 h,  0 min,  4.156 sec
 * ratio c/w:     3.741 speedup
 ANC optimizer:
 * wall-time:     0 d,  0 h,  0 min,  9.599 sec
 *  cpu-time:     0 d,  0 h,  0 min, 37.609 sec
 * ratio c/w:     3.918 speedup

normal termination of xtb
