      -----------------------------------------------------------      
     |                   =====================                   |     
     |                           x T B                           |     
     |                   =====================                   |     
     |                         S. Grimme                         |     
     |          Mulliken Center for Theoretical Chemistry        |     
     |                    University of Bonn                     |     
      -----------------------------------------------------------      

   * xtb version 6.7.1pre (5071a88) compiled by 'Marcel@Raven' on 2024-07-23

   xtb is free software: you can redistribute it and/or modify it under
   the terms of the GNU Lesser General Public License as published by
   the Free Software Foundation, either version 3 of the License, or
   (at your option) any later version.
   
   xtb is distributed in the hope that it will be useful,
   but WITHOUT ANY WARRANTY; without even the implied warranty of
   MERCHANTABILITY or FITNESS FOR A PARTICULAR PURPOSE.  See the
   GNU Lesser General Public License for more details.
   
   Cite this work as:
   * C. Bannwarth, E. Caldeweyher, S. Ehlert, A. Hansen, P. Pracht,
     J. Seibert, S. Spicher, S. Grimme, WIREs Comput. Mol. Sci., 2020, 11,
     e01493. DOI: 10.1002/wcms.1493
   
   for GFN2-xTB:
   * C. Bannwarth, S. Ehlert and S. Grimme., J. Chem. Theory Comput., 2019,
     15, 1652-1671. DOI: 10.1021/acs.jctc.8b01176
   for GFN1-xTB:
   * S. Grimme, C. Bannwarth, P. Shushkov, J. Chem. Theory Comput., 2017,
     13, 1989-2009. DOI: 10.1021/acs.jctc.7b00118
   for GFN0-xTB:
   * P. Pracht, E. Caldeweyher, S. Ehlert, S. Grimme, ChemRxiv, 2019, preprint.
     DOI: 10.26434/chemrxiv.8326202.v1
   for GFN-FF:
   * S. Spicher and S. Grimme, Angew. Chem. Int. Ed., 2020, 59, 15665-15673.
     DOI: 10.1002/anie.202004239
   
   for ALPB and GBSA implicit solvation:
   * S. Ehlert, M. Stahn, S. Spicher, S. Grimme, J. Chem. Theory Comput.,
     2021, 17, 4250-4261. DOI: 10.1021/acs.jctc.1c00471
   
   for ddCOSMO and CPCM-X implicit solvation:
   * M. Stahn, S. Ehlert, S. Grimme, J. Phys. Chem. A,
     2023, XX, XXXX-XXXX. DOI: 10.1021/acs.jpca.3c04382
   
   for DFT-D4:
   * E. Caldeweyher, C. Bannwarth and S. Grimme, J. Chem. Phys., 2017,
     147, 034112. DOI: 10.1063/1.4993215
   * E. Caldeweyher, S. Ehlert, A. Hansen, H. Neugebauer, S. Spicher,
     C. Bannwarth and S. Grimme, J. Chem. Phys., 2019, 150, 154122.
     DOI: 10.1063/1.5090222
   * E. Caldeweyher, J.-M. Mewes, S. Ehlert and S. Grimme, Phys. Chem. Chem. Phys.
     2020, 22, 8499-8512. DOI: 10.1039/D0CP00502A
   
   for sTDA-xTB:
   * S. Grimme and C. Bannwarth, J. Chem. Phys., 2016, 145, 054103.
     DOI: 10.1063/1.4959605
   
   in the mass-spec context:
   * V. Asgeirsson, C. Bauer and S. Grimme, Chem. Sci., 2017, 8, 4879.
     DOI: 10.1039/c7sc00601b
   * J. Koopman and S. Grimme, ACS Omega 2019, 4, 12, 15120-15133.
     DOI: 10.1021/acsomega.9b02011
   
   for metadynamics refer to:
   * S. Grimme, J. Chem. Theory Comput., 2019, 155, 2847-2862
     DOI: 10.1021/acs.jctc.9b00143
   
   for SPH calculations refer to:
   * S. Spicher and S. Grimme, J. Chem. Theory Comput., 2021, 17, 1701-1714
     DOI: 10.1021/acs.jctc.0c01306
   
   for ONIOM refer to:
   * C. Plett, A. Katbashev, S. Ehlert, S. Grimme, M. Bursch,
     Phys. Chem. Chem. Phys., 2023, 25, 17860-17868. DOI: 10.1039/D3CP02178E
   
   for DIPRO refer to:
   * J. Kohn, N. Gildemeister, S. Grimme, D. Fazzi, A. Hansen,
     J. Chem. Phys., 2023, just accepted.
   
   for PTB refer to:
   * S. Grimme, M. Mueller, A. Hansen, J. Chem. Phys., 2023, 158, 124111.
     DOI: 10.1063/5.0137838
   
   with help from (in alphabetical order)
   P. Atkinson, C. Bannwarth, F. Bohle, G. Brandenburg, E. Caldeweyher
   M. Checinski, S. Dohm, S. Ehlert, S. Ehrlich, I. Gerasimov, C. Hölzer
   A. Katbashev, J. Kohn, J. Koopman, C. Lavigne, S. Lehtola, F. März, M. Müller,
   F. Musil, H. Neugebauer, J. Pisarek, C. Plett, P. Pracht, F. Pultar,
   J. Seibert, P. Shushkov, S. Spicher, M. Stahn, M. Steiner, T. Strunk,
   J. Stückrath, T. Rose, and J. Unsleber
   
 * started run on 2025/12/08 at 00:32:45.163     
   ID    Z sym.   atoms
    1    6 C      1-100
    2    1 H      101-128
    3   15 P      129-132

           -------------------------------------------------
          |                Calculation Setup                |
           -------------------------------------------------

          program call               : xtb "C:\Users\LENOVO GAMING\Documents\GitHub\molecular-conductivity-sim\results\1.5nm-4Pdoped-3percent\xtbopt.xyz" --sp
          coordinate file            : C:\Users\LENOVO GAMING\Documents\GitHub\molecular-conductivity-sim\results\1.5nm-4Pdoped-3percent\xtbopt.xyz
          omp threads                :                    16


           -------------------------------------------------
          |                 G F N 2 - x T B                 |
           -------------------------------------------------

        Reference                      10.1021/acs.jctc.8b01176
      * Hamiltonian:
        H0-scaling (s, p, d)           1.850000    2.230000    2.230000
        zeta-weighting                 0.500000
      * Dispersion:
        s8                             2.700000
        a1                             0.520000
        a2                             5.000000
        s9                             5.000000
      * Repulsion:
        kExp                           1.500000    1.000000
        rExp                           1.000000
      * Coulomb:
        alpha                          2.000000
        third order                    shell-resolved
        anisotropic                    true
        a3                             3.000000
        a5                             4.000000
        cn-shift                       1.200000
        cn-exp                         4.000000
        max-rad                        5.000000

q/qsh data taken from xtbrestart
CAMM data taken from xtbrestart

          ...................................................
          :                      SETUP                      :
          :.................................................:
          :  # basis functions                 468          :
          :  # atomic orbitals                 464          :
          :  # shells                          240          :
          :  # electrons                       448          :
          :  max. iterations                   250          :
          :  Hamiltonian                  GFN2-xTB          :
          :  restarted?                       true          :
          :  GBSA solvation                  false          :
          :  PC potential                    false          :
          :  electronic temp.          300.0000000     K    :
          :  accuracy                    1.0000000          :
          :  -> integral cutoff          0.2500000E+02      :
          :  -> integral neglect         0.1000000E-07      :
          :  -> SCF convergence          0.1000000E-05 Eh   :
          :  -> wf. convergence          0.1000000E-03 e    :
          :  Broyden damping             0.4000000          :
          :  net charge                          0          :
          :  unpaired electrons                  0          :
          ...................................................

 iter      E             dE          RMSdq      gap      omega  full diag
   1   -243.7709109 -0.243771E+03  0.625E-06    1.11       0.0  T
   2   -243.7709109  0.349587E-11  0.770E-06    1.11    1131.1  T
   3   -243.7709109 -0.878231E-11  0.104E-06    1.11    8372.6  T

   *** convergence criteria satisfied after 3 iterations ***

         #    Occupation            Energy/Eh            Energy/eV
      -------------------------------------------------------------
         1        2.0000           -0.6733332             -18.3223
       ...           ...                  ...                  ...
       218        2.0000           -0.3803401             -10.3496
       219        2.0000           -0.3796616             -10.3311
       220        2.0000           -0.3722784             -10.1302
       221        2.0000           -0.3670160              -9.9870
       222        2.0000           -0.3591191              -9.7721
       223        2.0000           -0.3557089              -9.6793
       224        2.0000           -0.3467123              -9.4345 (HOMO)
       225                         -0.3060375              -8.3277 (LUMO)
       226                         -0.2961647              -8.0591
       227                         -0.2888311              -7.8595
       228                         -0.2763701              -7.5204
       229                         -0.2704110              -7.3583
       ...                                ...                  ...
       464                          1.0037617              27.3137
      -------------------------------------------------------------
                  HL-Gap            0.0406748 Eh            1.1068 eV
             Fermi-level           -0.3263748 Eh           -8.8811 eV

 SCC (total)                   0 d,  0 h,  0 min,  0.298 sec
 SCC setup                      ...        0 min,  0.001 sec (  0.336%)
 Dispersion                     ...        0 min,  0.009 sec (  3.020%)
 classical contributions        ...        0 min,  0.000 sec (  0.000%)
 integral evaluation            ...        0 min,  0.027 sec (  9.060%)
 iterations                     ...        0 min,  0.179 sec ( 60.067%)
 molecular gradient             ...        0 min,  0.078 sec ( 26.175%)
 printout                       ...        0 min,  0.004 sec (  1.342%)

         :::::::::::::::::::::::::::::::::::::::::::::::::::::
         ::                     SUMMARY                     ::
         :::::::::::::::::::::::::::::::::::::::::::::::::::::
         :: total energy            -239.216898243094 Eh    ::
         :: gradient norm              0.000298633373 Eh/a0 ::
         :: HOMO-LUMO gap              1.106817501965 eV    ::
         ::.................................................::
         :: SCC energy              -243.778581252443 Eh    ::
         :: -> isotropic ES            0.003622863447 Eh    ::
         :: -> anisotropic ES          0.008463849943 Eh    ::
         :: -> anisotropic XC          0.088049703824 Eh    ::
         :: -> dispersion             -0.300569212204 Eh    ::
         :: repulsion energy           4.561683009349 Eh    ::
         :: add. restraining           0.000000000000 Eh    ::
         :: total charge              -0.000000000000 e     ::
         :::::::::::::::::::::::::::::::::::::::::::::::::::::

           -------------------------------------------------
          |                Property Printout                |
           -------------------------------------------------

    * Orbital Energies and Occupations

         #    Occupation            Energy/Eh            Energy/eV
      -------------------------------------------------------------
         1        2.0000           -0.6733332             -18.3223
       ...           ...                  ...                  ...
       212        2.0000           -0.3926223             -10.6838
       213        2.0000           -0.3908525             -10.6356
       214        2.0000           -0.3896876             -10.6039
       215        2.0000           -0.3883938             -10.5687
       216        2.0000           -0.3856291             -10.4935
       217        2.0000           -0.3831059             -10.4248
       218        2.0000           -0.3803401             -10.3496
       219        2.0000           -0.3796616             -10.3311
       220        2.0000           -0.3722784             -10.1302
       221        2.0000           -0.3670160              -9.9870
       222        2.0000           -0.3591191              -9.7721
       223        2.0000           -0.3557089              -9.6793
       224        2.0000           -0.3467123              -9.4345 (HOMO)
       225                         -0.3060375              -8.3277 (LUMO)
       226                         -0.2961647              -8.0591
       227                         -0.2888311              -7.8595
       228                         -0.2763701              -7.5204
       229                         -0.2704110              -7.3583
       230                         -0.2685056              -7.3064
       231                         -0.2651128              -7.2141
       232                         -0.2623204              -7.1381
       233                         -0.2554800              -6.9520
       234                         -0.2548246              -6.9341
       235                         -0.2454589              -6.6793
       ...                                ...                  ...
       464                          1.0037617              27.3137
      -------------------------------------------------------------
                  HL-Gap            0.0406748 Eh            1.1068 eV
             Fermi-level           -0.3263748 Eh           -8.8811 eV

     #   Z          covCN         q      C6AA      α(0)
     1   6 C        2.931    -0.035    28.865     8.811
     2   6 C        2.919    -0.037    28.910     8.817
     3   6 C        2.980     0.006    27.892     8.663
     4   6 C        2.925    -0.037    28.923     8.820
     5   6 C        2.983     0.005    27.913     8.666
     6   6 C        2.990     0.002    27.984     8.678
     7   6 C        2.917    -0.035    28.859     8.809
     8   6 C        3.083     0.004    27.843     8.650
     9   6 C        2.919    -0.037    28.917     8.818
    10   6 C        2.981     0.005    27.906     8.665
    11   6 C        2.991     0.002    27.974     8.676
    12   6 C        3.041    -0.034    28.814     8.804
    13   6 C        3.044     0.005    27.872     8.659
    14   6 C        2.984    -0.001    28.040     8.686
    15   6 C        3.034     0.003    27.924     8.668
    16   6 C        3.054    -0.042    28.990     8.830
    17   6 C        2.915    -0.030    28.753     8.793
    18   6 C        2.985     0.006    27.877     8.661
    19   6 C        2.989     0.002    27.980     8.677
    20   6 C        2.988     0.000    28.013     8.682
    21   6 C        2.921     0.005    27.904     8.663
    22   6 C        2.973     0.002    27.981     8.677
    23   6 C        2.987     0.000    28.018     8.683
    24   6 C        2.915     0.004    27.936     8.667
    25   6 C        2.989     0.001    28.003     8.680
    26   6 C        2.982     0.011    27.766     8.644
    27   6 C        2.839    -0.031    28.764     8.789
    28   6 C        2.916    -0.002    28.070     8.688
    29   6 C        2.967     0.012    27.747     8.640
    30   6 C        2.993     0.001    27.995     8.679
    31   6 C        2.987    -0.001    28.034     8.685
    32   6 C        2.978     0.011    27.758     8.642
    33   6 C        2.988    -0.000    28.031     8.685
    34   6 C        2.989    -0.000    28.027     8.684
    35   6 C        2.990     0.001    27.995     8.679
    36   6 C        2.982     0.011    27.766     8.644
    37   6 C        2.994    -0.028    28.689     8.786
    38   6 C        3.027     0.007    27.841     8.655
    39   6 C        2.930    -0.045    29.110     8.848
    40   6 C        2.989    -0.001    28.038     8.686
    41   6 C        2.993     0.001    28.005     8.681
    42   6 C        2.925    -0.045    29.109     8.848
    43   6 C        2.988    -0.000    28.026     8.684
    44   6 C        2.915     0.004    27.936     8.667
    45   6 C        2.917    -0.035    28.859     8.809
    46   6 C        2.990    -0.000    28.027     8.684
    47   6 C        2.930    -0.045    29.110     8.848
    48   6 C        2.989    -0.000    28.029     8.684
    49   6 C        3.027     0.007    27.841     8.655
    50   6 C        2.989     0.001    28.003     8.680
    51   6 C        3.083     0.004    27.843     8.650
    52   6 C        2.989    -0.000    28.021     8.683
    53   6 C        2.973     0.002    27.981     8.677
    54   6 C        2.990    -0.000    28.025     8.684
    55   6 C        2.921     0.005    27.904     8.663
    56   6 C        2.990    -0.000    28.022     8.683
    57   6 C        2.994    -0.028    28.689     8.786
    58   6 C        2.987     0.000    28.018     8.683
    59   6 C        2.994    -0.001    28.037     8.686
    60   6 C        2.989     0.002    27.980     8.677
    61   6 C        2.991     0.000    28.015     8.682
    62   6 C        2.985     0.006    27.877     8.661
    63   6 C        2.990    -0.000    28.024     8.684
    64   6 C        2.915    -0.030    28.753     8.793
    65   6 C        2.988     0.000    28.013     8.682
    66   6 C        2.925    -0.045    29.109     8.848
    67   6 C        2.981     0.005    27.906     8.665
    68   6 C        2.993     0.001    28.005     8.681
    69   6 C        2.919    -0.037    28.917     8.818
    70   6 C        2.989    -0.001    28.038     8.686
    71   6 C        2.991     0.002    27.974     8.676
    72   6 C        2.990    -0.000    28.024     8.684
    73   6 C        2.978     0.011    27.758     8.642
    74   6 C        2.919    -0.037    28.910     8.817
    75   6 C        2.991     0.000    28.015     8.682
    76   6 C        2.987    -0.001    28.034     8.685
    77   6 C        2.994    -0.001    28.037     8.686
    78   6 C        2.993     0.001    27.995     8.679
    79   6 C        3.054    -0.042    28.990     8.830
    80   6 C        2.980     0.006    27.892     8.663
    81   6 C        2.990    -0.000    28.022     8.683
    82   6 C        2.990    -0.000    28.025     8.684
    83   6 C        2.967     0.012    27.747     8.640
    84   6 C        2.989    -0.000    28.021     8.683
    85   6 C        2.916    -0.002    28.070     8.688
    86   6 C        3.034     0.003    27.924     8.668
    87   6 C        2.931    -0.035    28.865     8.811
    88   6 C        2.989    -0.000    28.029     8.684
    89   6 C        3.044     0.005    27.872     8.659
    90   6 C        2.990    -0.000    28.027     8.684
    91   6 C        3.041    -0.034    28.814     8.804
    92   6 C        2.988    -0.000    28.026     8.684
    93   6 C        2.839    -0.031    28.764     8.789
    94   6 C        2.984    -0.001    28.040     8.686
    95   6 C        2.990     0.001    27.995     8.679
    96   6 C        2.983     0.005    27.913     8.666
    97   6 C        2.989    -0.000    28.027     8.684
    98   6 C        2.925    -0.037    28.923     8.820
    99   6 C        2.988    -0.000    28.031     8.685
   100   6 C        2.990     0.002    27.984     8.678
   101   1 H        0.926     0.053     2.277     2.359
   102   1 H        0.926     0.035     2.521     2.483
   103   1 H        0.926     0.036     2.498     2.471
   104   1 H        0.976     0.049     2.325     2.383
   105   1 H        0.926     0.036     2.504     2.475
   106   1 H        0.926     0.035     2.520     2.483
   107   1 H        0.925     0.035     2.512     2.478
   108   1 H        0.925     0.035     2.510     2.478
   109   1 H        0.926     0.033     2.545     2.495
   110   1 H        0.926     0.042     2.419     2.432
   111   1 H        0.925     0.033     2.546     2.495
   112   1 H        0.925     0.031     2.568     2.506
   113   1 H        0.926     0.033     2.548     2.496
   114   1 H        0.926     0.036     2.504     2.475
   115   1 H        0.925     0.031     2.568     2.506
   116   1 H        0.925     0.033     2.546     2.495
   117   1 H        0.976     0.049     2.325     2.383
   118   1 H        0.926     0.033     2.545     2.495
   119   1 H        0.926     0.033     2.548     2.496
   120   1 H        0.926     0.035     2.520     2.483
   121   1 H        0.926     0.035     2.521     2.483
   122   1 H        0.925     0.035     2.510     2.478
   123   1 H        0.926     0.053     2.277     2.359
   124   1 H        0.925     0.035     2.512     2.478
   125   1 H        0.926     0.042     2.419     2.432
   126   1 H        0.926     0.036     2.498     2.471
   127   1 H        0.977     0.048     2.335     2.388
   128   1 H        0.977     0.048     2.335     2.388
   129  15 P        3.216    -0.085   164.051    23.008
   130  15 P        3.091    -0.103   164.900    23.068
   131  15 P        3.216    -0.085   164.051    23.008
   132  15 P        3.091    -0.103   164.900    23.068

 Mol. C6AA /au·bohr⁶  :     391613.181839
 Mol. C8AA /au·bohr⁸  :   11472299.528528
 Mol. α(0) /au        :       1031.754292


Wiberg/Mayer (AO) data.
largest (>0.10) Wiberg bond orders for each atom

 ---------------------------------------------------------------------------
     #   Z sym  total        # sym  WBO       # sym  WBO       # sym  WBO
 ---------------------------------------------------------------------------
     1   6 C    3.951 --     7 C    1.573     8 C    1.258   101 H    0.936
     2   6 C    3.962 --     9 C    1.536    10 C    1.298   102 H    0.960
     3   6 C    3.944 --    11 C    1.298     7 C    1.269    10 C    1.183
     4   6 C    3.984 --    17 C    1.490    18 C    1.335   103 H    0.961
                            21 C    0.100
     5   6 C    3.962 --    19 C    1.308     9 C    1.300    18 C    1.151
     6   6 C    3.976 --    10 C    1.280    19 C    1.250    20 C    1.222
     7   6 C    3.972 --     1 C    1.573     3 C    1.269   105 H    0.960
     8   6 C    3.971 --    28 C    1.260     1 C    1.258    30 C    1.254
     9   6 C    3.965 --     2 C    1.536     5 C    1.300   106 H    0.961
    10   6 C    3.960 --     2 C    1.298     6 C    1.280     3 C    1.183
    11   6 C    3.980 --     3 C    1.298    30 C    1.240    33 C    1.216
    12   6 C    3.979 --    21 C    1.446    17 C    1.383   107 H    0.962
    13   6 C    3.977 --    21 C    1.287    18 C    1.287    22 C    1.167
    14   6 C    3.970 --    22 C    1.319    23 C    1.232    19 C    1.195
    15   6 C    3.948 --    25 C    1.274    22 C    1.236    24 C    1.213
    16   6 C    3.952 --    24 C    1.532    26 C    1.247   108 H    0.958
    17   6 C    3.976 --     4 C    1.490    12 C    1.383   109 H    0.969
    18   6 C    3.974 --     4 C    1.335    13 C    1.287     5 C    1.151
    19   6 C    3.983 --     5 C    1.308     6 C    1.250    14 C    1.195
    20   6 C    3.962 --    33 C    1.281    43 C    1.239     6 C    1.222
    21   6 C    3.971 --    12 C    1.446    13 C    1.287   131 P    1.040
                             4 C    0.100
    22   6 C    3.948 --    14 C    1.319    15 C    1.236    13 C    1.167
    23   6 C    3.964 --    52 C    1.277    43 C    1.235    14 C    1.232
    24   6 C    3.961 --    16 C    1.532    15 C    1.213   131 P    1.037
    25   6 C    3.975 --    15 C    1.274    59 C    1.245    52 C    1.231
    26   6 C    3.971 --    66 C    1.329    16 C    1.247    59 C    1.232
    27   6 C    3.957 --    37 C    1.769   132 P    1.090   110 H    0.951
    28   6 C    3.911 --    38 C    1.386     8 C    1.260   132 P    1.045
    29   6 C    3.970 --    39 C    1.544    38 C    1.148    37 C    1.127
    30   6 C    3.977 --     8 C    1.254    40 C    1.253    11 C    1.240
    31   6 C    3.966 --    40 C    1.270    41 C    1.256    38 C    1.216
    32   6 C    3.972 --    42 C    1.393    39 C    1.217    41 C    1.207
    33   6 C    3.961 --    20 C    1.281    72 C    1.246    11 C    1.216
    34   6 C    3.963 --    75 C    1.280    72 C    1.239    40 C    1.225
    35   6 C    3.978 --    41 C    1.272    77 C    1.258    75 C    1.225
    36   6 C    3.971 --    42 C    1.329    79 C    1.247    77 C    1.232
    37   6 C    3.988 --    27 C    1.769    29 C    1.127   111 H    0.959
    38   6 C    3.973 --    28 C    1.386    31 C    1.216    29 C    1.148
    39   6 C    3.975 --    29 C    1.544    32 C    1.217   112 H    0.965
    40   6 C    3.978 --    31 C    1.270    30 C    1.253    34 C    1.225
    41   6 C    3.962 --    35 C    1.272    31 C    1.256    32 C    1.207
    42   6 C    3.894 --    32 C    1.393    36 C    1.329   113 H    0.966
    43   6 C    3.957 --    81 C    1.269    20 C    1.239    23 C    1.235
    44   6 C    3.961 --    79 C    1.532    86 C    1.213   129 P    1.037
    45   6 C    3.972 --    87 C    1.573    80 C    1.269   114 H    0.960
    46   6 C    3.964 --    72 C    1.262    82 C    1.242    81 C    1.242
    47   6 C    3.975 --    83 C    1.544    73 C    1.217   115 H    0.965
    48   6 C    3.961 --    82 C    1.267    75 C    1.240    84 C    1.236
    49   6 C    3.973 --    85 C    1.386    76 C    1.216    83 C    1.148
    50   6 C    3.975 --    86 C    1.274    77 C    1.245    84 C    1.231
    51   6 C    3.971 --    85 C    1.260    87 C    1.258    78 C    1.254
    52   6 C    3.966 --    23 C    1.277    88 C    1.236    25 C    1.231
    53   6 C    3.948 --    94 C    1.319    86 C    1.236    89 C    1.167
    54   6 C    3.962 --    88 C    1.267    90 C    1.242    81 C    1.236
    55   6 C    3.971 --    91 C    1.446    89 C    1.287   129 P    1.040
                            98 C    0.100
    56   6 C    3.964 --    92 C    1.269    90 C    1.242    82 C    1.236
    57   6 C    3.988 --    93 C    1.769    83 C    1.127   116 H    0.959
    58   6 C    3.964 --    84 C    1.277    92 C    1.235    94 C    1.232
    59   6 C    3.967 --    95 C    1.258    25 C    1.245    26 C    1.232
    60   6 C    3.983 --    96 C    1.308   100 C    1.250    94 C    1.195
    61   6 C    3.963 --    97 C    1.280    88 C    1.240    95 C    1.225
    62   6 C    3.974 --    98 C    1.335    89 C    1.287    96 C    1.151
    63   6 C    3.962 --    90 C    1.262    99 C    1.246    97 C    1.239
    64   6 C    3.976 --    98 C    1.490    91 C    1.383   118 H    0.969
    65   6 C    3.962 --    99 C    1.281    92 C    1.239   100 C    1.222
    66   6 C    3.894 --    73 C    1.393    26 C    1.329   119 H    0.966
    67   6 C    3.960 --    74 C    1.298   100 C    1.280    80 C    1.183
    68   6 C    3.962 --    95 C    1.272    76 C    1.256    73 C    1.207
    69   6 C    3.965 --    74 C    1.536    96 C    1.300   120 H    0.961
    70   6 C    3.978 --    76 C    1.270    78 C    1.253    97 C    1.225
    71   6 C    3.980 --    80 C    1.298    78 C    1.240    99 C    1.216
    72   6 C    3.962 --    46 C    1.262    33 C    1.246    34 C    1.239
    73   6 C    3.972 --    66 C    1.393    47 C    1.217    68 C    1.207
    74   6 C    3.962 --    69 C    1.536    67 C    1.298   121 H    0.960
    75   6 C    3.963 --    34 C    1.280    48 C    1.240    35 C    1.225
    76   6 C    3.966 --    70 C    1.270    68 C    1.256    49 C    1.216
    77   6 C    3.967 --    35 C    1.258    50 C    1.245    36 C    1.232
    78   6 C    3.977 --    51 C    1.254    70 C    1.253    71 C    1.240
    79   6 C    3.952 --    44 C    1.532    36 C    1.247   122 H    0.958
    80   6 C    3.944 --    71 C    1.298    45 C    1.269    67 C    1.183
    81   6 C    3.964 --    43 C    1.269    46 C    1.242    54 C    1.236
    82   6 C    3.962 --    48 C    1.267    46 C    1.242    56 C    1.236
    83   6 C    3.970 --    47 C    1.544    49 C    1.148    57 C    1.127
    84   6 C    3.966 --    58 C    1.277    48 C    1.236    50 C    1.231
    85   6 C    3.911 --    49 C    1.386    51 C    1.260   130 P    1.045
    86   6 C    3.948 --    50 C    1.274    53 C    1.236    44 C    1.213
    87   6 C    3.951 --    45 C    1.573    51 C    1.258   123 H    0.936
    88   6 C    3.961 --    54 C    1.267    61 C    1.240    52 C    1.236
    89   6 C    3.977 --    55 C    1.287    62 C    1.287    53 C    1.167
    90   6 C    3.964 --    63 C    1.262    54 C    1.242    56 C    1.242
    91   6 C    3.979 --    55 C    1.446    64 C    1.383   124 H    0.962
    92   6 C    3.957 --    56 C    1.269    65 C    1.239    58 C    1.235
    93   6 C    3.957 --    57 C    1.769   130 P    1.090   125 H    0.951
    94   6 C    3.970 --    53 C    1.319    58 C    1.232    60 C    1.195
    95   6 C    3.978 --    68 C    1.272    59 C    1.258    61 C    1.225
    96   6 C    3.962 --    60 C    1.308    69 C    1.300    62 C    1.151
    97   6 C    3.963 --    61 C    1.280    63 C    1.239    70 C    1.225
    98   6 C    3.984 --    64 C    1.490    62 C    1.335   126 H    0.961
                            55 C    0.100
    99   6 C    3.961 --    65 C    1.281    63 C    1.246    71 C    1.216
   100   6 C    3.976 --    67 C    1.280    60 C    1.250    65 C    1.222
   101   1 H    0.996 --     1 C    0.936
   102   1 H    0.997 --     2 C    0.960
   103   1 H    0.998 --     4 C    0.961
   104   1 H    0.985 --   132 P    0.918
   105   1 H    0.998 --     7 C    0.960
   106   1 H    0.998 --     9 C    0.961
   107   1 H    0.998 --    12 C    0.962
   108   1 H    0.998 --    16 C    0.958
   109   1 H    0.998 --    17 C    0.969
   110   1 H    0.997 --    27 C    0.951
   111   1 H    0.998 --    37 C    0.959
   112   1 H    0.998 --    39 C    0.965
   113   1 H    0.998 --    42 C    0.966
   114   1 H    0.998 --    45 C    0.960
   115   1 H    0.998 --    47 C    0.965
   116   1 H    0.998 --    57 C    0.959
   117   1 H    0.985 --   130 P    0.918
   118   1 H    0.998 --    64 C    0.969
   119   1 H    0.998 --    66 C    0.966
   120   1 H    0.998 --    69 C    0.961
   121   1 H    0.997 --    74 C    0.960
   122   1 H    0.998 --    79 C    0.958
   123   1 H    0.996 --    87 C    0.936
   124   1 H    0.998 --    91 C    0.962
   125   1 H    0.997 --    93 C    0.951
   126   1 H    0.998 --    98 C    0.961
   127   1 H    0.993 --   131 P    0.941
   128   1 H    0.993 --   129 P    0.941
   129  15 P    3.306 --    55 C    1.040    44 C    1.037   128 H    0.941
   130  15 P    3.369 --    93 C    1.090    85 C    1.045   117 H    0.918
   131  15 P    3.306 --    21 C    1.040    24 C    1.037   127 H    0.941
   132  15 P    3.369 --    27 C    1.090    28 C    1.045   104 H    0.918
 ---------------------------------------------------------------------------

Topologies differ in total number of bonds
Writing topology from bond orders to xtbtopo.mol

molecular dipole:
                 x           y           z       tot (Debye)
 q only:       -0.000      -0.000       0.132
   full:        0.000      -0.000       0.195       0.495
molecular quadrupole (traceless):
                xx          xy          yy          xz          yz          zz
 q only:        5.928      -6.063      16.201       0.000       0.000     -22.129
  q+dip:       37.729      -2.263      28.975       0.000       0.000     -66.703
   full:       19.598      -1.298      12.587       0.000       0.000     -32.185


           -------------------------------------------------
          | TOTAL ENERGY             -239.216898243094 Eh   |
          | GRADIENT NORM               0.000298633373 Eh/α |
          | HOMO-LUMO GAP               1.106817501965 eV   |
           -------------------------------------------------

------------------------------------------------------------------------
 * finished run on 2025/12/08 at 00:32:45.566     
------------------------------------------------------------------------
 total:
 * wall-time:     0 d,  0 h,  0 min,  0.401 sec
 *  cpu-time:     0 d,  0 h,  0 min,  4.891 sec
 * ratio c/w:    12.196 speedup
 SCF:
 * wall-time:     0 d,  0 h,  0 min,  0.302 sec
 *  cpu-time:     0 d,  0 h,  0 min,  3.969 sec
 * ratio c/w:    13.142 speedup

normal termination of xtb
