132
 energy: -239.216898243039 gnorm: 0.000298624056 xtb: 6.7.1pre (5071a88)
C            1.39693715348992        7.69307472786876        0.48715868771324
C           -2.80794709641745        6.87924986786538        0.60398630303040
C           -0.45140570349683        6.13316027061630        0.40768275354570
C           -6.97729386136620        6.00341824181400        0.83892895129901
C           -4.63508998755534        5.30597587561695        0.45649371431852
C           -2.32392615313149        4.53490048074604        0.26671704315804
C            0.06264753243191        7.44054414760353        0.55397263966909
C            2.33480830490663        6.66162274894268        0.27358852332875
C           -4.14474113837396        6.61000263321240        0.63036976988350
C           -1.85760973017495        5.85897422390600        0.43332888800477
C            0.46177896195971        5.07475718308653        0.23831830456229
C           -8.78110621848377        4.64016082418294        0.10295022148371
C           -6.50389683581444        3.77729314982189       -0.02843793649263
C           -4.19354075007185        2.93504158677565        0.00655636236651
C           -6.00619438937873        1.34500198454230       -0.39210098401577
C           -7.78948583263153       -0.28881726670121       -0.69117699411981
C           -8.32869615032216        5.80396512936030        0.70596296827208
C           -6.04711437246329        5.03276380388278        0.43725764232694
C           -3.71812859504968        4.26356623938429        0.23972212334685
C           -1.39195289661048        3.47049559680559        0.13685007329149
C           -7.89207798588612        3.64266489681778       -0.24847664263468
C           -5.56823085446630        2.68759571189229       -0.18499026496072
C           -3.25117963019123        1.87164728592367       -0.03698642673359
C           -7.36400642530693        1.00898335704848       -0.66594519092669
C           -5.08634794743214        0.27426787420860       -0.27178592148294
C           -6.90670884287669       -1.36342914706136       -0.47404731211392
C            5.91240713876077        8.60767223207023       -0.14323780417480
C            3.71708240013230        6.94081833243507        0.15311166660925
C            6.05152466724136        6.14038859641907       -0.18134490115205
C            1.85604289895388        5.33544006505803        0.17797843182464
C            4.16377832121946        4.55707848397146       -0.05538229095767
C            6.46455518667142        3.73957657906495       -0.31375068696766
C           -0.00811495794363        3.73644546455966        0.13594553474779
C            2.31151117636531        2.93837495613135       -0.00414972764072
C            4.61301209231641        2.14362902576375       -0.19109984863496
C            6.90670884287669        1.36342914706137       -0.47404731211392
C            6.60237339844693        7.47189434767541       -0.27402087492891
C            4.63623390055073        5.90702556545073       -0.01663026824383
C            6.90533258232353        5.08489900351683       -0.31921948702167
C            2.78130092456793        4.27795376103348        0.03484549824106
C            5.07214698309414        3.47899508176298       -0.18597583251832
C            7.35062857160693        2.68615429915414       -0.46384018268989
C           -1.85863653004113        2.13686650425817        0.03613765831478
C            7.36400642530693       -1.00898335704848       -0.66594519092668
C           -0.06264753243191       -7.44054414760353        0.55397263966906
C            0.46043268324453        1.33813407466470        0.00789253215130
C           -6.90533258232353       -5.08489900351682       -0.31921948702167
C            2.77168338792871        0.53180512037875       -0.08065667748533
C           -4.63623390055074       -5.90702556545072       -0.01663026824380
C            5.08634794743215       -0.27426787420860       -0.27178592148294
C           -2.33480830490663       -6.66162274894267        0.27358852332875
C           -3.70012199247001        0.53937786553683       -0.12824968777695
C            5.56823085446630       -2.68759571189229       -0.18499026496073
C           -1.38766396950449       -0.26738164416881       -0.02369514014245
C            7.89207798588612       -3.64266489681779       -0.24847664263468
C            0.93069667183362       -1.07294913428983        0.00462703939591
C           -6.60237339844696       -7.47189434767540       -0.27402087492884
C            3.25117963019123       -1.87164728592367       -0.03698642673360
C           -5.52924893174101       -1.07366525061651       -0.31230982353295
C            3.71812859504968       -4.26356623938429        0.23972212334683
C           -3.22604335880136       -1.87224894233371       -0.09226240648262
C            6.04711437246329       -5.03276380388280        0.43725764232691
C           -0.92072158617065       -2.67248987727038        0.04315211883398
C            8.32869615032216       -5.80396512936032        0.70596296827201
C            1.39195289661048       -3.47049559680559        0.13685007329148
C           -7.35062857160693       -2.68615429915414       -0.46384018268989
C            1.85760973017495       -5.85897422390601        0.43332888800475
C           -5.07214698309414       -3.47899508176298       -0.18597583251832
C            4.14474113837396       -6.61000263321241        0.63036976988348
C           -2.78130092456793       -4.27795376103347        0.03484549824104
C           -0.46177896195971       -5.07475718308653        0.23831830456227
C            0.92072158617065        2.67248987727039        0.04315211883399
C           -6.46455518667142       -3.73957657906495       -0.31375068696765
C            2.80794709641744       -6.87924986786538        0.60398630303037
C            3.22604335880136        1.87224894233371       -0.09226240648261
C           -4.16377832121946       -4.55707848397145       -0.05538229095769
C            5.52924893174101        1.07366525061651       -0.31230982353294
C           -1.85604289895388       -5.33544006505803        0.17797843182461
C            7.78948583263153        0.28881726670121       -0.69117699411981
C            0.45140570349683       -6.13316027061630        0.40768275354567
C           -0.93069667183361        1.07294913428983        0.00462703939592
C            1.38766396950449        0.26738164416881       -0.02369514014244
C           -6.05152466724137       -6.14038859641906       -0.18134490115203
C            3.70012199247001       -0.53937786553683       -0.12824968777695
C           -3.71708240013230       -6.94081833243505        0.15311166660929
C            6.00619438937874       -1.34500198454230       -0.39210098401577
C           -1.39693715348993       -7.69307472786875        0.48715868771322
C           -2.77168338792871       -0.53180512037875       -0.08065667748534
C            6.50389683581444       -3.77729314982189       -0.02843793649265
C           -0.46043268324453       -1.33813407466470        0.00789253215129
C            8.78110621848379       -4.64016082418295        0.10295022148369
C            1.85863653004114       -2.13686650425817        0.03613765831477
C           -5.91240713876082       -8.60767223207022       -0.14323780417470
C            4.19354075007185       -2.93504158677566        0.00655636236649
C           -4.61301209231641       -2.14362902576375       -0.19109984863497
C            4.63508998755533       -5.30597587561696        0.45649371431850
C           -2.31151117636531       -2.93837495613135       -0.00414972764073
C            6.97729386136620       -6.00341824181403        0.83892895129895
C            0.00811495794363       -3.73644546455966        0.13594553474778
C            2.32392615313149       -4.53490048074604        0.26671704315802
H            1.75808732627367        8.70619541528158        0.61089423822737
H           -2.49331205871007        7.90340091859396        0.71656033225626
H           -6.63340100411179        6.92630367192292        1.27635316343264
H            3.69106298733365        9.17570075275189       -0.82666115019566
H           -0.60577719644959        8.26859300158593        0.72213667938647
H           -4.82902615854001        7.43351817670459        0.75167774611390
H           -9.83615984758054        4.49641690616039       -0.08819782885189
H           -8.83011854049967       -0.50469719610887       -0.89767184341061
H           -9.02955080181059        6.55654906615743        1.03505055142981
H            6.40490184208783        9.56719574464881       -0.24303955073512
H            7.65942526183111        7.51665366627903       -0.50968753102364
H            7.96347615375315        5.26747308009299       -0.44745937404493
H            8.40569313215711        2.88799756642699       -0.58277459932530
H            0.60577719644958       -8.26859300158594        0.72213667938642
H           -7.96347615375316       -5.26747308009298       -0.44745937404490
H           -7.65942526183111       -7.51665366627900       -0.50968753102375
H           -3.69106298733350       -9.17570075275211       -0.82666115019565
H            9.02955080181060       -6.55654906615744        1.03505055142976
H           -8.40569313215711       -2.88799756642698       -0.58277459932529
H            4.82902615854000       -7.43351817670461        0.75167774611386
H            2.49331205871007       -7.90340091859397        0.71656033225623
H            8.83011854049967        0.50469719610887       -0.89767184341061
H           -1.75808732627368       -8.70619541528158        0.61089423822733
H            9.83615984758055       -4.49641690616039       -0.08819782885191
H           -6.40490184208787       -9.56719574464881       -0.24303955073517
H            6.63340100411180       -6.92630367192293        1.27635316343260
H           -9.57728158577095        1.91029105956228       -0.31933904774988
H            9.57728158577093       -1.91029105956229       -0.31933904774984
P            8.55053738435895       -2.26080473636180       -1.20628694349911
P           -4.20118465394390       -8.68001893115023        0.38641402210190
P           -8.55053738435894        2.26080473636180       -1.20628694349911
P            4.20118465394393        8.68001893115021        0.38641402210207
