132
 energy: -239.196136273481 gnorm: 0.043974557073 xtb: 6.7.1pre (5071a88)
C            1.38733800000000        7.75960400000000        0.44555900000000
C           -2.82653800000000        6.92429900000000        0.63111200000000
C           -0.46089600000000        6.17410100000000        0.39857600000000
C           -7.01967700000000        6.10180400000000        0.76632000000000
C           -4.67021300000000        5.34885400000000        0.45309800000000
C           -2.34661000000000        4.56399700000000        0.27152100000000
C            0.04731000000000        7.49679400000000        0.51137200000000
C            2.34661000000000        6.72352100000000        0.26504900000000
C           -4.16996500000000        6.65781900000000        0.64878400000000
C           -1.87574600000000        5.89558300000000        0.43885000000000
C            0.46089500000000        5.11256000000000        0.23676900000000
C           -8.85295100000000        4.71512800000000        0.09233700000000
C           -6.57133900000000        3.81493000000000       -0.01346600000000
C           -4.23781400000000        2.95232500000000        0.01324700000000
C           -6.06549200000000        1.34133000000000       -0.36466700000000
C           -7.85036000000000       -0.31251300000000       -0.65989400000000
C           -8.38007500000000        5.91519600000000        0.63272900000000
C           -6.09580800000000        5.08960600000000        0.41548100000000
C           -3.75447000000000        4.29356500000000        0.24426800000000
C           -1.40621900000000        3.49293400000000        0.13954700000000
C           -7.97505600000000        3.68673000000000       -0.22714700000000
C           -5.62614000000000        2.70231200000000       -0.16197700000000
C           -3.28279600000000        1.88075400000000       -0.03193800000000
C           -7.43812300000000        0.99468800000000       -0.62775400000000
C           -5.12657400000000        0.26887300000000       -0.26480000000000
C           -6.95021500000000       -1.38876700000000       -0.47248700000000
C            5.99171400000000        8.68645300000000       -0.11259000000000
C            3.74160600000000        7.00485400000000        0.16178200000000
C            6.09477500000000        6.19610800000000       -0.19508800000000
C            1.86656900000000        5.38347400000000        0.17691700000000
C            4.18509200000000        4.59815900000000       -0.06142900000000
C            6.50182800000000        3.77824600000000       -0.33240900000000
C           -0.01344200000000        3.76245700000000        0.14013600000000
C            2.32337500000000        2.96375900000000       -0.00200100000000
C            4.64005600000000        2.16809300000000       -0.19614100000000
C            6.95021500000000        1.38876700000000       -0.47248700000000
C            6.66485200000000        7.53591500000000       -0.27097200000000
C            4.66066600000000        5.96295200000000       -0.02258900000000
C            6.94597200000000        5.13401800000000       -0.33872200000000
C            2.79539900000000        4.31643100000000        0.03437600000000
C            5.10053500000000        3.51263500000000       -0.19647700000000
C            7.39219000000000        2.72163500000000       -0.47646400000000
C           -1.87711400000000        2.14920600000000        0.04008300000000
C            7.43812300000000       -0.99468800000000       -0.62775400000000
C           -0.04731000000000       -7.49679400000000        0.51137200000000
C            0.46121700000000        1.34872000000000        0.01066300000000
C           -6.94597200000000       -5.13401800000000       -0.33872200000000
C            2.79011000000000        0.53991900000000       -0.08040500000000
C           -4.66066600000000       -5.96295200000000       -0.02258900000000
C            5.12657400000000       -0.26887300000000       -0.26480000000000
C           -2.34661000000000       -6.72352100000000        0.26504900000000
C           -3.72986200000000        0.53915200000000       -0.12289700000000
C            5.62614000000000       -2.70231200000000       -0.16197700000000
C           -1.39854600000000       -0.27138700000000       -0.02263500000000
C            7.97505600000000       -3.68673000000000       -0.22714700000000
C            0.94077100000000       -1.07984900000000        0.00539400000000
C           -6.66485200000000       -7.53591500000000       -0.27097200000000
C            3.28279600000000       -1.88075400000000       -0.03193800000000
C           -5.56606800000000       -1.09273300000000       -0.31260700000000
C            3.75447000000000       -4.29356500000000        0.24426800000000
C           -3.24439900000000       -1.89250600000000       -0.09318200000000
C            6.09580800000000       -5.08960600000000        0.41548100000000
C           -0.92281200000000       -2.69173600000000        0.04525700000000
C            8.38007500000000       -5.91519600000000        0.63272900000000
C            1.40621900000000       -3.49293400000000        0.13954700000000
C           -7.39219000000000       -2.72163500000000       -0.47646400000000
C            1.87574600000000       -5.89558300000000        0.43885000000000
C           -5.10053500000000       -3.51263500000000       -0.19647700000000
C            4.16996500000000       -6.65781900000000        0.64878400000000
C           -2.79539900000000       -4.31643100000000        0.03437600000000
C           -0.46089500000000       -5.11256000000000        0.23676900000000
C            0.92281200000000        2.69173600000000        0.04525700000000
C           -6.50182800000000       -3.77824600000000       -0.33240900000000
C            2.82653800000000       -6.92429900000000        0.63111200000000
C            3.24439900000000        1.89250600000000       -0.09318200000000
C           -4.18509200000000       -4.59815900000000       -0.06142900000000
C            5.56606800000000        1.09273300000000       -0.31260700000000
C           -1.86656900000000       -5.38347400000000        0.17691700000000
C            7.85036000000000        0.31251300000000       -0.65989400000000
C            0.46089600000000       -6.17410100000000        0.39857600000000
C           -0.94077100000000        1.07984900000000        0.00539400000000
C            1.39854600000000        0.27138700000000       -0.02263500000000
C           -6.09477500000000       -6.19610800000000       -0.19508800000000
C            3.72986200000000       -0.53915200000000       -0.12289700000000
C           -3.74160600000000       -7.00485400000000        0.16178200000000
C            6.06549200000000       -1.34133000000000       -0.36466700000000
C           -1.38733800000000       -7.75960400000000        0.44555900000000
C           -2.79011000000000       -0.53991900000000       -0.08040500000000
C            6.57133900000000       -3.81493000000000       -0.01346600000000
C           -0.46121700000000       -1.34872000000000        0.01066300000000
C            8.85295100000000       -4.71512800000000        0.09233700000000
C            1.87711400000000       -2.14920600000000        0.04008300000000
C           -5.99171400000000       -8.68645300000000       -0.11259000000000
C            4.23781400000000       -2.95232500000000        0.01324700000000
C           -4.64005600000000       -2.16809300000000       -0.19614100000000
C            4.67021300000000       -5.34885400000000        0.45309800000000
C           -2.32337500000000       -2.96375900000000       -0.00200100000000
C            7.01967700000000       -6.10180400000000        0.76632000000000
C            0.01344200000000       -3.76245700000000        0.14013600000000
C            2.34661000000000       -4.56399700000000        0.27152100000000
H            1.71291800000000        8.79035400000000        0.53476100000000
H           -2.50781600000000        7.94971900000000        0.76705500000000
H           -6.66403800000000        7.04519100000000        1.16007300000000
H            3.68280700000000        9.36815600000000       -0.71955200000000
H           -0.62886200000000        8.33152900000000        0.64456700000000
H           -4.85067100000000        7.48870100000000        0.78002700000000
H           -9.91907000000000        4.58519300000000       -0.07737600000000
H           -8.89526600000000       -0.54945400000000       -0.84894000000000
H           -9.07333400000000        6.70039600000000        0.91924900000000
H            6.51262200000000        9.63750000000000       -0.19587900000000
H            7.73038900000000        7.57382200000000       -0.49311500000000
H            8.00879900000000        5.31991400000000       -0.47218100000000
H            8.45268000000000        2.92698800000000       -0.59841900000000
H            0.62886200000000       -8.33152900000000        0.64456700000000
H           -8.00879900000000       -5.31991400000000       -0.47218100000000
H           -7.73038900000000       -7.57382200000000       -0.49311500000000
H           -3.68280700000000       -9.36815600000000       -0.71955200000000
H            9.07333400000000       -6.70039600000000        0.91924900000000
H           -8.45268000000000       -2.92698800000000       -0.59841900000000
H            4.85067100000000       -7.48870100000000        0.78002700000000
H            2.50781600000000       -7.94971900000000        0.76705500000000
H            8.89526600000000        0.54945400000000       -0.84894000000000
H           -1.71291800000000       -8.79035400000000        0.53476100000000
H            9.91907000000000       -4.58519300000000       -0.07737600000000
H           -6.51262200000000       -9.63750000000000       -0.19587900000000
H            6.66403800000000       -7.04519100000000        1.16007300000000
H           -9.71087000000000        1.90860000000000       -0.24673000000000
H            9.71087000000000       -1.90860000000000       -0.24673000000000
P            8.65033900000000       -2.25803700000000       -1.12648600000000
P           -4.26973300000000       -8.75503100000000        0.42618800000000
P           -8.65033900000000        2.25803700000000       -1.12648600000000
P            4.26973300000000        8.75503100000000        0.42618800000000
132
 energy: -239.209531717923 gnorm: 0.022818279044 xtb: 6.7.1pre (5071a88)
C            1.39190198646304        7.73474596005534        0.44229655939788
C           -2.82189246335354        6.90105574305505        0.62476532226965
C           -0.45829595557503        6.15851159383202        0.39611364155636
C           -7.00804722540805        6.07597447740611        0.76073163802002
C           -4.66131502701409        5.33222692739592        0.44891882666890
C           -2.34168548227863        4.55228348965488        0.26911266654546
C            0.05529407648318        7.47458704978569        0.50835191486141
C            2.34288122246307        6.70320115289448        0.25705788072930
C           -4.16105238690107        6.63528818600340        0.64145056654726
C           -1.87032641680723        5.87947262284549        0.43557220380194
C            0.46144112650813        5.09994613113984        0.23501308286285
C           -8.82818000270367        4.69466866861199        0.09084162257901
C           -6.55108076331212        3.80056088986338       -0.01105592712472
C           -4.22680252053967        2.94544142696065        0.01682135940632
C           -6.04804563241915        1.34246588005892       -0.35694958758119
C           -7.82862067861941       -0.30555780481824       -0.65271185623408
C           -8.36214059355640        5.88885350856981        0.62778338493209
C           -6.08227553012090        5.07203935634041        0.41311330956050
C           -3.74492052857674        4.28174283667027        0.24222004266766
C           -1.40288033960538        3.48516367552133        0.13936771826448
C           -7.94934182147524        3.66832839633518       -0.21498174200192
C           -5.61060655797271        2.69634420619043       -0.15662825522337
C           -3.27511453364257        1.87766595930206       -0.03004753291149
C           -7.41631230146852        0.99923405673718       -0.60968372640620
C           -5.11570704402350        0.27019990214219       -0.25862709335378
C           -6.93326218599801       -1.38246650742557       -0.46784662971677
C            5.95670936919911        8.65831383591396       -0.11903643122968
C            3.73185884129546        6.98483872424847        0.14516624373509
C            6.07520549107566        6.18007091874130       -0.19203562375353
C            1.86263164692031        5.36900576962386        0.17249519422823
C            4.17720405914653        4.58808138823306       -0.06402289821422
C            6.48478358624044        3.76889349485382       -0.33082753037181
C           -0.01246388607645        3.75442774916737        0.13888706881243
C            2.31948385914898        2.95744267372534       -0.00304725404407
C            4.63081641558620        2.16247559037925       -0.19520874757586
C            6.93326218599801        1.38246650742557       -0.46784662971677
C            6.63628345575630        7.51561842696174       -0.26795893424919
C            4.65076214510107        5.94664250453052       -0.02572763016151
C            6.92550693860559        5.12087437408892       -0.33745706282141
C            2.79060850949524        4.30594883574679        0.03238933605075
C            5.08873006396912        3.50478024207436       -0.19635174787650
C            7.37246828561706        2.71263604185738       -0.47410359983040
C           -1.87317266189938        2.14510987378780        0.03913694779719
C            7.41631230146852       -0.99923405673718       -0.60968372640620
C           -0.05529407648318       -7.47458704978569        0.50835191486141
C            0.46066407724612        1.34576505051640        0.01009979258310
C           -6.92550693860559       -5.12087437408892       -0.33745706282141
C            2.78547983300945        0.53810040752255       -0.07926050226692
C           -4.65076214510107       -5.94664250453052       -0.02572763016151
C            5.11570704402350       -0.27019990214219       -0.25862709335378
C           -2.34288122246307       -6.70320115289448        0.25705788072930
C           -3.72213987073583        0.53862096653799       -0.12166634882181
C            5.61060655797271       -2.69634420619043       -0.15662825522337
C           -1.39571385865112       -0.27058217274485       -0.02228710975644
C            7.94934182147524       -3.66832839633518       -0.21498174200193
C            0.93849707019972       -1.07778447570588        0.00637627066551
C           -6.63628345575630       -7.51561842696174       -0.26795893424919
C            3.27511453364257       -1.87766595930206       -0.03004753291149
C           -5.55308267466776       -1.08778444440349       -0.30842650228849
C            3.74492052857675       -4.28174283667027        0.24222004266766
C           -3.23851424451366       -1.88752248026373       -0.09261219854802
C            6.08227553012090       -5.07203935634041        0.41311330956050
C           -0.92203717581232       -2.68645106241903        0.04592958321091
C            8.36214059355640       -5.88885350856981        0.62778338493209
C            1.40288033960538       -3.48516367552133        0.13936771826448
C           -7.37246828561706       -2.71263604185738       -0.47410359983040
C            1.87032641680723       -5.87947262284549        0.43557220380194
C           -5.08873006396912       -3.50478024207436       -0.19635174787650
C            4.16105238690107       -6.63528818600340        0.64145056654727
C           -2.79060850949524       -4.30594883574679        0.03238933605075
C           -0.46144112650813       -5.09994613113984        0.23501308286285
C            0.92203717581232        2.68645106241902        0.04592958321091
C           -6.48478358624044       -3.76889349485382       -0.33082753037181
C            2.82189246335354       -6.90105574305505        0.62476532226966
C            3.23851424451366        1.88752248026373       -0.09261219854802
C           -4.17720405914653       -4.58808138823306       -0.06402289821421
C            5.55308267466776        1.08778444440349       -0.30842650228849
C           -1.86263164692031       -5.36900576962387        0.17249519422823
C            7.82862067861941        0.30555780481824       -0.65271185623408
C            0.45829595557503       -6.15851159383202        0.39611364155636
C           -0.93849707019972        1.07778447570588        0.00637627066550
C            1.39571385865112        0.27058217274484       -0.02228710975644
C           -6.07520549107566       -6.18007091874130       -0.19203562375353
C            3.72213987073583       -0.53862096653799       -0.12166634882181
C           -3.73185884129546       -6.98483872424847        0.14516624373509
C            6.04804563241915       -1.34246588005892       -0.35694958758119
C           -1.39190198646304       -7.73474596005534        0.44229655939788
C           -2.78547983300945       -0.53810040752255       -0.07926050226692
C            6.55108076331212       -3.80056088986338       -0.01105592712473
C           -0.46066407724612       -1.34576505051640        0.01009979258309
C            8.82818000270366       -4.69466866861199        0.09084162257901
C            1.87317266189938       -2.14510987378780        0.03913694779719
C           -5.95670936919911       -8.65831383591396       -0.11903643122968
C            4.22680252053967       -2.94544142696065        0.01682135940632
C           -4.63081641558620       -2.16247559037925       -0.19520874757587
C            4.66131502701409       -5.33222692739592        0.44891882666890
C           -2.31948385914898       -2.95744267372534       -0.00304725404407
C            7.00804722540805       -6.07597447740611        0.76073163802002
C            0.01246388607645       -3.75442774916737        0.13888706881243
C            2.34168548227863       -4.55228348965488        0.26911266654546
H            1.72957051573710        8.76051313403658        0.53628797342524
H           -2.50728385864301        7.92437182517827        0.76259259783901
H           -6.66067606081541        7.01951810791259        1.15280583221150
H            3.71753698257208        9.31368626902943       -0.72581820103734
H           -0.61615622402919        8.30913624622220        0.64298999446392
H           -4.83846595310077        7.46480101033953        0.77662156153305
H           -9.89022143257750        4.56435619168091       -0.08433736341560
H           -8.87158060078826       -0.53551339968624       -0.84604117068286
H           -9.05549096948135        6.67134603300586        0.91001223021786
H            6.47186230749270        9.61164563367399       -0.19072433045421
H            7.69879719365992        7.55929608688301       -0.49201342382130
H            7.98553669393433        5.30623906997563       -0.46902664676165
H            8.42959531390520        2.91739504197469       -0.59513143742887
H            0.61615622402919       -8.30913624622220        0.64298999446392
H           -7.98553669393433       -5.30623906997563       -0.46902664676165
H           -7.69879719365992       -7.55929608688301       -0.49201342382130
H           -3.71753698257208       -9.31368626902943       -0.72581820103734
H            9.05549096948135       -6.67134603300586        0.91001223021786
H           -8.42959531390520       -2.91739504197469       -0.59513143742887
H            4.83846595310077       -7.46480101033953        0.77662156153305
H            2.50728385864301       -7.92437182517827        0.76259259783901
H            8.87158060078826        0.53551339968624       -0.84604117068286
H           -1.72957051573710       -8.76051313403658        0.53628797342524
H            9.89022143257750       -4.56435619168091       -0.08433736341560
H           -6.47186230749270       -9.61164563367399       -0.19072433045422
H            6.66067606081541       -7.01951810791259        1.15280583221150
H           -9.65470869803960        1.91559505814352       -0.23320514313298
H            9.65470869803960       -1.91559505814352       -0.23320514313298
P            8.61905781068251       -2.25561787745694       -1.13279918709022
P           -4.24891642964133       -8.72116408154742        0.44806800874355
P           -8.61905781068252        2.25561787745694       -1.13279918709022
P            4.24891642964133        8.72116408154742        0.44806800874355
132
 energy: -239.215432753083 gnorm: 0.009354274474 xtb: 6.7.1pre (5071a88)
C            1.39229519504713        7.70949322635679        0.44043203018653
C           -2.81321069039942        6.88094894391940        0.61912548178447
C           -0.45620439965811        6.14169580089144        0.39153274709515
C           -6.99006307407903        6.05151476034425        0.75910312586856
C           -4.64810997002738        5.31605924185293        0.44721331871765
C           -2.33414009061979        4.53940703119754        0.26640187290966
C            0.05789518940086        7.45275511297020        0.50592492408803
C            2.33584035682236        6.67912837012859        0.25356521501638
C           -4.15011731569391        6.61519174339391        0.63738880453980
C           -1.86367311761617        5.86331656956041        0.43097982404312
C            0.46049305020453        5.08438187720942        0.23056349107367
C           -8.80140058932814        4.67283617883782        0.08671489344845
C           -6.52641279864209        3.78594406449391       -0.01101574032609
C           -4.21133713827185        2.93741369470050        0.01927300450040
C           -6.02677502753872        1.34152010663784       -0.35186892201198
C           -7.80550347524812       -0.30059309671956       -0.64836856573574
C           -8.34141476399592        5.86216394112004        0.62706166821163
C           -6.06366955573718        5.05382277944433        0.41437847360504
C           -3.73187679874388        4.26902745533790        0.24093969238448
C           -1.39845356868069        3.47517230092248        0.13811235277470
C           -7.91876349281049        3.65365261095706       -0.21732597473935
C           -5.59100954423262        2.68877581665470       -0.15335682585521
C           -3.26405597919835        1.87320754031729       -0.02762652133896
C           -7.38901538560111        1.00016315448965       -0.60509681842591
C           -5.10068390671863        0.27051331232316       -0.25113579870057
C           -6.91538427584493       -1.37611596385582       -0.46004205929035
C            5.93332843027385        8.62784647659985       -0.10056867189958
C            3.72059360006112        6.95920157776457        0.14578149136931
C            6.05658256474736        6.15997804608726       -0.18664404452786
C            1.85637997296504        5.35028903513389        0.16588697850296
C            4.16680289618093        4.57347948294342       -0.06718723357674
C            6.46730243748793        3.75647169753970       -0.32899649269442
C           -0.01161041977127        3.74342629949442        0.13617476208470
C            2.31348194834748        2.94795607766334       -0.00469538161567
C            4.61868707241096        2.15446448695621       -0.19321186370215
C            6.91538427584493        1.37611596385582       -0.46004205929035
C            6.61455069467309        7.49079808528394       -0.25708319765046
C            4.64016569479211        5.92538098253011       -0.02264110517076
C            6.90662178930509        5.10365862812747       -0.33671427133385
C            2.78329072746185        4.29129365024380        0.02846743052313
C            5.07526279662520        3.49338433841081       -0.19636616362443
C            7.35394469190627        2.70202973094259       -0.46965583235858
C           -1.86714936678472        2.13928520126129        0.03914427866932
C            7.38901538560111       -1.00016315448965       -0.60509681842591
C           -0.05789518940086       -7.45275511297020        0.50592492408803
C            0.45967083719740        1.34136431050880        0.00964775278642
C           -6.90662178930510       -5.10365862812747       -0.33671427133384
C            2.77807377747589        0.53559078232296       -0.07726768463656
C           -4.64016569479211       -5.92538098253011       -0.02264110517076
C            5.10068390671864       -0.27051331232316       -0.25113579870057
C           -2.33584035682236       -6.67912837012859        0.25356521501638
C           -3.71099813418239        0.53739821728801       -0.11822544045957
C            5.59100954423262       -2.68877581665470       -0.15335682585521
C           -1.39128891005275       -0.26941592359316       -0.02161741103446
C            7.91876349281049       -3.65365261095706       -0.21732597473936
C            0.93507640629630       -1.07465822748065        0.00705579292133
C           -6.61455069467309       -7.49079808528394       -0.25708319765046
C            3.26405597919835       -1.87320754031729       -0.02762652133896
C           -5.53790695697950       -1.08238162795832       -0.30227219374240
C            3.73187679874388       -4.26902745533791        0.24093969238447
C           -3.23020743408239       -1.88032423154890       -0.09171565343989
C            6.06366955573718       -5.05382277944434        0.41437847360503
C           -0.92021727026264       -2.67867772103919        0.04504434814348
C            8.34141476399592       -5.86216394112004        0.62706166821164
C            1.39845356868069       -3.47517230092248        0.13811235277469
C           -7.35394469190627       -2.70202973094258       -0.46965583235858
C            1.86367311761617       -5.86331656956041        0.43097982404312
C           -5.07526279662521       -3.49338433841081       -0.19636616362443
C            4.15011731569391       -6.61519174339391        0.63738880453980
C           -2.78329072746184       -4.29129365024380        0.02846743052313
C           -0.46049305020453       -5.08438187720943        0.23056349107367
C            0.92021727026265        2.67867772103919        0.04504434814348
C           -6.46730243748793       -3.75647169753970       -0.32899649269442
C            2.81321069039943       -6.88094894391940        0.61912548178447
C            3.23020743408239        1.88032423154890       -0.09171565343989
C           -4.16680289618093       -4.57347948294342       -0.06718723357674
C            5.53790695697950        1.08238162795832       -0.30227219374240
C           -1.85637997296504       -5.35028903513389        0.16588697850296
C            7.80550347524812        0.30059309671956       -0.64836856573574
C            0.45620439965811       -6.14169580089144        0.39153274709514
C           -0.93507640629630        1.07465822748065        0.00705579292133
C            1.39128891005275        0.26941592359315       -0.02161741103446
C           -6.05658256474736       -6.15997804608726       -0.18664404452786
C            3.71099813418239       -0.53739821728801       -0.11822544045956
C           -3.72059360006112       -6.95920157776457        0.14578149136931
C            6.02677502753871       -1.34152010663784       -0.35186892201198
C           -1.39229519504713       -7.70949322635679        0.44043203018653
C           -2.77807377747589       -0.53559078232296       -0.07726768463656
C            6.52641279864209       -3.78594406449391       -0.01101574032609
C           -0.45967083719740       -1.34136431050880        0.00964775278641
C            8.80140058932814       -4.67283617883782        0.08671489344844
C            1.86714936678472       -2.13928520126129        0.03914427866932
C           -5.93332843027385       -8.62784647659985       -0.10056867189959
C            4.21133713827185       -2.93741369470050        0.01927300450040
C           -4.61868707241096       -2.15446448695621       -0.19321186370215
C            4.64810997002738       -5.31605924185293        0.44721331871765
C           -2.31348194834748       -2.94795607766334       -0.00469538161567
C            6.99006307407903       -6.05151476034425        0.75910312586856
C            0.01161041977127       -3.74342629949442        0.13617476208470
C            2.33414009061979       -4.53940703119754        0.26640187290966
H            1.74330939955832        8.72984369663821        0.53843562251571
H           -2.49909954345893        7.90260483660751        0.75580078570392
H           -6.64745594153356        6.99632307785531        1.14706893995151
H            3.71402873411399        9.27380902905251       -0.73630194162239
H           -0.61185561406608        8.28584638582102        0.64405620519488
H           -4.82698783536113        7.44249236412906        0.77380737487077
H           -9.85960364445974        4.53608002651247       -0.09357257436927
H           -8.84773965398380       -0.52176357716395       -0.84386943740914
H           -9.03548170459465        6.64187411557994        0.90551056951260
H            6.43381139373984        9.58534637751714       -0.18918143021624
H            7.66990003764425        7.53758588150062       -0.50397055645635
H            7.96459534124705        5.28822878684262       -0.46623618111211
H            8.40849189875317        2.90611195121994       -0.59107537686166
H            0.61185561406608       -8.28584638582103        0.64405620519488
H           -7.96459534124705       -5.28822878684262       -0.46623618111212
H           -7.66990003764425       -7.53758588150061       -0.50397055645635
H           -3.71402873411399       -9.27380902905251       -0.73630194162239