      -----------------------------------------------------------      
     |                   =====================                   |     
     |                           x T B                           |     
     |                   =====================                   |     
     |                         S. Grimme                         |     
     |          Mulliken Center for Theoretical Chemistry        |     
     |                    University of Bonn                     |     
      -----------------------------------------------------------      

   * xtb version 6.7.1pre (5071a88) compiled by 'Marcel@Raven' on 2024-07-23

   xtb is free software: you can redistribute it and/or modify it under
   the terms of the GNU Lesser General Public License as published by
   the Free Software Foundation, either version 3 of the License, or
   (at your option) any later version.
   
   xtb is distributed in the hope that it will be useful,
   but WITHOUT ANY WARRANTY; without even the implied warranty of
   MERCHANTABILITY or FITNESS FOR A PARTICULAR PURPOSE.  See the
   GNU Lesser General Public License for more details.
   
   Cite this work as:
   * C. Bannwarth, E. Caldeweyher, S. Ehlert, A. Hansen, P. Pracht,
     J. Seibert, S. Spicher, S. Grimme, WIREs Comput. Mol. Sci., 2020, 11,
     e01493. DOI: 10.1002/wcms.1493
   
   for GFN2-xTB:
   * C. Bannwarth, S. Ehlert and S. Grimme., J. Chem. Theory Comput., 2019,
     15, 1652-1671. DOI: 10.1021/acs.jctc.8b01176
   for GFN1-xTB:
   * S. Grimme, C. Bannwarth, P. Shushkov, J. Chem. Theory Comput., 2017,
     13, 1989-2009. DOI: 10.1021/acs.jctc.7b00118
   for GFN0-xTB:
   * P. Pracht, E. Caldeweyher, S. Ehlert, S. Grimme, ChemRxiv, 2019, preprint.
     DOI: 10.26434/chemrxiv.8326202.v1
   for GFN-FF:
   * S. Spicher and S. Grimme, Angew. Chem. Int. Ed., 2020, 59, 15665-15673.
     DOI: 10.1002/anie.202004239
   
   for ALPB and GBSA implicit solvation:
   * S. Ehlert, M. Stahn, S. Spicher, S. Grimme, J. Chem. Theory Comput.,
     2021, 17, 4250-4261. DOI: 10.1021/acs.jctc.1c00471
   
   for ddCOSMO and CPCM-X implicit solvation:
   * M. Stahn, S. Ehlert, S. Grimme, J. Phys. Chem. A,
     2023, XX, XXXX-XXXX. DOI: 10.1021/acs.jpca.3c04382
   
   for DFT-D4:
   * E. Caldeweyher, C. Bannwarth and S. Grimme, J. Chem. Phys., 2017,
     147, 034112. DOI: 10.1063/1.4993215
   * E. Caldeweyher, S. Ehlert, A. Hansen, H. Neugebauer, S. Spicher,
     C. Bannwarth and S. Grimme, J. Chem. Phys., 2019, 150, 154122.
     DOI: 10.1063/1.5090222
   * E. Caldeweyher, J.-M. Mewes, S. Ehlert and S. Grimme, Phys. Chem. Chem. Phys.
     2020, 22, 8499-8512. DOI: 10.1039/D0CP00502A
   
   for sTDA-xTB:
   * S. Grimme and C. Bannwarth, J. Chem. Phys., 2016, 145, 054103.
     DOI: 10.1063/1.4959605
   
   in the mass-spec context:
   * V. Asgeirsson, C. Bauer and S. Grimme, Chem. Sci., 2017, 8, 4879.
     DOI: 10.1039/c7sc00601b
   * J. Koopman and S. Grimme, ACS Omega 2019, 4, 12, 15120-15133.
     DOI: 10.1021/acsomega.9b02011
   
   for metadynamics refer to:
   * S. Grimme, J. Chem. Theory Comput., 2019, 155, 2847-2862
     DOI: 10.1021/acs.jctc.9b00143
   
   for SPH calculations refer to:
   * S. Spicher and S. Grimme, J. Chem. Theory Comput., 2021, 17, 1701-1714
     DOI: 10.1021/acs.jctc.0c01306
   
   for ONIOM refer to:
   * C. Plett, A. Katbashev, S. Ehlert, S. Grimme, M. Bursch,
     Phys. Chem. Chem. Phys., 2023, 25, 17860-17868. DOI: 10.1039/D3CP02178E
   
   for DIPRO refer to:
   * J. Kohn, N. Gildemeister, S. Grimme, D. Fazzi, A. Hansen,
     J. Chem. Phys., 2023, just accepted.
   
   for PTB refer to:
   * S. Grimme, M. Mueller, A. Hansen, J. Chem. Phys., 2023, 158, 124111.
     DOI: 10.1063/5.0137838
   
   with help from (in alphabetical order)
   P. Atkinson, C. Bannwarth, F. Bohle, G. Brandenburg, E. Caldeweyher
   M. Checinski, S. Dohm, S. Ehlert, S. Ehrlich, I. Gerasimov, C. Hölzer
   A. Katbashev, J. Kohn, J. Koopman, C. Lavigne, S. Lehtola, F. März, M. Müller,
   F. Musil, H. Neugebauer, J. Pisarek, C. Plett, P. Pracht, F. Pultar,
   J. Seibert, P. Shushkov, S. Spicher, M. Stahn, M. Steiner, T. Strunk,
   J. Stückrath, T. Rose, and J. Unsleber
   
 * started run on 2025/12/08 at 00:31:41.448     
   ID    Z sym.   atoms
    1    6 C      1-102
    2    1 H      103-128, 131, 132
    3    7 N      129, 130

           -------------------------------------------------
          |                Calculation Setup                |
           -------------------------------------------------

          program call               : xtb "C:\Users\LENOVO GAMING\Documents\GitHub\molecular-conductivity-sim\results\1.5nm-2Ndoped-1.5percent\xtbopt.xyz" --sp
          coordinate file            : C:\Users\LENOVO GAMING\Documents\GitHub\molecular-conductivity-sim\results\1.5nm-2Ndoped-1.5percent\xtbopt.xyz
          omp threads                :                    16


           -------------------------------------------------
          |                 G F N 2 - x T B                 |
           -------------------------------------------------

        Reference                      10.1021/acs.jctc.8b01176
      * Hamiltonian:
        H0-scaling (s, p, d)           1.850000    2.230000    2.230000
        zeta-weighting                 0.500000
      * Dispersion:
        s8                             2.700000
        a1                             0.520000
        a2                             5.000000
        s9                             5.000000
      * Repulsion:
        kExp                           1.500000    1.000000
        rExp                           1.000000
      * Coulomb:
        alpha                          2.000000
        third order                    shell-resolved
        anisotropic                    true
        a3                             3.000000
        a5                             4.000000
        cn-shift                       1.200000
        cn-exp                         4.000000
        max-rad                        5.000000

q/qsh data taken from xtbrestart
CAMM data taken from xtbrestart

          ...................................................
          :                      SETUP                      :
          :.................................................:
          :  # basis functions                 444          :
          :  # atomic orbitals                 444          :
          :  # shells                          236          :
          :  # electrons                       446          :
          :  max. iterations                   250          :
          :  Hamiltonian                  GFN2-xTB          :
          :  restarted?                       true          :
          :  GBSA solvation                  false          :
          :  PC potential                    false          :
          :  electronic temp.          300.0000000     K    :
          :  accuracy                    1.0000000          :
          :  -> integral cutoff          0.2500000E+02      :
          :  -> integral neglect         0.1000000E-07      :
          :  -> SCF convergence          0.1000000E-05 Eh   :
          :  -> wf. convergence          0.1000000E-03 e    :
          :  Broyden damping             0.4000000          :
          :  net charge                          0          :
          :  unpaired electrons                  0          :
          ...................................................

 iter      E             dE          RMSdq      gap      omega  full diag
   1   -244.0724298 -0.244072E+03  0.300E-05    0.32       0.0  T
   2   -244.0724298  0.869818E-08  0.182E-04    0.32      47.8  T
   3   -244.0724298 -0.891404E-08  0.902E-06    0.32     964.8  T

   *** convergence criteria satisfied after 3 iterations ***

         #    Occupation            Energy/Eh            Energy/eV
      -------------------------------------------------------------
         1        2.0000           -0.6764468             -18.4071
       ...           ...                  ...                  ...
       217        2.0000           -0.3766929             -10.2503
       218        2.0000           -0.3722699             -10.1300
       219        2.0000           -0.3690976             -10.0437
       220        2.0000           -0.3547847              -9.6542
       221        2.0000           -0.3476865              -9.4610
       222        2.0000           -0.3389215              -9.2225
       223        1.9955           -0.3243835              -8.8269 (HOMO)
       224        0.0045           -0.3127984              -8.5117 (LUMO)
       225                         -0.2855523              -7.7703
       226                         -0.2787110              -7.5841
       227                         -0.2642354              -7.1902
       228                         -0.2588750              -7.0443
       ...                                ...                  ...
       444                          0.7880312              21.4434
      -------------------------------------------------------------
                  HL-Gap            0.0115851 Eh            0.3152 eV
             Fermi-level           -0.3185910 Eh           -8.6693 eV

 SCC (total)                   0 d,  0 h,  0 min,  0.285 sec
 SCC setup                      ...        0 min,  0.001 sec (  0.351%)
 Dispersion                     ...        0 min,  0.011 sec (  3.860%)
 classical contributions        ...        0 min,  0.001 sec (  0.351%)
 integral evaluation            ...        0 min,  0.023 sec (  8.070%)
 iterations                     ...        0 min,  0.166 sec ( 58.246%)
 molecular gradient             ...        0 min,  0.079 sec ( 27.719%)
 printout                       ...        0 min,  0.004 sec (  1.403%)

         :::::::::::::::::::::::::::::::::::::::::::::::::::::
         ::                     SUMMARY                     ::
         :::::::::::::::::::::::::::::::::::::::::::::::::::::
         :: total energy            -239.386898252915 Eh    ::
         :: gradient norm              0.000418338170 Eh/a0 ::
         :: HOMO-LUMO gap              0.315246591928 eV    ::
         ::.................................................::
         :: SCC energy              -244.080517589279 Eh    ::
         :: -> isotropic ES            0.012047225620 Eh    ::
         :: -> anisotropic ES          0.016730568975 Eh    ::
         :: -> anisotropic XC          0.087093981089 Eh    ::
         :: -> dispersion             -0.289845779688 Eh    ::
         :: repulsion energy           4.693619336363 Eh    ::
         :: add. restraining           0.000000000000 Eh    ::
         :: total charge               0.000000001017 e     ::
         :::::::::::::::::::::::::::::::::::::::::::::::::::::

           -------------------------------------------------
          |                Property Printout                |
           -------------------------------------------------

    * Orbital Energies and Occupations

         #    Occupation            Energy/Eh            Energy/eV
      -------------------------------------------------------------
         1        2.0000           -0.6764468             -18.4071
       ...           ...                  ...                  ...
       211        2.0000           -0.3922500             -10.6737
       212        2.0000           -0.3912743             -10.6471
       213        2.0000           -0.3833364             -10.4311
       214        2.0000           -0.3817359             -10.3876
       215        2.0000           -0.3814271             -10.3792
       216        2.0000           -0.3806442             -10.3579
       217        2.0000           -0.3766929             -10.2503
       218        2.0000           -0.3722699             -10.1300
       219        2.0000           -0.3690976             -10.0437
       220        2.0000           -0.3547847              -9.6542
       221        2.0000           -0.3476865              -9.4610
       222        2.0000           -0.3389215              -9.2225
       223        1.9955           -0.3243835              -8.8269 (HOMO)
       224        0.0045           -0.3127984              -8.5117 (LUMO)
       225                         -0.2855523              -7.7703
       226                         -0.2787110              -7.5841
       227                         -0.2642354              -7.1902
       228                         -0.2588750              -7.0443
       229                         -0.2556872              -6.9576
       230                         -0.2522226              -6.8633
       231                         -0.2477684              -6.7421
       232                         -0.2405398              -6.5454
       233                         -0.2362238              -6.4280
       234                         -0.2318187              -6.3081
       ...                                ...                  ...
       444                          0.7880312              21.4434
      -------------------------------------------------------------
                  HL-Gap            0.0115851 Eh            0.3152 eV
             Fermi-level           -0.3185910 Eh           -8.6693 eV

     #   Z          covCN         q      C6AA      α(0)
     1   6 C        2.919    -0.037    28.927     8.820
     2   6 C        2.919    -0.038    28.948     8.823
     3   6 C        2.980     0.004    27.936     8.670
     4   6 C        2.920    -0.049    29.214     8.863
     5   6 C        2.979     0.003    27.958     8.673
     6   6 C        2.990     0.001    27.999     8.680
     7   6 C        2.922    -0.037    28.928     8.820
     8   6 C        2.919    -0.038    28.934     8.821
     9   6 C        2.979     0.004    27.929     8.669
    10   6 C        2.919    -0.037    28.916     8.818
    11   6 C        2.980     0.004    27.918     8.667
    12   6 C        2.990     0.001    28.001     8.680
    13   6 C        2.920    -0.066    29.638     8.928
    14   6 C        2.996    -0.009    28.242     8.717
    15   6 C        2.989    -0.005    28.131     8.700
    16   6 C        2.994    -0.006    28.161     8.705
    17   6 C        2.921    -0.085    30.117     9.000
    18   6 C        2.917    -0.029    28.722     8.788
    19   6 C        2.978     0.006    27.877     8.661
    20   6 C        2.990     0.001    27.986     8.678
    21   6 C        2.985    -0.000    28.033     8.685
    22   6 C        2.918     0.068    26.479     8.438
    23   6 C        2.989     0.004    27.935     8.670
    24   6 C        2.989    -0.000    28.024     8.684
    25   6 C        2.910     0.064    26.562     8.451
    26   6 C        2.991    -0.001    28.037     8.686
    27   6 C        2.977     0.013    27.722     8.637
    28   6 C        2.912    -0.031    28.764     8.794
    29   6 C        2.975     0.006    27.890     8.663
    30   6 C        2.980     0.012    27.752     8.641
    31   6 C        2.989     0.001    27.997     8.680
    32   6 C        2.986     0.000    28.012     8.682
    33   6 C        2.976     0.011    27.767     8.644
    34   6 C        2.986    -0.001    28.050     8.688
    35   6 C        2.987    -0.001    28.047     8.687
    36   6 C        2.989     0.001    28.003     8.680
    37   6 C        2.977     0.013    27.722     8.637
    38   6 C        2.921    -0.037    28.931     8.820
    39   6 C        2.995    -0.000    28.021     8.683
    40   6 C        2.925    -0.047    29.159     8.855
    41   6 C        2.987    -0.001    28.035     8.685
    42   6 C        2.994    -0.002    28.074     8.692
    43   6 C        2.925    -0.054    29.330     8.881
    44   6 C        2.988    -0.001    28.047     8.687
    45   6 C        2.910     0.064    26.562     8.451
    46   6 C        2.919    -0.038    28.934     8.821
    47   6 C        2.989    -0.001    28.041     8.686
    48   6 C        2.925    -0.047    29.159     8.855
    49   6 C        2.989    -0.001    28.041     8.686
    50   6 C        2.995    -0.000    28.021     8.683
    51   6 C        2.991    -0.001    28.037     8.686
    52   6 C        2.979     0.004    27.929     8.669
    53   6 C        2.990    -0.002    28.069     8.691
    54   6 C        2.989     0.004    27.935     8.670
    55   6 C        2.989    -0.001    28.052     8.688
    56   6 C        2.918     0.068    26.479     8.438
    57   6 C        2.989    -0.001    28.044     8.687
    58   6 C        2.921    -0.037    28.931     8.820
    59   6 C        2.989    -0.000    28.024     8.684
    60   6 C        2.922    -0.037    28.928     8.820
    61   6 C        2.994    -0.003    28.099     8.695
    62   6 C        2.990     0.001    27.986     8.678
    63   6 C        2.989    -0.001    28.047     8.687
    64   6 C        2.978     0.006    27.877     8.661
    65   6 C        2.987    -0.001    28.039     8.686
    66   6 C        2.917    -0.029    28.722     8.788
    67   6 C        2.985    -0.000    28.033     8.685
    68   6 C        2.925    -0.054    29.330     8.881
    69   6 C        2.980     0.004    27.918     8.667
    70   6 C        2.994    -0.002    28.074     8.692
    71   6 C        2.919    -0.037    28.916     8.818
    72   6 C        2.987    -0.001    28.035     8.685
    73   6 C        2.990     0.001    28.001     8.680
    74   6 C        2.987    -0.001    28.039     8.686
    75   6 C        2.976     0.011    27.767     8.644
    76   6 C        2.919    -0.038    28.948     8.823
    77   6 C        2.989    -0.001    28.047     8.687
    78   6 C        2.986     0.000    28.012     8.682
    79   6 C        2.994    -0.003    28.099     8.695
    80   6 C        2.989     0.001    27.997     8.680
    81   6 C        2.921    -0.085    30.117     9.000
    82   6 C        2.980     0.004    27.936     8.670
    83   6 C        2.989    -0.001    28.044     8.687
    84   6 C        2.989    -0.001    28.052     8.688
    85   6 C        2.980     0.012    27.752     8.641
    86   6 C        2.990    -0.002    28.069     8.691
    87   6 C        2.975     0.006    27.890     8.663
    88   6 C        2.994    -0.006    28.161     8.705
    89   6 C        2.919    -0.037    28.927     8.820
    90   6 C        2.989    -0.001    28.041     8.686
    91   6 C        2.996    -0.009    28.242     8.717
    92   6 C        2.989    -0.001    28.041     8.686
    93   6 C        2.920    -0.066    29.638     8.928
    94   6 C        2.988    -0.001    28.047     8.687
    95   6 C        2.912    -0.031    28.764     8.794
    96   6 C        2.989    -0.005    28.131     8.700
    97   6 C        2.989     0.001    28.003     8.680
    98   6 C        2.979     0.003    27.958     8.673
    99   6 C        2.987    -0.001    28.047     8.687
   100   6 C        2.920    -0.049    29.214     8.863
   101   6 C        2.986    -0.001    28.050     8.688
   102   6 C        2.990     0.001    27.999     8.680
   103   1 H        0.926     0.032     2.559     2.502
   104   1 H        0.926     0.032     2.552     2.498
   105   1 H        0.926     0.033     2.550     2.497
   106   1 H        0.926     0.031     2.577     2.510
   107   1 H        0.926     0.032     2.558     2.501
   108   1 H        0.926     0.033     2.549     2.497
   109   1 H        0.926     0.023     2.683     2.561
   110   1 H        0.926     0.019     2.742     2.589
   111   1 H        0.926     0.031     2.567     2.506
   112   1 H        0.926     0.028     2.621     2.532
   113   1 H        0.926     0.029     2.597     2.520
   114   1 H        0.926     0.029     2.601     2.522
   115   1 H        0.926     0.026     2.644     2.543
   116   1 H        0.926     0.032     2.558     2.501
   117   1 H        0.926     0.029     2.601     2.522
   118   1 H        0.926     0.029     2.597     2.520
   119   1 H        0.926     0.031     2.577     2.510
   120   1 H        0.926     0.031     2.567     2.506
   121   1 H        0.926     0.026     2.644     2.543
   122   1 H        0.926     0.033     2.549     2.497
   123   1 H        0.926     0.032     2.552     2.498
   124   1 H        0.926     0.019     2.742     2.589
   125   1 H        0.926     0.032     2.559     2.502
   126   1 H        0.926     0.023     2.683     2.561
   127   1 H        0.926     0.028     2.621     2.532
   128   1 H        0.926     0.033     2.550     2.497
   129   7 N        2.706    -0.123    23.674     7.226
   130   7 N        2.706    -0.123    23.674     7.226
   131   1 H        0.860     0.165     1.305     1.790
   132   1 H        0.860     0.165     1.305     1.790

 Mol. C6AA /au·bohr⁶  :     354887.159846
 Mol. C8AA /au·bohr⁸  :    9692036.918681
 Mol. α(0) /au        :        972.393077


Wiberg/Mayer (AO) data.
largest (>0.10) Wiberg bond orders for each atom

 ---------------------------------------------------------------------------
     #   Z sym  total        # sym  WBO       # sym  WBO       # sym  WBO
 ---------------------------------------------------------------------------
     1   6 C    3.972 --     8 C    1.488     9 C    1.346   103 H    0.961
     2   6 C    3.960 --    10 C    1.499    11 C    1.330   104 H    0.960
     3   6 C    3.965 --     8 C    1.337    12 C    1.277    11 C    1.152
     4   6 C    3.959 --    18 C    1.467    19 C    1.342   105 H    0.962
     5   6 C    3.959 --    10 C    1.334    20 C    1.285    19 C    1.141
     6   6 C    3.977 --    11 C    1.283    20 C    1.252    21 C    1.218
     7   6 C    3.902 --    29 C    1.392    28 C    1.382   106 H    0.962
     8   6 C    3.954 --     1 C    1.488     3 C    1.337   107 H    0.960
     9   6 C    3.950 --     1 C    1.346    31 C    1.278    29 C    1.135
    10   6 C    3.962 --     2 C    1.499     5 C    1.334   108 H    0.961
    11   6 C    3.961 --     2 C    1.330     6 C    1.283     3 C    1.152
    12   6 C    3.975 --     3 C    1.277    31 C    1.249    34 C    1.226
    13   6 C    3.959 --    18 C    1.412    22 C    1.372   109 H    0.968
    14   6 C    3.976 --    19 C    1.297    22 C    1.258    23 C    1.181
    15   6 C    3.961 --    23 C    1.267    24 C    1.256    20 C    1.217
    16   6 C    3.943 --    23 C    1.295    26 C    1.255    25 C    1.172
    17   6 C    3.926 --    25 C    1.488    27 C    1.230   110 H    0.965
    18   6 C    3.978 --     4 C    1.467    13 C    1.412   111 H    0.971
    19   6 C    3.973 --     4 C    1.342    14 C    1.297     5 C    1.141
    20   6 C    3.980 --     5 C    1.285     6 C    1.252    15 C    1.217
    21   6 C    3.953 --    44 C    1.274    34 C    1.247     6 C    1.218
    22   6 C    3.960 --    13 C    1.372    14 C    1.258   129 N    1.154
    23   6 C    3.952 --    16 C    1.295    15 C    1.267    14 C    1.181
    24   6 C    3.969 --    53 C    1.269    15 C    1.256    44 C    1.221
    25   6 C    3.950 --    17 C    1.488    16 C    1.172   129 N    1.135
    26   6 C    3.971 --    61 C    1.271    16 C    1.255    53 C    1.230
    27   6 C    3.978 --    68 C    1.403    17 C    1.230    61 C    1.189
    28   6 C    3.983 --    38 C    1.507     7 C    1.382   112 H    0.970
    29   6 C    3.982 --     7 C    1.392    39 C    1.262     9 C    1.135
    30   6 C    3.985 --    40 C    1.330    38 C    1.274    39 C    1.218
    31   6 C    3.981 --     9 C    1.278    12 C    1.249    41 C    1.229
    32   6 C    3.980 --    42 C    1.280    39 C    1.255    41 C    1.220
    33   6 C    3.985 --    40 C    1.353    43 C    1.287    42 C    1.185
    34   6 C    3.959 --    74 C    1.269    21 C    1.247    12 C    1.226
    35   6 C    3.969 --    41 C    1.283    77 C    1.246    74 C    1.219
    36   6 C    3.978 --    42 C    1.267    79 C    1.265    77 C    1.225
    37   6 C    3.978 --    43 C    1.403    81 C    1.230    79 C    1.189
    38   6 C    3.907 --    28 C    1.507    30 C    1.274   113 H    0.969
    39   6 C    3.955 --    29 C    1.262    32 C    1.255    30 C    1.218
    40   6 C    3.826 --    33 C    1.353    30 C    1.330   114 H    0.966
    41   6 C    3.939 --    35 C    1.283    31 C    1.229    32 C    1.220
    42   6 C    3.958 --    32 C    1.280    36 C    1.267    33 C    1.185
    43   6 C    3.851 --    37 C    1.403    33 C    1.287   115 H    0.967
    44   6 C    3.960 --    21 C    1.274    83 C    1.249    24 C    1.221
    45   6 C    3.950 --    81 C    1.488    88 C    1.172   130 N    1.135
    46   6 C    3.954 --    89 C    1.488    82 C    1.337   116 H    0.960
    47   6 C    3.964 --    74 C    1.255    84 C    1.251    83 C    1.241
    48   6 C    3.826 --    75 C    1.353    85 C    1.330   117 H    0.966
    49   6 C    3.965 --    77 C    1.269    86 C    1.244    84 C    1.233
    50   6 C    3.955 --    87 C    1.262    78 C    1.255    85 C    1.218
    51   6 C    3.971 --    79 C    1.271    88 C    1.255    86 C    1.230
    52   6 C    3.950 --    89 C    1.346    80 C    1.278    87 C    1.135
    53   6 C    3.964 --    24 C    1.269    90 C    1.244    26 C    1.230
    54   6 C    3.952 --    88 C    1.295    96 C    1.267    91 C    1.181
    55   6 C    3.952 --    83 C    1.257    92 C    1.251    90 C    1.233
    56   6 C    3.960 --    93 C    1.372    91 C    1.258   130 N    1.154
    57   6 C    3.962 --    84 C    1.257    94 C    1.249    92 C    1.241
    58   6 C    3.907 --    95 C    1.507    85 C    1.274   118 H    0.969
    59   6 C    3.969 --    86 C    1.269    96 C    1.256    94 C    1.221
    60   6 C    3.902 --    87 C    1.392    95 C    1.382   119 H    0.962
    61   6 C    3.938 --    26 C    1.271    97 C    1.265    27 C    1.189
    62   6 C    3.980 --    98 C    1.285   102 C    1.252    96 C    1.217
    63   6 C    3.953 --    90 C    1.269    99 C    1.246    97 C    1.225
    64   6 C    3.973 --   100 C    1.342    91 C    1.297    98 C    1.141
    65   6 C    3.959 --   101 C    1.269    92 C    1.255    99 C    1.219
    66   6 C    3.978 --   100 C    1.467    93 C    1.412   120 H    0.971
    67   6 C    3.953 --    94 C    1.274   101 C    1.247   102 C    1.218
    68   6 C    3.851 --    27 C    1.403    75 C    1.287   121 H    0.967
    69   6 C    3.961 --    76 C    1.330   102 C    1.283    82 C    1.152
    70   6 C    3.958 --    78 C    1.280    97 C    1.267    75 C    1.185
    71   6 C    3.962 --    76 C    1.499    98 C    1.334   122 H    0.961
    72   6 C    3.939 --    99 C    1.283    80 C    1.229    78 C    1.220
    73   6 C    3.975 --    82 C    1.277    80 C    1.249   101 C    1.226
    74   6 C    3.959 --    34 C    1.269    47 C    1.255    35 C    1.219
    75   6 C    3.985 --    48 C    1.353    68 C    1.287    70 C    1.185
    76   6 C    3.960 --    71 C    1.499    69 C    1.330   123 H    0.960
    77   6 C    3.953 --    49 C    1.269    35 C    1.246    36 C    1.225
    78   6 C    3.980 --    70 C    1.280    50 C    1.255    72 C    1.220
    79   6 C    3.938 --    51 C    1.271    36 C    1.265    37 C    1.189
    80   6 C    3.981 --    52 C    1.278    73 C    1.249    72 C    1.229
    81   6 C    3.926 --    45 C    1.488    37 C    1.230   124 H    0.965
    82   6 C    3.965 --    46 C    1.337    73 C    1.277    69 C    1.152
    83   6 C    3.962 --    55 C    1.257    44 C    1.249    47 C    1.241
    84   6 C    3.952 --    57 C    1.257    47 C    1.251    49 C    1.233
    85   6 C    3.985 --    48 C    1.330    58 C    1.274    50 C    1.218
    86   6 C    3.964 --    59 C    1.269    49 C    1.244    51 C    1.230
    87   6 C    3.982 --    60 C    1.392    50 C    1.262    52 C    1.135
    88   6 C    3.943 --    54 C    1.295    51 C    1.255    45 C    1.172
    89   6 C    3.972 --    46 C    1.488    52 C    1.346   125 H    0.961
    90   6 C    3.965 --    63 C    1.269    53 C    1.244    55 C    1.233
    91   6 C    3.976 --    64 C    1.297    56 C    1.258    54 C    1.181
    92   6 C    3.964 --    65 C    1.255    55 C    1.251    57 C    1.241
    93   6 C    3.959 --    66 C    1.412    56 C    1.372   126 H    0.968
    94   6 C    3.960 --    67 C    1.274    57 C    1.249    59 C    1.221
    95   6 C    3.983 --    58 C    1.507    60 C    1.382   127 H    0.970
    96   6 C    3.961 --    54 C    1.267    59 C    1.256    62 C    1.217
    97   6 C    3.978 --    70 C    1.267    61 C    1.265    63 C    1.225
    98   6 C    3.959 --    71 C    1.334    62 C    1.285    64 C    1.141
    99   6 C    3.969 --    72 C    1.283    63 C    1.246    65 C    1.219
   100   6 C    3.959 --    66 C    1.467    64 C    1.342   128 H    0.962
   101   6 C    3.959 --    65 C    1.269    67 C    1.247    73 C    1.226
   102   6 C    3.977 --    69 C    1.283    62 C    1.252    67 C    1.218
   103   1 H    0.998 --     1 C    0.961
   104   1 H    0.998 --     2 C    0.960
   105   1 H    0.998 --     4 C    0.962
   106   1 H    0.999 --     7 C    0.962
   107   1 H    0.998 --     8 C    0.960
   108   1 H    0.998 --    10 C    0.961
   109   1 H    0.999 --    13 C    0.968
   110   1 H    0.998 --    17 C    0.965
   111   1 H    0.998 --    18 C    0.971
   112   1 H    0.998 --    28 C    0.970
   113   1 H    0.998 --    38 C    0.969
   114   1 H    0.998 --    40 C    0.966
   115   1 H    0.998 --    43 C    0.967
   116   1 H    0.998 --    46 C    0.960
   117   1 H    0.998 --    48 C    0.966
   118   1 H    0.998 --    58 C    0.969
   119   1 H    0.999 --    60 C    0.962
   120   1 H    0.998 --    66 C    0.971
   121   1 H    0.998 --    68 C    0.967
   122   1 H    0.998 --    71 C    0.961
   123   1 H    0.998 --    76 C    0.960
   124   1 H    0.998 --    81 C    0.965
   125   1 H    0.998 --    89 C    0.961
   126   1 H    0.999 --    93 C    0.968
   127   1 H    0.998 --    95 C    0.970
   128   1 H    0.998 --   100 C    0.962
   129   7 N    3.494 --    22 C    1.154    25 C    1.135   131 H    0.938
   130   7 N    3.494 --    56 C    1.154    45 C    1.135   132 H    0.938
   131   1 H    0.972 --   129 N    0.938
   132   1 H    0.972 --   130 N    0.938
 ---------------------------------------------------------------------------

Topologies differ in total number of bonds
Writing topology from bond orders to xtbtopo.mol

molecular dipole:
                 x           y           z       tot (Debye)
 q only:        0.000       0.000      -0.000
   full:        0.000       0.000      -0.000       0.000
molecular quadrupole (traceless):
                xx          xy          yy          xz          yz          zz
 q only:       29.366     -27.180      -0.945      -0.002       0.004     -28.421
  q+dip:       66.475     -30.470      19.680      -0.002       0.008     -86.156
   full:       47.390     -30.786      -0.197       0.001       0.006     -47.193


           -------------------------------------------------
          | TOTAL ENERGY             -239.386898252915 Eh   |
          | GRADIENT NORM               0.000418338170 Eh/α |
          | HOMO-LUMO GAP               0.315246591928 eV   |
           -------------------------------------------------

------------------------------------------------------------------------
 * finished run on 2025/12/08 at 00:31:41.822     
------------------------------------------------------------------------
 total:
 * wall-time:     0 d,  0 h,  0 min,  0.371 sec
 *  cpu-time:     0 d,  0 h,  0 min,  4.547 sec
 * ratio c/w:    12.256 speedup
 SCF:
 * wall-time:     0 d,  0 h,  0 min,  0.289 sec
 *  cpu-time:     0 d,  0 h,  0 min,  3.656 sec
 * ratio c/w:    12.651 speedup

normal termination of xtb
