      -----------------------------------------------------------      
     |                   =====================                   |     
     |                           x T B                           |     
     |                   =====================                   |     
     |                         S. Grimme                         |     
     |          Mulliken Center for Theoretical Chemistry        |     
     |                    University of Bonn                     |     
      -----------------------------------------------------------      

   * xtb version 6.7.1pre (5071a88) compiled by 'Marcel@Raven' on 2024-07-23

   xtb is free software: you can redistribute it and/or modify it under
   the terms of the GNU Lesser General Public License as published by
   the Free Software Foundation, either version 3 of the License, or
   (at your option) any later version.
   
   xtb is distributed in the hope that it will be useful,
   but WITHOUT ANY WARRANTY; without even the implied warranty of
   MERCHANTABILITY or FITNESS FOR A PARTICULAR PURPOSE.  See the
   GNU Lesser General Public License for more details.
   
   Cite this work as:
   * C. Bannwarth, E. Caldeweyher, S. Ehlert, A. Hansen, P. Pracht,
     J. Seibert, S. Spicher, S. Grimme, WIREs Comput. Mol. Sci., 2020, 11,
     e01493. DOI: 10.1002/wcms.1493
   
   for GFN2-xTB:
   * C. Bannwarth, S. Ehlert and S. Grimme., J. Chem. Theory Comput., 2019,
     15, 1652-1671. DOI: 10.1021/acs.jctc.8b01176
   for GFN1-xTB:
   * S. Grimme, C. Bannwarth, P. Shushkov, J. Chem. Theory Comput., 2017,
     13, 1989-2009. DOI: 10.1021/acs.jctc.7b00118
   for GFN0-xTB:
   * P. Pracht, E. Caldeweyher, S. Ehlert, S. Grimme, ChemRxiv, 2019, preprint.
     DOI: 10.26434/chemrxiv.8326202.v1
   for GFN-FF:
   * S. Spicher and S. Grimme, Angew. Chem. Int. Ed., 2020, 59, 15665-15673.
     DOI: 10.1002/anie.202004239
   
   for ALPB and GBSA implicit solvation:
   * S. Ehlert, M. Stahn, S. Spicher, S. Grimme, J. Chem. Theory Comput.,
     2021, 17, 4250-4261. DOI: 10.1021/acs.jctc.1c00471
   
   for ddCOSMO and CPCM-X implicit solvation:
   * M. Stahn, S. Ehlert, S. Grimme, J. Phys. Chem. A,
     2023, XX, XXXX-XXXX. DOI: 10.1021/acs.jpca.3c04382
   
   for DFT-D4:
   * E. Caldeweyher, C. Bannwarth and S. Grimme, J. Chem. Phys., 2017,
     147, 034112. DOI: 10.1063/1.4993215
   * E. Caldeweyher, S. Ehlert, A. Hansen, H. Neugebauer, S. Spicher,
     C. Bannwarth and S. Grimme, J. Chem. Phys., 2019, 150, 154122.
     DOI: 10.1063/1.5090222
   * E. Caldeweyher, J.-M. Mewes, S. Ehlert and S. Grimme, Phys. Chem. Chem. Phys.
     2020, 22, 8499-8512. DOI: 10.1039/D0CP00502A
   
   for sTDA-xTB:
   * S. Grimme and C. Bannwarth, J. Chem. Phys., 2016, 145, 054103.
     DOI: 10.1063/1.4959605
   
   in the mass-spec context:
   * V. Asgeirsson, C. Bauer and S. Grimme, Chem. Sci., 2017, 8, 4879.
     DOI: 10.1039/c7sc00601b
   * J. Koopman and S. Grimme, ACS Omega 2019, 4, 12, 15120-15133.
     DOI: 10.1021/acsomega.9b02011
   
   for metadynamics refer to:
   * S. Grimme, J. Chem. Theory Comput., 2019, 155, 2847-2862
     DOI: 10.1021/acs.jctc.9b00143
   
   for SPH calculations refer to:
   * S. Spicher and S. Grimme, J. Chem. Theory Comput., 2021, 17, 1701-1714
     DOI: 10.1021/acs.jctc.0c01306
   
   for ONIOM refer to:
   * C. Plett, A. Katbashev, S. Ehlert, S. Grimme, M. Bursch,
     Phys. Chem. Chem. Phys., 2023, 25, 17860-17868. DOI: 10.1039/D3CP02178E
   
   for DIPRO refer to:
   * J. Kohn, N. Gildemeister, S. Grimme, D. Fazzi, A. Hansen,
     J. Chem. Phys., 2023, just accepted.
   
   for PTB refer to:
   * S. Grimme, M. Mueller, A. Hansen, J. Chem. Phys., 2023, 158, 124111.
     DOI: 10.1063/5.0137838
   
   with help from (in alphabetical order)
   P. Atkinson, C. Bannwarth, F. Bohle, G. Brandenburg, E. Caldeweyher
   M. Checinski, S. Dohm, S. Ehlert, S. Ehrlich, I. Gerasimov, C. Hölzer
   A. Katbashev, J. Kohn, J. Koopman, C. Lavigne, S. Lehtola, F. März, M. Müller,
   F. Musil, H. Neugebauer, J. Pisarek, C. Plett, P. Pracht, F. Pultar,
   J. Seibert, P. Shushkov, S. Spicher, M. Stahn, M. Steiner, T. Strunk,
   J. Stückrath, T. Rose, and J. Unsleber
   
 * started run on 2025/12/08 at 00:31:35.728     
   ID    Z sym.   atoms
    1    6 C      1-102
    2    1 H      103-128, 131, 132
    3    7 N      129, 130

           -------------------------------------------------
          |                Calculation Setup                |
           -------------------------------------------------

          program call               : xtb "C:\Users\LENOVO GAMING\Documents\GitHub\molecular-conductivity-sim\dataset\1.5nm-2Ndoped-1.5percent.xyz" --opt --parallel 4
          coordinate file            : C:\Users\LENOVO GAMING\Documents\GitHub\molecular-conductivity-sim\dataset\1.5nm-2Ndoped-1.5percent.xyz
          omp threads                :                     4


           -------------------------------------------------
          |                 G F N 2 - x T B                 |
           -------------------------------------------------

        Reference                      10.1021/acs.jctc.8b01176
      * Hamiltonian:
        H0-scaling (s, p, d)           1.850000    2.230000    2.230000
        zeta-weighting                 0.500000
      * Dispersion:
        s8                             2.700000
        a1                             0.520000
        a2                             5.000000
        s9                             5.000000
      * Repulsion:
        kExp                           1.500000    1.000000
        rExp                           1.000000
      * Coulomb:
        alpha                          2.000000
        third order                    shell-resolved
        anisotropic                    true
        a3                             3.000000
        a5                             4.000000
        cn-shift                       1.200000
        cn-exp                         4.000000
        max-rad                        5.000000


          ...................................................
          :                      SETUP                      :
          :.................................................:
          :  # basis functions                 444          :
          :  # atomic orbitals                 444          :
          :  # shells                          236          :
          :  # electrons                       446          :
          :  max. iterations                   250          :
          :  Hamiltonian                  GFN2-xTB          :
          :  restarted?                      false          :
          :  GBSA solvation                  false          :
          :  PC potential                    false          :
          :  electronic temp.          300.0000000     K    :
          :  accuracy                    1.0000000          :
          :  -> integral cutoff          0.2500000E+02      :
          :  -> integral neglect         0.1000000E-07      :
          :  -> SCF convergence          0.1000000E-05 Eh   :
          :  -> wf. convergence          0.1000000E-03 e    :
          :  Broyden damping             0.4000000          :
          :  net charge                          0          :
          :  unpaired electrons                  0          :
          ...................................................

 iter      E             dE          RMSdq      gap      omega  full diag
   1   -243.5933014 -0.243593E+03  0.485E+00    0.34       0.0  T
   2   -243.6863679 -0.930665E-01  0.305E+00    0.31       1.0  T
   3   -243.3384121  0.347956E+00  0.177E+00    0.49       1.0  T
   4   -243.6737838 -0.335372E+00  0.660E-01    0.33       1.0  T
   5   -243.7539176 -0.801339E-01  0.238E-01    0.35       1.0  T
   6   -243.7655703 -0.116527E-01  0.736E-02    0.33       1.0  T
   7   -243.7659567 -0.386344E-03  0.351E-02    0.33       1.0  T
   8   -243.7660334 -0.767151E-04  0.166E-02    0.33       1.0  T
   9   -243.7658508  0.182558E-03  0.284E-02    0.33       1.0  T
  10   -243.7660311 -0.180297E-03  0.111E-02    0.33       1.0  T
  11   -243.7660595 -0.283812E-04  0.212E-03    0.33       4.1  T
  12   -243.7660601 -0.623893E-06  0.584E-04    0.33      14.9  T
  13   -243.7660602 -0.289473E-07  0.297E-04    0.33      29.3  T

   *** convergence criteria satisfied after 13 iterations ***

         #    Occupation            Energy/Eh            Energy/eV
      -------------------------------------------------------------
         1        2.0000           -0.6726491             -18.3037
       ...           ...                  ...                  ...
       217        2.0000           -0.3759753             -10.2308
       218        2.0000           -0.3710702             -10.0973
       219        2.0000           -0.3683406             -10.0231
       220        2.0000           -0.3545311              -9.6473
       221        2.0000           -0.3475946              -9.4585
       222        2.0000           -0.3389281              -9.2227
       223        1.9966           -0.3247656              -8.8373 (HOMO)
       224        0.0034           -0.3126279              -8.5070 (LUMO)
       225                         -0.2858552              -7.7785
       226                         -0.2797041              -7.6111
       227                         -0.2657496              -7.2314
       228                         -0.2597549              -7.0683
       ...                                ...                  ...
       444                          0.7534529              20.5025
      -------------------------------------------------------------
                  HL-Gap            0.0121378 Eh            0.3303 eV
             Fermi-level           -0.3186968 Eh           -8.6722 eV

 SCC (total)                   0 d,  0 h,  0 min,  1.023 sec
 SCC setup                      ...        0 min,  0.002 sec (  0.196%)
 Dispersion                     ...        0 min,  0.007 sec (  0.684%)
 classical contributions        ...        0 min,  0.002 sec (  0.195%)
 integral evaluation            ...        0 min,  0.045 sec (  4.399%)
 iterations                     ...        0 min,  0.780 sec ( 76.246%)
 molecular gradient             ...        0 min,  0.182 sec ( 17.791%)
 printout                       ...        0 min,  0.005 sec (  0.489%)

         :::::::::::::::::::::::::::::::::::::::::::::::::::::
         ::                     SUMMARY                     ::
         :::::::::::::::::::::::::::::::::::::::::::::::::::::
         :: total energy            -239.371166793570 Eh    ::
         :: gradient norm              0.042454055495 Eh/a0 ::
         :: HOMO-LUMO gap              0.330285817847 eV    ::
         ::.................................................::
         :: SCC energy              -243.773988660691 Eh    ::
         :: -> isotropic ES            0.011355422295 Eh    ::
         :: -> anisotropic ES          0.017388420739 Eh    ::
         :: -> anisotropic XC          0.093245142412 Eh    ::
         :: -> dispersion             -0.285968382158 Eh    ::
         :: repulsion energy           4.402821867121 Eh    ::
         :: add. restraining           0.000000000000 Eh    ::
         :: total charge               0.000000001127 e     ::
         :::::::::::::::::::::::::::::::::::::::::::::::::::::

      ----------------------------------------------------------- 
     |                   =====================                   |
     |                        A N C O P T                        |
     |                   =====================                   |
     |               Approximate Normal Coordinate               |
     |                Rational Function Optimizer                |
      ----------------------------------------------------------- 
      ----------------------------------------------------------- 
     |                   =====================                   |
     |                        A N C O P T                        |
     |                   =====================                   |
     |               Approximate Normal Coordinate               |
     |                Rational Function Optimizer                |
      ----------------------------------------------------------- 

          ...................................................
          :                      SETUP                      :
          :.................................................:
          :   optimization level            normal          :
          :   max. optcycles                   396          :
          :   ANC micro-cycles                  20          :
          :   degrees of freedom               390          :
          :.................................................:
          :   RF solver                   davidson          :
          :   write xtbopt.log                true          :
          :   linear?                        false          :
          :   energy convergence         0.5000000E-05 Eh   :
          :   grad. convergence          0.1000000E-02 Eh/α :
          :   maxmium RF displ.          1.0000000          :
          :   Hlow (freq-cutoff)         0.1000000E-01      :
          :   Hmax (freq-cutoff)         5.0000000          :
          :   S6 in model hess.         20.0000000          :
          ...................................................

generating ANC from exact Hessian ...
Using Lindh-Hessian (1995)
 Shifting diagonal of input Hessian by   9.882725704062522E-003
 Lowest  eigenvalues of input Hessian
    0.000000    0.000000    0.000000    0.000000    0.000000    0.000000
    0.010000    0.010141    0.010224    0.010418    0.010500    0.011299
    0.011391    0.011554    0.011872    0.012316    0.012975    0.013196
 Highest eigenvalues
    2.103839    2.112072    2.125955    2.131984    2.208881    2.209650
 

........................................................................
.............................. CYCLE    1 ..............................
........................................................................

 iter      E             dE          RMSdq      gap      omega  full diag
   1   -243.7660602 -0.243766E+03  0.113E-04    0.33       0.0  T
   2   -243.7660602  0.492207E-09  0.107E-04    0.33      81.2  T
   3   -243.7660602 -0.167464E-08  0.504E-05    0.33     172.8  T
     SCC iter.                  ...        0 min,  0.190 sec
     gradient                   ...        0 min,  0.179 sec
 * total energy  :  -239.3711668 Eh     change       -0.4192003E-08 Eh
   gradient norm :     0.0424550 Eh/α   predicted     0.0000000E+00 (-100.00%)
   displ. norm   :     0.4982634 α      lambda       -0.1469189E-01
   maximum displ.:     0.4441245 α      in ANC's #46, #70, #62, ...

........................................................................
.............................. CYCLE    2 ..............................
........................................................................

 iter      E             dE          RMSdq      gap      omega  full diag
   1   -243.9147879 -0.243915E+03  0.103E-01    0.33       0.0  T
   2   -243.9147965 -0.858423E-05  0.627E-02    0.33       1.0  T
   3   -243.9146267  0.169728E-03  0.354E-02    0.33       1.0  T
   4   -243.9147269 -0.100200E-03  0.182E-02    0.33       1.0  T
   5   -243.9147492 -0.223144E-04  0.155E-02    0.33       1.0  T
   6   -243.9148116 -0.623701E-04  0.258E-03    0.33       3.4  T
   7   -243.9148127 -0.106081E-05  0.102E-03    0.33       8.6  T
   8   -243.9148127 -0.768277E-07  0.412E-04    0.33      21.1  T
   9   -243.9148128 -0.853197E-08  0.154E-04    0.33      56.4  T
     SCC iter.                  ...        0 min,  0.525 sec
     gradient                   ...        0 min,  0.168 sec
 * total energy  :  -239.3821658 Eh     change       -0.1099898E-01 Eh
   gradient norm :     0.0184314 Eh/α   predicted    -0.9169812E-02 ( -16.63%)
   displ. norm   :     0.4888881 α      lambda       -0.6819247E-02
   maximum displ.:     0.4553320 α      in ANC's #46, #22, #29, ...

........................................................................
.............................. CYCLE    3 ..............................
........................................................................

 iter      E             dE          RMSdq      gap      omega  full diag
   1   -244.0354617 -0.244035E+03  0.882E-02    0.32       0.0  T
   2   -244.0354662 -0.452378E-05  0.543E-02    0.32       1.0  T
   3   -244.0352373  0.228918E-03  0.378E-02    0.32       1.0  T
   4   -244.0354609 -0.223593E-03  0.108E-02    0.32       1.0  T
   5   -244.0354858 -0.248971E-04  0.178E-03    0.32       4.9  T
   6   -244.0354840  0.174205E-05  0.291E-03    0.32       3.0  T
   7   -244.0354851 -0.103717E-05  0.211E-03    0.32       4.1  T
   8   -244.0354862 -0.107703E-05  0.382E-04    0.32      22.8  T
   9   -244.0354862 -0.154741E-07  0.126E-04    0.32      69.2  T
  10   -244.0354862 -0.119471E-08  0.573E-05    0.32     151.8  T
     SCC iter.                  ...        0 min,  0.591 sec
     gradient                   ...        0 min,  0.175 sec
 * total energy  :  -239.3864533 Eh     change       -0.4287487E-02 Eh
   gradient norm :     0.0062624 Eh/α   predicted    -0.4224953E-02 (  -1.46%)
   displ. norm   :     0.1963241 α      lambda       -0.7803016E-03
   maximum displ.:     0.1796258 α      in ANC's #46, #22, #29, ...

........................................................................
.............................. CYCLE    4 ..............................
........................................................................

 iter      E             dE          RMSdq      gap      omega  full diag
   1   -244.0721345 -0.244072E+03  0.365E-02    0.32       0.0  T
   2   -244.0721338  0.702420E-06  0.231E-02    0.32       1.0  T
   3   -244.0720608  0.729902E-04  0.189E-02    0.32       1.0  T
   4   -244.0721360 -0.751861E-04  0.393E-03    0.32       2.2  T
   5   -244.0721390 -0.298577E-05  0.673E-04    0.32      12.9  T
   6   -244.0721390 -0.217642E-07  0.413E-04    0.32      21.1  T
   7   -244.0721386  0.378298E-06  0.123E-03    0.32       7.1  T
   8   -244.0721390 -0.386411E-06  0.250E-04    0.32      34.8  T
     SCC iter.                  ...        0 min,  0.470 sec
     gradient                   ...        0 min,  0.180 sec
 * total energy  :  -239.3868808 Eh     change       -0.4275006E-03 Eh
   gradient norm :     0.0024399 Eh/α   predicted    -0.4051882E-03 (  -5.22%)
   displ. norm   :     0.0271539 α      lambda       -0.2429648E-04
   maximum displ.:     0.0161646 α      in ANC's #46, #22, #29, ...

........................................................................
.............................. CYCLE    5 ..............................
........................................................................

 iter      E             dE          RMSdq      gap      omega  full diag
   1   -244.0734301 -0.244073E+03  0.739E-03    0.32       0.0  T
   2   -244.0734301  0.454117E-07  0.456E-03    0.32       1.9  T
   3   -244.0734270  0.310127E-05  0.362E-03    0.32       2.4  T
   4   -244.0734302 -0.319720E-05  0.543E-04    0.32      16.0  T
   5   -244.0734300  0.222955E-06  0.103E-03    0.32       8.4  T
   6   -244.0734303 -0.283679E-06  0.130E-04    0.32      67.2  T
   7   -244.0734303 -0.230409E-08  0.557E-05    0.32     156.4  T
     SCC iter.                  ...        0 min,  0.404 sec
     gradient                   ...        0 min,  0.170 sec
 * total energy  :  -239.3868961 Eh     change       -0.1536326E-04 Eh
   gradient norm :     0.0011134 Eh/α   predicted    -0.1241793E-04 ( -19.17%)
   displ. norm   :     0.0142477 α      lambda       -0.3732243E-05
   maximum displ.:     0.0087342 α      in ANC's #22, #29, #114, ...

........................................................................
.............................. CYCLE    6 ..............................
........................................................................

 iter      E             dE          RMSdq      gap      omega  full diag
   1   -244.0724298 -0.244072E+03  0.440E-03    0.32       0.0  T
   2   -244.0724298 -0.229882E-07  0.263E-03    0.32       3.3  T
   3   -244.0724294  0.420240E-06  0.142E-03    0.32       6.1  T
   4   -244.0724291  0.255219E-06  0.164E-03    0.32       5.3  T
   5   -244.0724297 -0.540155E-06  0.799E-04    0.32      10.9  T
   6   -244.0724298 -0.163614E-06  0.706E-05    0.32     123.2  T
     SCC iter.                  ...        0 min,  0.358 sec
     gradient                   ...        0 min,  0.188 sec
 * total energy  :  -239.3868983 Eh     change       -0.2127055E-05 Eh
   gradient norm :     0.0004182 Eh/α   predicted    -0.1869336E-05 ( -12.12%)
   displ. norm   :     0.0037499 α      lambda       -0.3040142E-06
   maximum displ.:     0.0020356 α      in ANC's #22, #29, #46, ...

   *** GEOMETRY OPTIMIZATION CONVERGED AFTER 6 ITERATIONS ***

------------------------------------------------------------------------
 total energy gain   :        -0.0157315 Eh       -9.8716 kcal/mol
 total RMSD          :         0.1034636 a0        0.0548 Å
 total power (kW/mol):        -6.8838233 (step)  -10.1183 (real)
------------------------------------------------------------------------

 ANCopt (total)                0 d,  0 h,  0 min,  4.082 sec
 optimizer setup                ...        0 min,  0.001 sec (  0.024%)
 model hessian                  ...        0 min,  0.109 sec (  2.670%)
 ANC generation                 ...        0 min,  0.030 sec (  0.735%)
 coordinate transformation      ...        0 min,  0.001 sec (  0.024%)
 single point calculation       ...        0 min,  3.914 sec ( 95.884%)
 optimization log               ...        0 min,  0.019 sec (  0.465%)
 hessian update                 ...        0 min,  0.002 sec (  0.049%)
 rational function              ...        0 min,  0.003 sec (  0.073%)

================
 final structure:
================
132
 xtb: 6.7.1pre (5071a88)
C           -2.60908367103990       -7.40044386501269       -0.00131083855512
C            1.67779472631950       -7.27824202701558        0.00163927875770
C           -0.53625530574676       -6.15422373271544       -0.00004460079508
C            5.99144306409216       -7.12719838115496        0.00155786860826
C            3.74314648950040       -6.02319393459711        0.00121029391607
C            1.57020555525449       -4.86828236475778        0.00046302333896
C           -5.54001233996211       -7.46771445427112       -0.00195146648389
C           -1.23872162598640       -7.36287249457752       -0.00082272124974
C           -3.37568010583502       -6.23350911753086       -0.00097430125189
C            3.04692676438418       -7.23560023700896        0.00193479290143
C            0.90319503176015       -6.11226649209331        0.00065966421242
C           -1.27700070964009       -4.95085769979920       -0.00009462018604
C            7.99669714888236       -5.80003476127006        0.00039484089277
C            5.82208591700550       -4.72210915301789        0.00029939837461
C            3.64888467188123       -3.56656113614712        0.00016773263453
C            5.71874749556854       -2.27781572958348       -0.00057178588236
C            7.79935679439049       -1.02188083496512       -0.00150893029611
C            7.36621593431526       -7.03362463867771        0.00123533231117
C            5.18799158885004       -5.97916296762633        0.00106947085162
C            2.98995302174404       -4.82658591864029        0.00061000193222
C            0.81858782784341       -3.65804868175585        0.00015155826948
C            7.23159533182794       -4.64290099279789       -0.00005936639209
C            5.05715561625550       -3.51545018673980       -0.00005721810734
C            2.90268133580486       -2.36590046790658       -0.00007174806460
C            7.14574108353737       -2.22189522106876       -0.00100003031006
C            4.98343925891133       -1.07299537022904       -0.00063925599154
C            7.08336904805464        0.20057772080834       -0.00139638948317
C           -6.93097406979731       -7.48071358695871       -0.00186466619430
C           -4.82171061580456       -6.27467508608149       -0.00116110588029
C           -6.96384485072072       -5.07031179350117       -0.00029978086235
C           -2.69789761059077       -4.99149013881890       -0.00039061472890
C           -4.85602753275143       -3.81391147921045       -0.00000376429864
C           -7.01656604780494       -2.63547532176078        0.00074656190345
C           -0.59903776558737       -3.70047833786922        0.00011992783732
C           -2.76070415833320       -2.53871143524210        0.00016722838396
C           -4.91618431020641       -1.36818037132377        0.00056642737105
C           -7.08336920458953       -0.20057841443552        0.00106397479530
C           -7.63852893434676       -6.30759791049902       -0.00096733570340
C           -5.53843687042435       -5.05354745966937       -0.00045933915227
C           -7.66939366791295       -3.86492161480483        0.00043451370554
C           -3.43425135838145       -3.77677554404235       -0.00009966607533
C           -5.58708196933600       -2.60893011854702        0.00045787357295
C           -7.72848609663671       -1.42468309365809        0.00117412319699
C            1.48304723344047       -2.41285247578110        0.00006675441615
C           -7.14574120754982        2.22189499036978        0.00066058950644
C            1.23872203093635        7.36287241697838        0.00213362178655
C           -0.67180941663062       -1.24916488442968        0.00014879843595
C            7.66939414892073        3.86492154378099       -0.00106486176856
C           -2.82686867768420       -0.08666605042266        0.00035090778611
C            5.53843701873208        5.05354769722653        0.00015424598393
C           -4.98343970947667        1.07299486219043        0.00055165581933
C            3.37568036128562        6.23350926870616        0.00131261921096
C            3.56632261007667       -1.12021209934602       -0.00030525465991
C           -5.05715587639518        3.51545001121582        0.00002168374944
C            1.41041115906748        0.04222408015951       -0.00002618962575
C           -7.23159528875821        4.64290133515145       -0.00033410228498
C           -0.74376372814232        1.20529209748680        0.00017252039899
C            7.63852969850677        6.30759854800411       -0.00006029815742
C           -2.90268174338322        2.36590046588821        0.00020693628228
C            5.54001280470061        7.46771553114364        0.00121017714758
C            5.65499390834731        0.16562683226232       -0.00091596249819
C           -2.98995313666442        4.82658612536091       -0.00028561618306
C            3.49684263001974        1.32866395879804       -0.00032104081773
C           -5.18799144734873        5.97916338739765       -0.00106264265537
C            1.33904619646430        2.49725353387745        0.00008654916071
C           -7.36621558519336        7.03362518537394       -0.00177069654817
C           -0.81858815309922        3.65804888345909        0.00021457084047
C            7.72848628952845        1.42468238502077       -0.00161402733082
C           -0.90319500263765        6.11226695113742        0.00016064092071
C            5.58708182548300        2.60892971754149       -0.00066260222443
C           -3.04692657295057        7.23560086515572       -0.00117878213992
C            3.43425114626624        3.77677555438321        0.00015561456700
C            1.27700059448477        4.95085785607791        0.00058717315990
C           -1.33904664915844       -2.49725348546129        0.00009806885689
C            7.01656614570759        2.63547486680492       -0.00115338492251
C           -1.67779453289469        7.27824268611079       -0.00064659633207
C           -3.49684312158852       -1.32866411082685        0.00033790620270
C            4.85602749165799        3.81391141421930       -0.00011798181788
C           -5.65499418839039       -0.16562740218107        0.00074156989381
C            2.69789756380470        4.99149029503301        0.00066771584698
C           -7.79935669155194        1.02188033528731        0.00109427373803
C            0.53625539167448        6.15422405915349        0.00092448613611
C            0.74376315296033       -1.20529204512990        0.00000020784201
C           -1.41041173564442       -0.04222403976355        0.00015868546498
C            6.96384524213706        5.07031224107392       -0.00034394368064
C           -3.56632305167461        1.12021197599571        0.00034546582221
C            4.82171084566383        6.27467568205671        0.00094509496169
C           -5.71874767290141        2.27781534209307        0.00042248880910
C            2.60908426756728        7.40044376734915        0.00234613040012
C            2.82686811175135        0.08666595728799       -0.00028074317884
C           -5.82208589371407        4.72210933969160       -0.00042830526261
C            0.67180885644298        1.24916494519092        0.00001349151183
C           -7.99669695210341        5.80003527854235       -0.00098556885412
C           -1.48304765931669        2.41285262248225        0.00015496400171
C            6.93097490981459        7.48071474623685        0.00071998792370
C           -3.64888483540749        3.56656119137308       -0.00004010491931
C            4.91618391309437        1.36817992762386       -0.00067710415598
C           -3.74314636904092        6.02319435999394       -0.00085271203155
C            2.76070374949283        2.53871140463323       -0.00007654699372
C           -5.99144265591181        7.12719889821709       -0.00179254996727
C            0.59903748152423        3.70047853754442        0.00022237474784
C           -1.57020567722449        4.86828274266184        0.00004150654818
H           -3.08789002355609       -8.36595010768609       -0.00191368460368
H            1.20499639671902       -8.24640910385888        0.00226651185176
H            5.54605985532242       -8.10779040521553        0.00218837799854
H           -5.02953196667693       -8.41683947133686       -0.00267026284213
H           -0.71017601709965       -8.30179825459944       -0.00115056093779
H            3.58486066682372       -8.16944618869000        0.00271574641205
H            9.07491576301912       -5.73133241382869        0.00011531355743
H            8.87974513165473       -0.99076469362665       -0.00187814634016
H            7.96345959158973       -7.93343448688490        0.00163091680678
H           -7.44960187061485       -8.42870061496543       -0.00249186415596
H           -8.71878693735722       -6.31157612042746       -0.00083157042021
H           -8.75009259506509       -3.88896549106823        0.00063556259989
H           -8.80877947542912       -1.45773391846068        0.00144541488695
H            0.71017647510160        8.30179784870593        0.00301921627125
H            8.75009298343468        3.88896521292139       -0.00147308138579
H            8.71878763458506        6.31157597308297       -0.00045286253443
H            5.02953221202691        8.41684058234068        0.00176780255203
H           -7.96345899923791        7.93343511894248       -0.00236111195436
H            8.80877955289483        1.45773332976200       -0.00202275992936
H           -3.58486041514716        8.16944703921471       -0.00181624200118
H           -1.20499603926838        8.24640988471765       -0.00098483597397
H           -8.87974514054077        0.99076470890006        0.00132182614839
H            3.08789108855103        8.36594954946668        0.00332645568231
H           -9.07491557621418        5.73133285869734       -0.00091998676438
H            7.44960266937505        8.42870167242912        0.00094813275079
H           -5.54605934129490        8.10779099352810       -0.00240941280664
N            7.83086421733564       -3.41215213092493       -0.00086794580670
N           -7.83086420347753        3.41215224902221        0.00040858985051
H            8.84010536172295       -3.37527700021973       -0.00111778305832
H           -8.84010543104198        3.37527711917469        0.00046304345356
 
 Bond Distances (Angstroems)
 ---------------------------
C1-C8=1.3709         C1-C9=1.3962         C1-H103=1.0777       C2-C10=1.3698        C2-C11=1.3998        C2-H104=1.0774       
C3-C8=1.3980         C3-C11=1.4401        C3-C12=1.4131        C4-C18=1.3780        C4-C19=1.4013        C4-H105=1.0770       
C5-C10=1.3981        C5-C19=1.4455        C5-C20=1.4139        C6-C11=1.4115        C6-C20=1.4204        C6-C21=1.4246        
C7-C28=1.3910        C7-C29=1.3926        C7-H106=1.0777       C8-C1=1.3709         C8-C3=1.3980         C8-H107=1.0775       
C9-C1=1.3962         C9-C29=1.4466        C9-C31=1.4149        C10-C2=1.3698        C10-C5=1.3981        C10-H108=1.0777      
C11-C2=1.3998        C11-C3=1.4401        C11-C6=1.4115        C12-C3=1.4131        C12-C31=1.4215       C12-C34=1.4224       
C13-C18=1.3854       C13-C22=1.3872       C13-H109=1.0804      C14-C19=1.4079       C14-C22=1.4117       C14-C23=1.4287       
C15-C20=1.4219       C15-C23=1.4092       C15-C24=1.4136       C16-C23=1.4034       C16-C25=1.4281       C16-C26=1.4115       
C17-C25=1.3665       C17-C27=1.4167       C17-H110=1.0808      C18-C4=1.3780        C18-C13=1.3854       C18-H111=1.0800      
C19-C4=1.4013        C19-C5=1.4455        C19-C14=1.4079       C20-C5=1.4139        C20-C6=1.4204        C20-C15=1.4219       
C21-C6=1.4246        C21-C34=1.4183       C21-C44=1.4114       C22-C13=1.3872       C22-C14=1.4117       C22-N129=1.3689      
C23-C14=1.4287       C23-C15=1.4092       C23-C16=1.4034       C24-C15=1.4136       C24-C44=1.4204       C24-C53=1.4114       
C25-C16=1.4281       C25-C17=1.3665       C25-N129=1.3734      C26-C16=1.4115       C26-C53=1.4179       C26-C61=1.4090       
C27-C17=1.4167       C27-C61=1.4288       C27-C68=1.3837       C28-C7=1.3910        C28-C38=1.3700       C28-H112=1.0806      
C29-C7=1.3926        C29-C9=1.4466        C29-C39=1.4159       C30-C38=1.4093       C30-C39=1.4255       C30-C40=1.3967       
C31-C9=1.4149        C31-C12=1.4215       C31-C41=1.4205       C32-C39=1.4151       C32-C41=1.4223       C32-C42=1.4094       
C33-C40=1.3920       C33-C42=1.4297       C33-C43=1.4046       C34-C12=1.4224       C34-C21=1.4183       C34-C74=1.4126       
C35-C41=1.4094       C35-C74=1.4223       C35-C77=1.4164       C36-C42=1.4105       C36-C77=1.4199       C36-C79=1.4114       
C37-C43=1.3837       C37-C79=1.4288       C37-C81=1.4167       C38-C28=1.3700       C38-C30=1.4093       C38-H113=1.0803      
C39-C29=1.4159       C39-C30=1.4255       C39-C32=1.4151       C40-C30=1.3967       C40-C33=1.3920       C40-H114=1.0810      
C41-C31=1.4205       C41-C32=1.4223       C41-C35=1.4094       C42-C32=1.4094       C42-C33=1.4297       C42-C36=1.4105       
C43-C33=1.4046       C43-C37=1.3837       C43-H115=1.0808      C44-C21=1.4114       C44-C24=1.4204       C44-C83=1.4159       
C45-C81=1.3665       C45-C88=1.4281       C45-N130=1.3734      C46-C82=1.3980       C46-C89=1.3709       C46-H116=1.0775      
C47-C74=1.4152       C47-C83=1.4163       C47-C84=1.4150       C48-C75=1.3920       C48-C85=1.3967       C48-H117=1.0810      
C49-C77=1.4112       C49-C84=1.4172       C49-C86=1.4154       C50-C78=1.4151       C50-C85=1.4255       C50-C87=1.4159       
C51-C79=1.4090       C51-C86=1.4179       C51-C88=1.4115       C52-C80=1.4149       C52-C87=1.4466       C52-C89=1.3962       
C53-C24=1.4114       C53-C26=1.4179       C53-C90=1.4154       C54-C88=1.4034       C54-C91=1.4287       C54-C96=1.4092       
C55-C83=1.4145       C55-C90=1.4172       C55-C92=1.4150       C56-C91=1.4117       C56-C93=1.3872       C56-N130=1.3689      
C57-C84=1.4145       C57-C92=1.4163       C57-C94=1.4159       C58-C85=1.4093       C58-C95=1.3700       C58-H118=1.0803      
C59-C86=1.4114       C59-C94=1.4204       C59-C96=1.4136       C60-C87=1.3926       C60-C95=1.3910       C60-H119=1.0777      
C61-C26=1.4090       C61-C27=1.4288       C61-C97=1.4114       C62-C96=1.4219       C62-C98=1.4139       C62-C102=1.4204      
C63-C90=1.4112       C63-C97=1.4199       C63-C99=1.4164       C64-C91=1.4079       C64-C98=1.4455       C64-C100=1.4013      
C65-C92=1.4152       C65-C99=1.4223       C65-C101=1.4126      C66-C93=1.3854       C66-C100=1.3780      C66-H120=1.0800      
C67-C94=1.4114       C67-C101=1.4183      C67-C102=1.4246      C68-C27=1.3837       C68-C75=1.4046       C68-H121=1.0808      
C69-C76=1.3998       C69-C82=1.4401       C69-C102=1.4115      C70-C75=1.4297       C70-C78=1.4094       C70-C97=1.4105       
C71-C76=1.3698       C71-C98=1.3981       C71-H122=1.0777      C72-C78=1.4223       C72-C80=1.4205       C72-C99=1.4094       
C73-C80=1.4215       C73-C82=1.4131       C73-C101=1.4224      C74-C34=1.4126       C74-C35=1.4223       C74-C47=1.4152       
C75-C48=1.3920       C75-C68=1.4046       C75-C70=1.4297       C76-C69=1.3998       C76-C71=1.3698       C76-H123=1.0774      
C77-C35=1.4164       C77-C36=1.4199       C77-C49=1.4112       C78-C50=1.4151       C78-C70=1.4094       C78-C72=1.4223       
C79-C36=1.4114       C79-C37=1.4288       C79-C51=1.4090       C80-C52=1.4149       C80-C72=1.4205       C80-C73=1.4215       
C81-C37=1.4167       C81-C45=1.3665       C81-H124=1.0808      C82-C46=1.3980       C82-C69=1.4401       C82-C73=1.4131       
C83-C44=1.4159       C83-C47=1.4163       C83-C55=1.4145       C84-C47=1.4150       C84-C49=1.4172       C84-C57=1.4145       
C85-C48=1.3967       C85-C50=1.4255       C85-C58=1.4093       C86-C49=1.4154       C86-C51=1.4179       C86-C59=1.4114       
C87-C50=1.4159       C87-C52=1.4466       C87-C60=1.3926       C88-C45=1.4281       C88-C51=1.4115       C88-C54=1.4034       
C89-C46=1.3709       C89-C52=1.3962       C89-H125=1.0777      C90-C53=1.4154       C90-C55=1.4172       C90-C63=1.4112       
C91-C54=1.4287       C91-C56=1.4117       C91-C64=1.4079       C92-C55=1.4150       C92-C57=1.4163       C92-C65=1.4152       
C93-C56=1.3872       C93-C66=1.3854       C93-H126=1.0804      C94-C57=1.4159       C94-C59=1.4204       C94-C67=1.4114       
C95-C58=1.3700       C95-C60=1.3910       C95-H127=1.0806      C96-C54=1.4092       C96-C59=1.4136       C96-C62=1.4219       
C97-C61=1.4114       C97-C63=1.4199       C97-C70=1.4105       C98-C62=1.4139       C98-C64=1.4455       C98-C71=1.3981       
C99-C63=1.4164       C99-C65=1.4223       C99-C72=1.4094       C100-C64=1.4013      C100-C66=1.3780      C100-H128=1.0770     
C101-C65=1.4126      C101-C67=1.4183      C101-C73=1.4224      C102-C62=1.4204      C102-C67=1.4246      C102-C69=1.4115      
H103-C1=1.0777       H104-C2=1.0774       H105-C4=1.0770       H106-C7=1.0777       H107-C8=1.0775       H108-C10=1.0777      
H109-C13=1.0804      H110-C17=1.0808      H111-C18=1.0800      H112-C28=1.0806      H113-C38=1.0803      H114-C40=1.0810      
H115-C43=1.0808      H116-C46=1.0775      H117-C48=1.0810      H118-C58=1.0803      H119-C60=1.0777      H120-C66=1.0800      
H121-C68=1.0808      H122-C71=1.0777      H123-C76=1.0774      H124-C81=1.0808      H125-C89=1.0777      H126-C93=1.0804      
H127-C95=1.0806      H128-C100=1.0770     N129-C22=1.3689      N129-C25=1.3734      N129-H131=1.0099     N130-C45=1.3734      
N130-C56=1.3689      N130-H132=1.0099     H131-N129=1.0099     H132-N130=1.0099     
 C  H  Rav=1.0791 sigma=0.0015  Rmin=1.0770  Rmax=1.0810    26
 C  C  Rav=1.4101 sigma=0.0164  Rmin=1.3665  Rmax=1.4466   138
 N  H  Rav=1.0099 sigma=0.0000  Rmin=1.0099  Rmax=1.0099     2
 N  C  Rav=1.3711 sigma=0.0022  Rmin=1.3689  Rmax=1.3734     4
 
 selected bond angles (degree)
 --------------------
C9-C1-C8=121.73                H103-C1-C8=117.95              H103-C1-C9=120.32              C11-C2-C10=121.81              
H104-C2-C10=117.81             H104-C2-C11=120.37             C11-C3-C8=121.83               C12-C3-C8=118.22               
C12-C3-C11=119.95              C19-C4-C18=121.09              H105-C4-C18=118.32             H105-C4-C19=120.59             
C19-C5-C10=121.61              C20-C5-C10=117.95              C20-C5-C19=120.44              C20-C6-C11=119.88              
C21-C6-C11=119.96              C21-C6-C20=120.16              C29-C7-C28=121.59              H106-C7-C28=117.74             
H106-C7-C29=120.68             C3-C8-C1=121.74                H107-C8-C1=117.81              H107-C8-C3=120.46              
C29-C9-C1=121.67               C31-C9-C1=118.08               C31-C9-C29=120.25              C5-C10-C2=121.65               
H108-C10-C2=118.16             H108-C10-C5=120.19             
 
 selected dihedral angles (degree)
 ---------------------------------
C3-C8-C1-C9=  0.00            C3-C8-C1-H103=180.00          H107-C8-C1-C9=180.00          H107-C8-C1-H103=  0.00        
C1-C8-C3-C11=179.99           C1-C8-C3-C12=  0.00           H107-C8-C3-C11=  0.00         H107-C8-C3-C12=179.98         
C29-C9-C1-C8=180.02           C29-C9-C1-H103=  0.00         C31-C9-C1-C8=  0.00           C31-C9-C1-H103=180.01         
C5-C10-C2-C11=  0.00          C5-C10-C2-H104=180.00         H108-C10-C2-C11=180.00        H108-C10-C2-H104=  0.00       
C2-C10-C5-C19=180.02          C2-C10-C5-C20=  0.00          H108-C10-C5-C19=  0.00        H108-C10-C5-C20=180.02        
           -------------------------------------------------
          |                Final Singlepoint                |
           -------------------------------------------------

          ...................................................
          :                      SETUP                      :
          :.................................................:
          :  # basis functions                 444          :
          :  # atomic orbitals                 444          :
          :  # shells                          236          :
          :  # electrons                       446          :
          :  max. iterations                   250          :
          :  Hamiltonian                  GFN2-xTB          :
          :  restarted?                      false          :
          :  GBSA solvation                  false          :
          :  PC potential                    false          :
          :  electronic temp.          300.0000000     K    :
          :  accuracy                    1.0000000          :
          :  -> integral cutoff          0.2500000E+02      :
          :  -> integral neglect         0.1000000E-07      :
          :  -> SCF convergence          0.1000000E-05 Eh   :
          :  -> wf. convergence          0.1000000E-03 e    :
          :  Broyden damping             0.4000000          :
          :  net charge                          0          :
          :  unpaired electrons                  0          :
          ...................................................

 iter      E             dE          RMSdq      gap      omega  full diag
   1   -244.0724298 -0.244072E+03  0.360E-05    0.32       0.0  T
   2   -244.0724298  0.231921E-10  0.313E-05    0.32     278.5  T
   3   -244.0724298 -0.142904E-09  0.150E-05    0.32     579.6  T

   *** convergence criteria satisfied after 3 iterations ***

         #    Occupation            Energy/Eh            Energy/eV
      -------------------------------------------------------------
         1        2.0000           -0.6764469             -18.4071
       ...           ...                  ...                  ...
       217        2.0000           -0.3766929             -10.2503
       218        2.0000           -0.3722699             -10.1300
       219        2.0000           -0.3690976             -10.0437
       220        2.0000           -0.3547847              -9.6542
       221        2.0000           -0.3476866              -9.4610
       222        2.0000           -0.3389216              -9.2225
       223        1.9955           -0.3243835              -8.8269 (HOMO)
       224        0.0045           -0.3127984              -8.5117 (LUMO)
       225                         -0.2855523              -7.7703
       226                         -0.2787110              -7.5841
       227                         -0.2642354              -7.1902
       228                         -0.2588750              -7.0443
       ...                                ...                  ...
       444                          0.7880312              21.4434
      -------------------------------------------------------------
                  HL-Gap            0.0115851 Eh            0.3152 eV
             Fermi-level           -0.3185909 Eh           -8.6693 eV

 SCC (total)                   0 d,  0 h,  0 min,  0.432 sec
 SCC setup                      ...        0 min,  0.002 sec (  0.463%)
 Dispersion                     ...        0 min,  0.006 sec (  1.389%)
 classical contributions        ...        0 min,  0.001 sec (  0.231%)
 integral evaluation            ...        0 min,  0.043 sec (  9.954%)
 iterations                     ...        0 min,  0.204 sec ( 47.222%)
 molecular gradient             ...        0 min,  0.171 sec ( 39.583%)
 printout                       ...        0 min,  0.005 sec (  1.157%)

         :::::::::::::::::::::::::::::::::::::::::::::::::::::
         ::                     SUMMARY                     ::
         :::::::::::::::::::::::::::::::::::::::::::::::::::::
         :: total energy            -239.386898252908 Eh    ::
         :: gradient norm              0.000418369290 Eh/a0 ::
         :: HOMO-LUMO gap              0.315246701028 eV    ::
         ::.................................................::
         :: SCC energy              -244.080517589271 Eh    ::
         :: -> isotropic ES            0.012047080837 Eh    ::
         :: -> anisotropic ES          0.016730576091 Eh    ::
         :: -> anisotropic XC          0.087093984261 Eh    ::
         :: -> dispersion             -0.289845785662 Eh    ::
         :: repulsion energy           4.693619336363 Eh    ::
         :: add. restraining           0.000000000000 Eh    ::
         :: total charge               0.000000001017 e     ::
         :::::::::::::::::::::::::::::::::::::::::::::::::::::

           -------------------------------------------------
          |                Property Printout                |
           -------------------------------------------------

    * Orbital Energies and Occupations

         #    Occupation            Energy/Eh            Energy/eV
      -------------------------------------------------------------
         1        2.0000           -0.6764469             -18.4071
       ...           ...                  ...                  ...
       211        2.0000           -0.3922500             -10.6737
       212        2.0000           -0.3912743             -10.6471
       213        2.0000           -0.3833364             -10.4311
       214        2.0000           -0.3817359             -10.3876
       215        2.0000           -0.3814271             -10.3792
       216        2.0000           -0.3806442             -10.3579
       217        2.0000           -0.3766929             -10.2503
       218        2.0000           -0.3722699             -10.1300
       219        2.0000           -0.3690976             -10.0437
       220        2.0000           -0.3547847              -9.6542
       221        2.0000           -0.3476866              -9.4610
       222        2.0000           -0.3389216              -9.2225
       223        1.9955           -0.3243835              -8.8269 (HOMO)
       224        0.0045           -0.3127984              -8.5117 (LUMO)
       225                         -0.2855523              -7.7703
       226                         -0.2787110              -7.5841
       227                         -0.2642354              -7.1902
       228                         -0.2588750              -7.0443
       229                         -0.2556872              -6.9576
       230                         -0.2522227              -6.8633
       231                         -0.2477684              -6.7421
       232                         -0.2405398              -6.5454
       233                         -0.2362238              -6.4280
       234                         -0.2318188              -6.3081
       ...                                ...                  ...
       444                          0.7880312              21.4434
      -------------------------------------------------------------
                  HL-Gap            0.0115851 Eh            0.3152 eV
             Fermi-level           -0.3185909 Eh           -8.6693 eV

     #   Z          covCN         q      C6AA      α(0)
     1   6 C        2.919    -0.037    28.927     8.820
     2   6 C        2.919    -0.038    28.948     8.823
     3   6 C        2.980     0.004    27.936     8.670
     4   6 C        2.920    -0.049    29.214     8.863
     5   6 C        2.979     0.003    27.958     8.673
     6   6 C        2.990     0.001    27.999     8.680
     7   6 C        2.922    -0.037    28.928     8.820
     8   6 C        2.919    -0.038    28.934     8.821
     9   6 C        2.979     0.004    27.929     8.669
    10   6 C        2.919    -0.037    28.916     8.818
    11   6 C        2.980     0.004    27.918     8.667
    12   6 C        2.990     0.001    28.001     8.680
    13   6 C        2.920    -0.066    29.638     8.928
    14   6 C        2.996    -0.009    28.242     8.717
    15   6 C        2.989    -0.005    28.131     8.700
    16   6 C        2.994    -0.006    28.161     8.705
    17   6 C        2.921    -0.085    30.117     9.000
    18   6 C        2.917    -0.029    28.722     8.788
    19   6 C        2.978     0.006    27.877     8.661
    20   6 C        2.990     0.001    27.986     8.678
    21   6 C        2.985    -0.000    28.033     8.685
    22   6 C        2.918     0.068    26.479     8.438
    23   6 C        2.989     0.004    27.935     8.670
    24   6 C        2.989    -0.000    28.024     8.684
    25   6 C        2.910     0.064    26.562     8.451
    26   6 C        2.991    -0.001    28.037     8.686
    27   6 C        2.977     0.013    27.722     8.637
    28   6 C        2.912    -0.031    28.764     8.794
    29   6 C        2.975     0.006    27.890     8.663
    30   6 C        2.980     0.012    27.752     8.641
    31   6 C        2.989     0.001    27.997     8.680
    32   6 C        2.986     0.000    28.012     8.682
    33   6 C        2.976     0.011    27.767     8.644
    34   6 C        2.986    -0.001    28.050     8.688
    35   6 C        2.987    -0.001    28.047     8.687
    36   6 C        2.989     0.001    28.003     8.680
    37   6 C        2.977     0.013    27.722     8.637
    38   6 C        2.921    -0.037    28.931     8.820
    39   6 C        2.995    -0.000    28.021     8.683
    40   6 C        2.925    -0.047    29.159     8.855
    41   6 C        2.987    -0.001    28.035     8.685
    42   6 C        2.994    -0.002    28.074     8.692
    43   6 C        2.925    -0.054    29.330     8.881
    44   6 C        2.988    -0.001    28.047     8.687
    45   6 C        2.910     0.064    26.562     8.451
    46   6 C        2.919    -0.038    28.934     8.821
    47   6 C        2.989    -0.001    28.041     8.686
    48   6 C        2.925    -0.047    29.159     8.855
    49   6 C        2.989    -0.001    28.041     8.686
    50   6 C        2.995    -0.000    28.021     8.683
    51   6 C        2.991    -0.001    28.037     8.686
    52   6 C        2.979     0.004    27.929     8.669
    53   6 C        2.990    -0.002    28.069     8.691
    54   6 C        2.989     0.004    27.935     8.670
    55   6 C        2.989    -0.001    28.052     8.688
    56   6 C        2.918     0.068    26.479     8.438
    57   6 C        2.989    -0.001    28.044     8.687
    58   6 C        2.921    -0.037    28.931     8.820
    59   6 C        2.989    -0.000    28.024     8.684
    60   6 C        2.922    -0.037    28.928     8.820
    61   6 C        2.994    -0.003    28.099     8.695
    62   6 C        2.990     0.001    27.986     8.678
    63   6 C        2.989    -0.001    28.047     8.687
    64   6 C        2.978     0.006    27.877     8.661
    65   6 C        2.987    -0.001    28.039     8.686
    66   6 C        2.917    -0.029    28.722     8.788
    67   6 C        2.985    -0.000    28.033     8.685
    68   6 C        2.925    -0.054    29.330     8.881
    69   6 C        2.980     0.004    27.918     8.667
    70   6 C        2.994    -0.002    28.074     8.692
    71   6 C        2.919    -0.037    28.916     8.818
    72   6 C        2.987    -0.001    28.035     8.685
    73   6 C        2.990     0.001    28.001     8.680
    74   6 C        2.987    -0.001    28.039     8.686
    75   6 C        2.976     0.011    27.767     8.644
    76   6 C        2.919    -0.038    28.948     8.823
    77   6 C        2.989    -0.001    28.047     8.687
    78   6 C        2.986     0.000    28.012     8.682
    79   6 C        2.994    -0.003    28.099     8.695
    80   6 C        2.989     0.001    27.997     8.680
    81   6 C        2.921    -0.085    30.117     9.000
    82   6 C        2.980     0.004    27.936     8.670
    83   6 C        2.989    -0.001    28.044     8.687
    84   6 C        2.989    -0.001    28.052     8.688
    85   6 C        2.980     0.012    27.752     8.641
    86   6 C        2.990    -0.002    28.069     8.691
    87   6 C        2.975     0.006    27.890     8.663
    88   6 C        2.994    -0.006    28.161     8.705
    89   6 C        2.919    -0.037    28.927     8.820
    90   6 C        2.989    -0.001    28.041     8.686
    91   6 C        2.996    -0.009    28.242     8.717
    92   6 C        2.989    -0.001    28.041     8.686
    93   6 C        2.920    -0.066    29.638     8.928
    94   6 C        2.988    -0.001    28.047     8.687
    95   6 C        2.912    -0.031    28.764     8.794
    96   6 C        2.989    -0.005    28.131     8.700
    97   6 C        2.989     0.001    28.003     8.680
    98   6 C        2.979     0.003    27.958     8.673
    99   6 C        2.987    -0.001    28.047     8.687
   100   6 C        2.920    -0.049    29.214     8.863
   101   6 C        2.986    -0.001    28.050     8.688
   102   6 C        2.990     0.001    27.999     8.680
   103   1 H        0.926     0.032     2.559     2.502
   104   1 H        0.926     0.032     2.552     2.498
   105   1 H        0.926     0.033     2.550     2.497
   106   1 H        0.926     0.031     2.577     2.510
   107   1 H        0.926     0.032     2.558     2.501
   108   1 H        0.926     0.033     2.549     2.497
   109   1 H        0.926     0.023     2.683     2.561
   110   1 H        0.926     0.019     2.742     2.589
   111   1 H        0.926     0.031     2.567     2.506
   112   1 H        0.926     0.028     2.621     2.532
   113   1 H        0.926     0.029     2.597     2.520
   114   1 H        0.926     0.029     2.601     2.522
   115   1 H        0.926     0.026     2.644     2.543
   116   1 H        0.926     0.032     2.558     2.501
   117   1 H        0.926     0.029     2.601     2.522
   118   1 H        0.926     0.029     2.597     2.520
   119   1 H        0.926     0.031     2.577     2.510
   120   1 H        0.926     0.031     2.567     2.506
   121   1 H        0.926     0.026     2.644     2.543
   122   1 H        0.926     0.033     2.549     2.497
   123   1 H        0.926     0.032     2.552     2.498
   124   1 H        0.926     0.019     2.742     2.589
   125   1 H        0.926     0.032     2.559     2.502
   126   1 H        0.926     0.023     2.683     2.561
   127   1 H        0.926     0.028     2.621     2.532
   128   1 H        0.926     0.033     2.550     2.497
   129   7 N        2.706    -0.123    23.674     7.226
   130   7 N        2.706    -0.123    23.674     7.226
   131   1 H        0.860     0.165     1.305     1.790
   132   1 H        0.860     0.165     1.305     1.790

 Mol. C6AA /au·bohr⁶  :     354887.159790
 Mol. C8AA /au·bohr⁸  :    9692036.909275
 Mol. α(0) /au        :        972.393077


Wiberg/Mayer (AO) data.
largest (>0.10) Wiberg bond orders for each atom

 ---------------------------------------------------------------------------
     #   Z sym  total        # sym  WBO       # sym  WBO       # sym  WBO
 ---------------------------------------------------------------------------
     1   6 C    3.972 --     8 C    1.488     9 C    1.346   103 H    0.961
     2   6 C    3.960 --    10 C    1.499    11 C    1.330   104 H    0.960
     3   6 C    3.965 --     8 C    1.337    12 C    1.277    11 C    1.152
     4   6 C    3.959 --    18 C    1.467    19 C    1.342   105 H    0.962
     5   6 C    3.959 --    10 C    1.334    20 C    1.285    19 C    1.141
     6   6 C    3.977 --    11 C    1.283    20 C    1.252    21 C    1.218
     7   6 C    3.902 --    29 C    1.392    28 C    1.382   106 H    0.962
     8   6 C    3.954 --     1 C    1.488     3 C    1.337   107 H    0.960
     9   6 C    3.950 --     1 C    1.346    31 C    1.278    29 C    1.135
    10   6 C    3.962 --     2 C    1.499     5 C    1.334   108 H    0.961
    11   6 C    3.961 --     2 C    1.330     6 C    1.283     3 C    1.152
    12   6 C    3.975 --     3 C    1.277    31 C    1.249    34 C    1.226
    13   6 C    3.959 --    18 C    1.412    22 C    1.372   109 H    0.968
    14   6 C    3.976 --    19 C    1.297    22 C    1.258    23 C    1.181
    15   6 C    3.961 --    23 C    1.267    24 C    1.256    20 C    1.217
    16   6 C    3.943 --    23 C    1.295    26 C    1.255    25 C    1.172
    17   6 C    3.926 --    25 C    1.488    27 C    1.230   110 H    0.965
    18   6 C    3.978 --     4 C    1.467    13 C    1.412   111 H    0.971
    19   6 C    3.973 --     4 C    1.342    14 C    1.297     5 C    1.141
    20   6 C    3.980 --     5 C    1.285     6 C    1.252    15 C    1.217
    21   6 C    3.953 --    44 C    1.274    34 C    1.247     6 C    1.218
    22   6 C    3.960 --    13 C    1.372    14 C    1.258   129 N    1.154
    23   6 C    3.952 --    16 C    1.295    15 C    1.267    14 C    1.181
    24   6 C    3.969 --    53 C    1.269    15 C    1.256    44 C    1.221
    25   6 C    3.950 --    17 C    1.488    16 C    1.172   129 N    1.135
    26   6 C    3.971 --    61 C    1.271    16 C    1.255    53 C    1.230
    27   6 C    3.978 --    68 C    1.403    17 C    1.230    61 C    1.189
    28   6 C    3.983 --    38 C    1.507     7 C    1.382   112 H    0.970
    29   6 C    3.982 --     7 C    1.392    39 C    1.262     9 C    1.135
    30   6 C    3.985 --    40 C    1.330    38 C    1.274    39 C    1.218
    31   6 C    3.981 --     9 C    1.278    12 C    1.249    41 C    1.229
    32   6 C    3.980 --    42 C    1.280    39 C    1.255    41 C    1.220
    33   6 C    3.985 --    40 C    1.353    43 C    1.287    42 C    1.185
    34   6 C    3.959 --    74 C    1.269    21 C    1.247    12 C    1.226
    35   6 C    3.969 --    41 C    1.283    77 C    1.246    74 C    1.219
    36   6 C    3.978 --    42 C    1.267    79 C    1.265    77 C    1.225
    37   6 C    3.978 --    43 C    1.403    81 C    1.230    79 C    1.189
    38   6 C    3.907 --    28 C    1.507    30 C    1.274   113 H    0.969
    39   6 C    3.955 --    29 C    1.262    32 C    1.255    30 C    1.218
    40   6 C    3.826 --    33 C    1.353    30 C    1.330   114 H    0.966
    41   6 C    3.939 --    35 C    1.283    31 C    1.229    32 C    1.220
    42   6 C    3.958 --    32 C    1.280    36 C    1.267    33 C    1.185
    43   6 C    3.851 --    37 C    1.403    33 C    1.287   115 H    0.967
    44   6 C    3.960 --    21 C    1.274    83 C    1.249    24 C    1.221
    45   6 C    3.950 --    81 C    1.488    88 C    1.172   130 N    1.135
    46   6 C    3.954 --    89 C    1.488    82 C    1.337   116 H    0.960
    47   6 C    3.964 --    74 C    1.255    84 C    1.251    83 C    1.241
    48   6 C    3.826 --    75 C    1.353    85 C    1.330   117 H    0.966
    49   6 C    3.965 --    77 C    1.269    86 C    1.244    84 C    1.233
    50   6 C    3.955 --    87 C    1.262    78 C    1.255    85 C    1.218
    51   6 C    3.971 --    79 C    1.271    88 C    1.255    86 C    1.230
    52   6 C    3.950 --    89 C    1.346    80 C    1.278    87 C    1.135
    53   6 C    3.964 --    24 C    1.269    90 C    1.244    26 C    1.230
    54   6 C    3.952 --    88 C    1.295    96 C    1.267    91 C    1.181
    55   6 C    3.952 --    83 C    1.257    92 C    1.251    90 C    1.233
    56   6 C    3.960 --    93 C    1.372    91 C    1.258   130 N    1.154
    57   6 C    3.962 --    84 C    1.257    94 C    1.249    92 C    1.241
    58   6 C    3.907 --    95 C    1.507    85 C    1.274   118 H    0.969
    59   6 C    3.969 --    86 C    1.269    96 C    1.256    94 C    1.221
    60   6 C    3.902 --    87 C    1.392    95 C    1.382   119 H    0.962
    61   6 C    3.938 --    26 C    1.271    97 C    1.265    27 C    1.189
    62   6 C    3.980 --    98 C    1.285   102 C    1.252    96 C    1.217
    63   6 C    3.953 --    90 C    1.269    99 C    1.246    97 C    1.225
    64   6 C    3.973 --   100 C    1.342    91 C    1.297    98 C    1.141
    65   6 C    3.959 --   101 C    1.269    92 C    1.255    99 C    1.219
    66   6 C    3.978 --   100 C    1.467    93 C    1.412   120 H    0.971
    67   6 C    3.953 --    94 C    1.274   101 C    1.247   102 C    1.218
    68   6 C    3.851 --    27 C    1.403    75 C    1.287   121 H    0.967
    69   6 C    3.961 --    76 C    1.330   102 C    1.283    82 C    1.152
    70   6 C    3.958 --    78 C    1.280    97 C    1.267    75 C    1.185
    71   6 C    3.962 --    76 C    1.499    98 C    1.334   122 H    0.961
    72   6 C    3.939 --    99 C    1.283    80 C    1.229    78 C    1.220
    73   6 C    3.975 --    82 C    1.277    80 C    1.249   101 C    1.226
    74   6 C    3.959 --    34 C    1.269    47 C    1.255    35 C    1.219
    75   6 C    3.985 --    48 C    1.353    68 C    1.287    70 C    1.185
    76   6 C    3.960 --    71 C    1.499    69 C    1.330   123 H    0.960
    77   6 C    3.953 --    49 C    1.269    35 C    1.246    36 C    1.225
    78   6 C    3.980 --    70 C    1.280    50 C    1.255    72 C    1.220
    79   6 C    3.938 --    51 C    1.271    36 C    1.265    37 C    1.189
    80   6 C    3.981 --    52 C    1.278    73 C    1.249    72 C    1.229
    81   6 C    3.926 --    45 C    1.488    37 C    1.230   124 H    0.965
    82   6 C    3.965 --    46 C    1.337    73 C    1.277    69 C    1.152
    83   6 C    3.962 --    55 C    1.257    44 C    1.249    47 C    1.241
    84   6 C    3.952 --    57 C    1.257    47 C    1.251    49 C    1.233
    85   6 C    3.985 --    48 C    1.330    58 C    1.274    50 C    1.218
    86   6 C    3.964 --    59 C    1.269    49 C    1.244    51 C    1.230
    87   6 C    3.982 --    60 C    1.392    50 C    1.262    52 C    1.135
    88   6 C    3.943 --    54 C    1.295    51 C    1.255    45 C    1.172
    89   6 C    3.972 --    46 C    1.488    52 C    1.346   125 H    0.961
    90   6 C    3.965 --    63 C    1.269    53 C    1.244    55 C    1.233
    91   6 C    3.976 --    64 C    1.297    56 C    1.258    54 C    1.181
    92   6 C    3.964 --    65 C    1.255    55 C    1.251    57 C    1.241
    93   6 C    3.959 --    66 C    1.412    56 C    1.372   126 H    0.968
    94   6 C    3.960 --    67 C    1.274    57 C    1.249    59 C    1.221
    95   6 C    3.983 --    58 C    1.507    60 C    1.382   127 H    0.970
    96   6 C    3.961 --    54 C    1.267    59 C    1.256    62 C    1.217
    97   6 C    3.978 --    70 C    1.267    61 C    1.265    63 C    1.225
    98   6 C    3.959 --    71 C    1.334    62 C    1.285    64 C    1.141
    99   6 C    3.969 --    72 C    1.283    63 C    1.246    65 C    1.219
   100   6 C    3.959 --    66 C    1.467    64 C    1.342   128 H    0.962
   101   6 C    3.959 --    65 C    1.269    67 C    1.247    73 C    1.226
   102   6 C    3.977 --    69 C    1.283    62 C    1.252    67 C    1.218
   103   1 H    0.998 --     1 C    0.961
   104   1 H    0.998 --     2 C    0.960
   105   1 H    0.998 --     4 C    0.962
   106   1 H    0.999 --     7 C    0.962
   107   1 H    0.998 --     8 C    0.960
   108   1 H    0.998 --    10 C    0.961
   109   1 H    0.999 --    13 C    0.968
   110   1 H    0.998 --    17 C    0.965
   111   1 H    0.998 --    18 C    0.971
   112   1 H    0.998 --    28 C    0.970
   113   1 H    0.998 --    38 C    0.969
   114   1 H    0.998 --    40 C    0.966
   115   1 H    0.998 --    43 C    0.967
   116   1 H    0.998 --    46 C    0.960
   117   1 H    0.998 --    48 C    0.966
   118   1 H    0.998 --    58 C    0.969
   119   1 H    0.999 --    60 C    0.962
   120   1 H    0.998 --    66 C    0.971
   121   1 H    0.998 --    68 C    0.967
   122   1 H    0.998 --    71 C    0.961
   123   1 H    0.998 --    76 C    0.960
   124   1 H    0.998 --    81 C    0.965
   125   1 H    0.998 --    89 C    0.961
   126   1 H    0.999 --    93 C    0.968
   127   1 H    0.998 --    95 C    0.970
   128   1 H    0.998 --   100 C    0.962
   129   7 N    3.494 --    22 C    1.154    25 C    1.135   131 H    0.938
   130   7 N    3.494 --    56 C    1.154    45 C    1.135   132 H    0.938
   131   1 H    0.972 --   129 N    0.938
   132   1 H    0.972 --   130 N    0.938
 ---------------------------------------------------------------------------

Topologies differ in total number of bonds
Writing topology from bond orders to xtbtopo.mol

molecular dipole:
                 x           y           z       tot (Debye)
 q only:       -0.000      -0.000      -0.000
   full:       -0.000      -0.000      -0.000       0.000
molecular quadrupole (traceless):
                xx          xy          yy          xz          yz          zz
 q only:       29.366     -27.180      -0.945      -0.002       0.004     -28.421
  q+dip:       66.476     -30.470      19.680      -0.002       0.008     -86.156
   full:       47.390     -30.786      -0.197       0.001       0.006     -47.193

           -------------------------------------------------
          |                Geometry Summary                 |
           -------------------------------------------------

      molecular mass/u    :     1281.3308092
   center of mass at/Å    :       -0.0000000       0.0000001       0.0000005
  moments of inertia/u·Å² :        0.2740041E+05   0.3141121E+05   0.5881162E+05
rotational constants/cm⁻¹ :        0.6152329E-03   0.5366757E-03   0.2866378E-03

 * 164 selected distances

     #   Z          #   Z                                           value/Å
     1   6 C        8   6 C                                       1.3708772
     3   6 C        8   6 C                                       1.3979598
     1   6 C        9   6 C                                       1.3962118
     2   6 C       10   6 C                                       1.3697961
     5   6 C       10   6 C                                       1.3980886
     2   6 C       11   6 C                                       1.3998232
     6   6 C       11   6 C                                       1.4115240
     3   6 C       12   6 C                                       1.4130796
     4   6 C       18   6 C                                       1.3779539
    13   6 C       18   6 C                                       1.3853706
     4   6 C       19   6 C                                       1.4012566
    14   6 C       19   6 C                                       1.4079279
     5   6 C       20   6 C                                       1.4139207
     6   6 C       20   6 C                                       1.4203598
    15   6 C       20   6 C                                       1.4219191
     6   6 C       21   6 C                                       1.4246386
    13   6 C       22   6 C                                       1.3872058
    14   6 C       22   6 C                                       1.4117334
    14   6 C       23   6 C                                       1.4286864
    15   6 C       23   6 C                                       1.4091983
    16   6 C       23   6 C                                       1.4033686
    15   6 C       24   6 C                                       1.4136498
    16   6 C       25   6 C                                       1.4280891
    17   6 C       25   6 C                                       1.3664731
    16   6 C       26   6 C                                       1.4114782
    17   6 C       27   6 C                                       1.4167017
     7   6 C       28   6 C                                       1.3910226
     7   6 C       29   6 C                                       1.3925880
     9   6 C       31   6 C                                       1.4149208
    12   6 C       31   6 C                                       1.4214779
    12   6 C       34   6 C                                       1.4223511
    21   6 C       34   6 C                                       1.4182605
    28   6 C       38   6 C                                       1.3699764
    30   6 C       38   6 C                                       1.4092822
    29   6 C       39   6 C                                       1.4159273
    30   6 C       39   6 C                                       1.4255067
    32   6 C       39   6 C                                       1.4150549
    30   6 C       40   6 C                                       1.3966981
    33   6 C       40   6 C                                       1.3920210
    31   6 C       41   6 C                                       1.4204749
    32   6 C       41   6 C                                       1.4222612
    35   6 C       41   6 C                                       1.4094215
    32   6 C       42   6 C                                       1.4094046
    33   6 C       42   6 C                                       1.4297307
    36   6 C       42   6 C                                       1.4105190
    33   6 C       43   6 C                                       1.4045813
    37   6 C       43   6 C                                       1.3836938
    21   6 C       44   6 C                                       1.4113895
    24   6 C       44   6 C                                       1.4204105
    24   6 C       53   6 C                                       1.4114389
    26   6 C       53   6 C                                       1.4179032
    26   6 C       61   6 C                                       1.4089610
    27   6 C       61   6 C                                       1.4288029
    27   6 C       68   6 C                                       1.3836939
    34   6 C       74   6 C                                       1.4125734
    35   6 C       74   6 C                                       1.4222620
    47   6 C       74   6 C                                       1.4152495
    48   6 C       75   6 C                                       1.3920215
    68   6 C       75   6 C                                       1.4045815
    70   6 C       75   6 C                                       1.4297310 (max)
    69   6 C       76   6 C                                       1.3998232
    71   6 C       76   6 C                                       1.3697962
    35   6 C       77   6 C                                       1.4163741
    36   6 C       77   6 C                                       1.4198913
    49   6 C       77   6 C                                       1.4111787
    50   6 C       78   6 C                                       1.4150552
    70   6 C       78   6 C                                       1.4094048
    72   6 C       78   6 C                                       1.4222614
    36   6 C       79   6 C                                       1.4113731
    37   6 C       79   6 C                                       1.4288027
    51   6 C       79   6 C                                       1.4089609
    52   6 C       80   6 C                                       1.4149210
    72   6 C       80   6 C                                       1.4204750
    73   6 C       80   6 C                                       1.4214780
    37   6 C       81   6 C                                       1.4167018
    45   6 C       81   6 C                                       1.3664732
    46   6 C       82   6 C                                       1.3979600
    73   6 C       82   6 C                                       1.4130797
    44   6 C       83   6 C                                       1.4158897
    47   6 C       83   6 C                                       1.4162524
    55   6 C       83   6 C                                       1.4144668
    47   6 C       84   6 C                                       1.4150053
    49   6 C       84   6 C                                       1.4171541
    57   6 C       84   6 C                                       1.4144668
    48   6 C       85   6 C                                       1.3966986
    50   6 C       85   6 C                                       1.4255070
    58   6 C       85   6 C                                       1.4092824
    49   6 C       86   6 C                                       1.4153967
    51   6 C       86   6 C                                       1.4179032
    59   6 C       86   6 C                                       1.4114390
    50   6 C       87   6 C                                       1.4159276
    60   6 C       87   6 C                                       1.3925883
    45   6 C       88   6 C                                       1.4280890
    51   6 C       88   6 C                                       1.4114782
    54   6 C       88   6 C                                       1.4033687
    46   6 C       89   6 C                                       1.3708773
    52   6 C       89   6 C                                       1.3962117
    53   6 C       90   6 C                                       1.4153968
    55   6 C       90   6 C                                       1.4171541
    63   6 C       90   6 C                                       1.4111787
    54   6 C       91   6 C                                       1.4286865
    56   6 C       91   6 C                                       1.4117333
    64   6 C       91   6 C                                       1.4079281
    55   6 C       92   6 C                                       1.4150053
    57   6 C       92   6 C                                       1.4162524
    65   6 C       92   6 C                                       1.4152495
    56   6 C       93   6 C                                       1.3872059
    66   6 C       93   6 C                                       1.3853706
    57   6 C       94   6 C                                       1.4158897
    59   6 C       94   6 C                                       1.4204104
    67   6 C       94   6 C                                       1.4113896
    58   6 C       95   6 C                                       1.3699768
    60   6 C       95   6 C                                       1.3910231
    54   6 C       96   6 C                                       1.4091984
    59   6 C       96   6 C                                       1.4136498
    62   6 C       96   6 C                                       1.4219192
    61   6 C       97   6 C                                       1.4113733
    63   6 C       97   6 C                                       1.4198914
    70   6 C       97   6 C                                       1.4105192
    62   6 C       98   6 C                                       1.4139208
    71   6 C       98   6 C                                       1.3980887
    63   6 C       99   6 C                                       1.4163741
    65   6 C       99   6 C                                       1.4222621
    72   6 C       99   6 C                                       1.4094216
    64   6 C      100   6 C                                       1.4012567
    66   6 C      100   6 C                                       1.3779539
    65   6 C      101   6 C                                       1.4125734
    67   6 C      101   6 C                                       1.4182606
    73   6 C      101   6 C                                       1.4223512
    62   6 C      102   6 C                                       1.4203598
    67   6 C      102   6 C                                       1.4246387
    69   6 C      102   6 C                                       1.4115241
     1   6 C      103   1 H                                       1.0777098
     2   6 C      104   1 H                                       1.0774444
     4   6 C      105   1 H                                       1.0769993
     7   6 C      106   1 H                                       1.0776963
     8   6 C      107   1 H                                       1.0774704
    10   6 C      108   1 H                                       1.0777022
    13   6 C      109   1 H                                       1.0804053
    17   6 C      110   1 H                                       1.0808365
    18   6 C      111   1 H                                       1.0799806
    28   6 C      112   1 H                                       1.0805808
    38   6 C      113   1 H                                       1.0802654
    40   6 C      114   1 H                                       1.0809665
    43   6 C      115   1 H                                       1.0807990
    46   6 C      116   1 H                                       1.0774704
    48   6 C      117   1 H                                       1.0809664
    58   6 C      118   1 H                                       1.0802654
    60   6 C      119   1 H                                       1.0776963
    66   6 C      120   1 H                                       1.0799806
    68   6 C      121   1 H                                       1.0807989
    71   6 C      122   1 H                                       1.0777022
    76   6 C      123   1 H                                       1.0774444
    81   6 C      124   1 H                                       1.0808366
    89   6 C      125   1 H                                       1.0777099
    93   6 C      126   1 H                                       1.0804053
    95   6 C      127   1 H                                       1.0805805
   100   6 C      128   1 H                                       1.0769994
    22   6 C      129   7 N                                       1.3688926
    25   6 C      129   7 N                                       1.3733556
    45   6 C      130   7 N                                       1.3733558
    56   6 C      130   7 N                                       1.3688928
   129   7 N      131   1 H                                       1.0099147 (min)
   130   7 N      132   1 H                                       1.0099148

 * 4 distinct bonds (by element types)

   Z      Z             #   av. dist./Å        max./Å        min./Å
   1 H    6 C          26     1.0791428     1.0809665     1.0769993
   6 C    6 C         132     1.4085522     1.4297310     1.3664731
   1 H    7 N           2     1.0099147     1.0099148     1.0099147
   6 C    7 N           4     1.3711242     1.3733558     1.3688926


optimized geometry written to: xtbopt.xyz


           -------------------------------------------------
          | TOTAL ENERGY             -239.386898252908 Eh   |
          | GRADIENT NORM               0.000418369290 Eh/α |
          | HOMO-LUMO GAP               0.315246701028 eV   |
           -------------------------------------------------

------------------------------------------------------------------------
 * finished run on 2025/12/08 at 00:31:41.415     
------------------------------------------------------------------------
 total:
 * wall-time:     0 d,  0 h,  0 min,  5.683 sec
 *  cpu-time:     0 d,  0 h,  0 min, 21.750 sec
 * ratio c/w:     3.827 speedup
 SCF:
 * wall-time:     0 d,  0 h,  0 min,  1.025 sec
 *  cpu-time:     0 d,  0 h,  0 min,  3.891 sec
 * ratio c/w:     3.796 speedup
 ANC optimizer:
 * wall-time:     0 d,  0 h,  0 min,  4.524 sec
 *  cpu-time:     0 d,  0 h,  0 min, 17.453 sec
 * ratio c/w:     3.858 speedup

normal termination of xtb
