132
 energy: -239.386898252908 gnorm: 0.000418369290 xtb: 6.7.1pre (5071a88)
C           -2.60908367103990       -7.40044386501269       -0.00131083855512
C            1.67779472631950       -7.27824202701558        0.00163927875770
C           -0.53625530574676       -6.15422373271544       -0.00004460079508
C            5.99144306409216       -7.12719838115496        0.00155786860826
C            3.74314648950040       -6.02319393459711        0.00121029391607
C            1.57020555525449       -4.86828236475778        0.00046302333896
C           -5.54001233996211       -7.46771445427112       -0.00195146648389
C           -1.23872162598640       -7.36287249457752       -0.00082272124974
C           -3.37568010583502       -6.23350911753086       -0.00097430125189
C            3.04692676438418       -7.23560023700896        0.00193479290143
C            0.90319503176015       -6.11226649209331        0.00065966421242
C           -1.27700070964009       -4.95085769979920       -0.00009462018604
C            7.99669714888236       -5.80003476127006        0.00039484089277
C            5.82208591700550       -4.72210915301789        0.00029939837461
C            3.64888467188123       -3.56656113614712        0.00016773263453
C            5.71874749556854       -2.27781572958348       -0.00057178588236
C            7.79935679439049       -1.02188083496512       -0.00150893029611
C            7.36621593431526       -7.03362463867771        0.00123533231117
C            5.18799158885004       -5.97916296762633        0.00106947085162
C            2.98995302174404       -4.82658591864029        0.00061000193222
C            0.81858782784341       -3.65804868175585        0.00015155826948
C            7.23159533182794       -4.64290099279789       -0.00005936639209
C            5.05715561625550       -3.51545018673980       -0.00005721810734
C            2.90268133580486       -2.36590046790658       -0.00007174806460
C            7.14574108353737       -2.22189522106876       -0.00100003031006
C            4.98343925891133       -1.07299537022904       -0.00063925599154
C            7.08336904805464        0.20057772080834       -0.00139638948317
C           -6.93097406979731       -7.48071358695871       -0.00186466619430
C           -4.82171061580456       -6.27467508608149       -0.00116110588029
C           -6.96384485072072       -5.07031179350117       -0.00029978086235
C           -2.69789761059077       -4.99149013881890       -0.00039061472890
C           -4.85602753275143       -3.81391147921045       -0.00000376429864
C           -7.01656604780494       -2.63547532176078        0.00074656190345
C           -0.59903776558737       -3.70047833786922        0.00011992783732
C           -2.76070415833320       -2.53871143524210        0.00016722838396
C           -4.91618431020641       -1.36818037132377        0.00056642737105
C           -7.08336920458953       -0.20057841443552        0.00106397479530
C           -7.63852893434676       -6.30759791049902       -0.00096733570340
C           -5.53843687042435       -5.05354745966937       -0.00045933915227
C           -7.66939366791295       -3.86492161480483        0.00043451370554
C           -3.43425135838145       -3.77677554404235       -0.00009966607533
C           -5.58708196933600       -2.60893011854702        0.00045787357295
C           -7.72848609663671       -1.42468309365809        0.00117412319699
C            1.48304723344047       -2.41285247578110        0.00006675441615
C           -7.14574120754982        2.22189499036978        0.00066058950644
C            1.23872203093635        7.36287241697838        0.00213362178655
C           -0.67180941663062       -1.24916488442968        0.00014879843595
C            7.66939414892073        3.86492154378099       -0.00106486176856
C           -2.82686867768420       -0.08666605042266        0.00035090778611
C            5.53843701873208        5.05354769722653        0.00015424598393
C           -4.98343970947667        1.07299486219043        0.00055165581933
C            3.37568036128562        6.23350926870616        0.00131261921096
C            3.56632261007667       -1.12021209934602       -0.00030525465991
C           -5.05715587639518        3.51545001121582        0.00002168374944
C            1.41041115906748        0.04222408015951       -0.00002618962575
C           -7.23159528875821        4.64290133515145       -0.00033410228498
C           -0.74376372814232        1.20529209748680        0.00017252039899
C            7.63852969850677        6.30759854800411       -0.00006029815742
C           -2.90268174338322        2.36590046588821        0.00020693628228
C            5.54001280470061        7.46771553114364        0.00121017714758
C            5.65499390834731        0.16562683226232       -0.00091596249819
C           -2.98995313666442        4.82658612536091       -0.00028561618306
C            3.49684263001974        1.32866395879804       -0.00032104081773
C           -5.18799144734873        5.97916338739765       -0.00106264265537
C            1.33904619646430        2.49725353387745        0.00008654916071
C           -7.36621558519336        7.03362518537394       -0.00177069654817
C           -0.81858815309922        3.65804888345909        0.00021457084047
C            7.72848628952845        1.42468238502077       -0.00161402733082
C           -0.90319500263765        6.11226695113742        0.00016064092071
C            5.58708182548300        2.60892971754149       -0.00066260222443
C           -3.04692657295057        7.23560086515572       -0.00117878213992
C            3.43425114626624        3.77677555438321        0.00015561456700
C            1.27700059448477        4.95085785607791        0.00058717315990
C           -1.33904664915844       -2.49725348546129        0.00009806885689
C            7.01656614570759        2.63547486680492       -0.00115338492251
C           -1.67779453289469        7.27824268611079       -0.00064659633207
C           -3.49684312158852       -1.32866411082685        0.00033790620270
C            4.85602749165799        3.81391141421930       -0.00011798181788
C           -5.65499418839039       -0.16562740218107        0.00074156989381
C            2.69789756380470        4.99149029503301        0.00066771584698
C           -7.79935669155194        1.02188033528731        0.00109427373803
C            0.53625539167448        6.15422405915349        0.00092448613611
C            0.74376315296033       -1.20529204512990        0.00000020784201
C           -1.41041173564442       -0.04222403976355        0.00015868546498
C            6.96384524213706        5.07031224107392       -0.00034394368064
C           -3.56632305167461        1.12021197599571        0.00034546582221
C            4.82171084566383        6.27467568205671        0.00094509496169
C           -5.71874767290141        2.27781534209307        0.00042248880910
C            2.60908426756728        7.40044376734915        0.00234613040012
C            2.82686811175135        0.08666595728799       -0.00028074317884
C           -5.82208589371407        4.72210933969160       -0.00042830526261
C            0.67180885644298        1.24916494519092        0.00001349151183
C           -7.99669695210341        5.80003527854235       -0.00098556885412
C           -1.48304765931669        2.41285262248225        0.00015496400171
C            6.93097490981459        7.48071474623685        0.00071998792370
C           -3.64888483540749        3.56656119137308       -0.00004010491931
C            4.91618391309437        1.36817992762386       -0.00067710415598
C           -3.74314636904092        6.02319435999394       -0.00085271203155
C            2.76070374949283        2.53871140463323       -0.00007654699372
C           -5.99144265591181        7.12719889821709       -0.00179254996727
C            0.59903748152423        3.70047853754442        0.00022237474784
C           -1.57020567722449        4.86828274266184        0.00004150654818
H           -3.08789002355609       -8.36595010768609       -0.00191368460368
H            1.20499639671902       -8.24640910385888        0.00226651185176
H            5.54605985532242       -8.10779040521553        0.00218837799854
H           -5.02953196667693       -8.41683947133686       -0.00267026284213
H           -0.71017601709965       -8.30179825459944       -0.00115056093779
H            3.58486066682372       -8.16944618869000        0.00271574641205
H            9.07491576301912       -5.73133241382869        0.00011531355743
H            8.87974513165473       -0.99076469362665       -0.00187814634016
H            7.96345959158973       -7.93343448688490        0.00163091680678
H           -7.44960187061485       -8.42870061496543       -0.00249186415596
H           -8.71878693735722       -6.31157612042746       -0.00083157042021
H           -8.75009259506509       -3.88896549106823        0.00063556259989
H           -8.80877947542912       -1.45773391846068        0.00144541488695
H            0.71017647510160        8.30179784870593        0.00301921627125
H            8.75009298343468        3.88896521292139       -0.00147308138579
H            8.71878763458506        6.31157597308297       -0.00045286253443
H            5.02953221202691        8.41684058234068        0.00176780255203
H           -7.96345899923791        7.93343511894248       -0.00236111195436
H            8.80877955289483        1.45773332976200       -0.00202275992936
H           -3.58486041514716        8.16944703921471       -0.00181624200118
H           -1.20499603926838        8.24640988471765       -0.00098483597397
H           -8.87974514054077        0.99076470890006        0.00132182614839
H            3.08789108855103        8.36594954946668        0.00332645568231
H           -9.07491557621418        5.73133285869734       -0.00091998676438
H            7.44960266937505        8.42870167242912        0.00094813275079
H           -5.54605934129490        8.10779099352810       -0.00240941280664
N            7.83086421733564       -3.41215213092493       -0.00086794580670
N           -7.83086420347753        3.41215224902221        0.00040858985051
H            8.84010536172295       -3.37527700021973       -0.00111778305832
H           -8.84010543104198        3.37527711917469        0.00046304345356
