132
 energy: -239.371166797762 gnorm: 0.042455017034 xtb: 6.7.1pre (5071a88)
C           -2.62491200000000       -7.44952500000000       -0.00145200000000
C            1.69237600000000       -7.32515700000000        0.00172500000000
C           -0.53905300000000       -6.19517100000000       -0.00015000000000
C            6.03374400000000       -7.18328000000000        0.00166900000000
C            3.77266100000000       -6.06396600000000        0.00128800000000
C            1.58530600000000       -4.89944600000000        0.00073900000000
C           -5.57975400000000       -7.52051000000000       -0.00215900000000
C           -1.24500500000000       -7.41093000000000       -0.00086800000000
C           -3.39789500000000       -6.27751600000000       -0.00106700000000
C            3.07147000000000       -7.28206700000000        0.00214500000000
C            0.91433600000000       -6.15232600000000        0.00076000000000
C           -1.28439200000000       -4.98363300000000       -0.00041600000000
C            8.05900100000000       -5.84554000000000        0.00039900000000
C            5.87017500000000       -4.75643900000000        0.00024400000000
C            3.68171400000000       -3.58719500000000        0.00074100000000
C            5.76487000000000       -2.29478100000000       -0.00036300000000
C            7.86462100000000       -1.03076800000000       -0.00187400000000
C            7.41952100000000       -7.08648100000000        0.00135400000000
C            5.23296400000000       -6.02210100000000        0.00124700000000
C            3.01710900000000       -4.85683700000000        0.00058100000000
C            0.82811500000000       -3.67926400000000       -0.00087100000000
C            7.28845300000000       -4.68137600000000        0.00000000000000
C            5.10250400000000       -3.53686200000000       -0.00015700000000
C            2.92990600000000       -2.38110600000000       -0.00136900000000
C            7.20561400000000       -2.23544700000000       -0.00113400000000
C            5.02571600000000       -1.07888200000000       -0.00133300000000
C            7.14513100000000        0.20180700000000       -0.00163800000000
C           -6.98367600000000       -7.53348800000000       -0.00202100000000
C           -4.85913200000000       -6.31981400000000       -0.00137600000000
C           -7.02059700000000       -5.10523700000000       -0.00032500000000
C           -2.71723900000000       -5.02514300000000       -0.00036800000000
C           -4.89503300000000       -3.84019200000000        0.00010700000000
C           -7.07443500000000       -2.65451100000000        0.00086800000000
C           -0.60209700000000       -3.72255700000000        0.00112400000000
C           -2.78283900000000       -2.55733500000000        0.00143000000000
C           -4.95591200000000       -1.37771200000000        0.00122700000000
C           -7.14513100000000       -0.20180700000000        0.00132200000000
C           -7.69770200000000       -6.35297900000000       -0.00098300000000
C           -5.58176400000000       -5.08887200000000       -0.00045000000000
C           -7.72843100000000       -3.89055100000000        0.00062700000000
C           -3.46011700000000       -3.80159800000000       -0.00072300000000
C           -5.63127600000000       -2.62864500000000        0.00034400000000
C           -7.78951100000000       -1.43233800000000        0.00157800000000
C            1.49729000000000       -2.42812800000000        0.00204400000000
C           -7.20561400000000        2.23544700000000        0.00081500000000
C            1.24500500000000        7.41092900000000        0.00225400000000
C           -0.67599600000000       -1.25636800000000        0.00291200000000
C            7.72843000000000        3.89055100000000       -0.00124000000000
C           -2.85138200000000       -0.08832100000000        0.00248900000000
C            5.58176300000000        5.08887100000000        0.00015300000000
C           -5.02571600000000        1.07888200000000        0.00123800000000
C            3.39789500000000        6.27751500000000        0.00143800000000
C            3.59785700000000       -1.12553400000000        0.00127400000000
C           -5.10250400000000        3.53686200000000        0.00011900000000
C            1.42188800000000        0.04342200000000        0.00307700000000
C           -7.28845300000000        4.68137800000000       -0.00036600000000
C           -0.75062500000000        1.21199600000000        0.00294700000000
C            7.69770000000000        6.35298000000000       -0.00006600000000
C           -2.92990600000000        2.38110600000000        0.00146800000000
C            5.57975100000000        7.52051000000000        0.00129800000000
C            5.70056900000000        0.16825600000000       -0.00052600000000
C           -3.01710800000000        4.85683700000000       -0.00026700000000
C            3.52539800000000        1.33756000000000        0.00125600000000
C           -5.23296300000000        6.02210200000000       -0.00126300000000
C            1.34824000000000        2.51472100000000        0.00204300000000
C           -7.41951800000000        7.08648300000000       -0.00193700000000
C           -0.82811500000000        3.67926300000000        0.00120900000000
C            7.78951000000000        1.43233800000000       -0.00199900000000
C           -0.91433500000000        6.15232600000000        0.00007700000000
C            5.63127500000000        2.62864400000000       -0.00053100000000
C           -3.07146900000000        7.28206800000000       -0.00130900000000
C            3.46011600000000        3.80159700000000        0.00077500000000
C            1.28439200000000        4.98363300000000        0.00091000000000
C           -1.34824000000000       -2.51472200000000       -0.00187400000000
C            7.07443400000000        2.65451100000000       -0.00125900000000
C           -1.69237500000000        7.32515700000000       -0.00067500000000
C           -3.52539800000000       -1.33756100000000       -0.00123100000000
C            4.89503300000000        3.84019100000000       -0.00022300000000
C           -5.70056900000000       -0.16825600000000        0.00037700000000
C            2.71723800000000        5.02514300000000        0.00064900000000
C           -7.86462100000000        1.03076800000000        0.00148700000000
C            0.53905400000000        6.19517100000000        0.00105800000000
C            0.75062500000000       -1.21199700000000       -0.00280200000000
C           -1.42188800000000       -0.04342300000000       -0.00294000000000
C            7.02059600000000        5.10523800000000       -0.00031100000000
C           -3.59785700000000        1.12553400000000       -0.00120400000000
C            4.85913100000000        6.31981300000000        0.00112800000000
C           -5.76487000000000        2.29478100000000        0.00023900000000
C            2.62491200000000        7.44952300000000        0.00259300000000
C            2.85138200000000        0.08832000000000       -0.00244700000000
C           -5.87017400000000        4.75644000000000       -0.00036200000000
C            0.67599700000000        1.25636700000000       -0.00274800000000
C           -8.05900000000000        5.84554300000000       -0.00098300000000
C           -1.49729000000000        2.42812700000000       -0.00179600000000
C            6.98367400000000        7.53348900000000        0.00079300000000
C           -3.68171400000000        3.58719500000000       -0.00060000000000
C            4.95591200000000        1.37771200000000       -0.00134000000000
C           -3.77266000000000        6.06396600000000       -0.00090900000000
C            2.78283900000000        2.55733400000000       -0.00134700000000
C           -6.03374200000000        7.18328100000000       -0.00198100000000
C            0.60209700000000        3.72255700000000       -0.00076500000000
C           -1.58530600000000        4.89944600000000       -0.00021900000000
H           -3.10471200000000       -8.42070900000000       -0.00170300000000
H            1.21705000000000       -8.29802100000000        0.00265700000000
H            5.58171200000000       -8.16720700000000        0.00243600000000
H           -5.06271600000000       -8.47257300000000       -0.00308000000000
H           -0.71344300000000       -8.35434800000000       -0.00146600000000
H            3.60999500000000       -8.22201300000000        0.00266300000000
H            9.14321100000000       -5.77882000000000        0.00013100000000
H            8.95124000000000       -1.00448700000000       -0.00207500000000
H            8.01943200000000       -7.99203200000000        0.00169700000000
H           -7.50501600000000       -8.48653800000000       -0.00262700000000
H           -8.78432700000000       -6.36049100000000       -0.00083300000000
H           -8.81547300000000       -3.91483400000000        0.00078400000000
H           -8.87625400000000       -1.46546400000000        0.00168500000000
H            0.71344300000000        8.35434600000000        0.00344100000000
H            8.81547200000000        3.91483400000000       -0.00160400000000
H            8.78432500000000        6.36049300000000       -0.00046200000000
H            5.06271300000000        8.47257300000000        0.00191500000000
H           -8.01942800000000        7.99203500000000       -0.00251400000000
H            8.87625400000000        1.46546500000000       -0.00224100000000
H           -3.60999400000000        8.22201400000000       -0.00159000000000
H           -1.21704900000000        8.29802200000000       -0.00130200000000
H           -8.95124000000000        1.00448700000000        0.00155600000000
H            3.10471300000000        8.42070800000000        0.00335700000000
H           -9.14321000000000        5.77882300000000       -0.00091700000000
H            7.50501400000000        8.48653900000000        0.00095400000000
H           -5.58170800000000        8.16720800000000       -0.00284800000000
N            7.88770600000000       -3.43735600000000       -0.00103300000000
N           -7.88770600000000        3.43735700000000        0.00056700000000
H            8.89911200000000       -3.40182600000000       -0.00115100000000
H           -8.89911100000000        3.40182800000000        0.00027800000000
132
 energy: -239.382165774387 gnorm: 0.018431447211 xtb: 6.7.1pre (5071a88)
C           -2.62052643594844       -7.42426148438540       -0.00133740659364
C            1.68962904802996       -7.30061521270765        0.00176306662378
C           -0.53857407381137       -6.17636345235056       -0.00007824610883
C            6.02260163774242       -7.15595881974954        0.00165942014161
C            3.76362910801451       -6.04557941061377        0.00128310480057
C            1.58065460916415       -4.88637140201648        0.00057900216294
C           -5.56912486812466       -7.49531570896729       -0.00212430650400
C           -1.24595172134324       -7.38594963422688       -0.00091004388938
C           -3.39238906879873       -6.25760182227333       -0.00105740672549
C            3.06299071782808       -7.25804607181249        0.00201635511521
C            0.91025336810609       -6.13398303103128        0.00068449725957
C           -1.28325710442053       -4.96984068062694       -0.00023983127087
C            8.03361073448193       -5.82672562953246        0.00040055726917
C            5.85250498370714       -4.74335396989108        0.00031255221343
C            3.67012643024887       -3.57980243508123        0.00040181507108
C            5.74704014516373       -2.28906101153239       -0.00048556460147
C            7.83521112838887       -1.02841704292381       -0.00169852568743
C            7.40040274873130       -7.06161317744378        0.00131366572792
C            5.21758050067705       -6.00391204065612        0.00114743170778
C            3.00773481310970       -4.84459628250044        0.00062871826932
C            0.82452402923130       -3.67125943741463       -0.00011874739953
C            7.26608757247654       -4.66679103550404       -0.00005810290852
C            5.08574994844813       -3.52957255282369       -0.00010743219592
C            2.92035237340962       -2.37589351166566       -0.00033409587665
C            7.18107701564051       -2.23140115450431       -0.00110945903446
C            5.01006767773788       -1.07727621248371       -0.00082333077162
C            7.11910647019206        0.20137644484908       -0.00155330461360
C           -6.96411130287835       -7.50834873814412       -0.00198371087744
C           -4.84734503762202       -6.30071266129305       -0.00126497777219
C           -6.99716512893316       -5.09191342672243       -0.00028331476444
C           -2.71158187843019       -5.01116417101314       -0.00043453937765
C           -4.88143926693302       -3.83038258930143        0.00002013703862
C           -7.05012611562316       -2.64802542394183        0.00087564679589
C           -0.60153564774331       -3.71409958211440        0.00036601869371
C           -2.77578822319307       -2.55034911989115        0.00037731740662
C           -4.94186784032020       -1.37397823551607        0.00073963430786
C           -7.11910645036837       -0.20137623422141        0.00124198091699
C           -7.67269021509895       -6.33387648188744       -0.00097415691658
C           -5.56595684318779       -5.07484516985140       -0.00049554023873
C           -7.70219479047143       -3.88158208454964        0.00055799413937
C           -3.45190424309446       -3.79198673649607       -0.00036145196520
C           -5.61438577175300       -2.62130410899518        0.00041221745110
C           -7.76181165106408       -1.42990235948032        0.00138671993110
C            1.49242890807080       -2.42274390381630        0.00055397082816
C           -7.18107697011070        2.23140143654894        0.00078068398055
C            1.24595152041595        7.38594874094304        0.00228589565818
C           -0.67484165888531       -1.25386477583640        0.00074011864644
C            7.70219417874504        3.88158240057390       -0.00117015154376
C           -2.84308656986107       -0.08757746714545        0.00079792344682
C            5.56595621546887        5.07484484507024        0.00019696364584
C           -5.01006762040909        1.07727623864345        0.00074152312678
C            3.39238889927679        6.25760103001523        0.00141447659367
C            3.58663564644873       -1.12401217314493        0.00013173005353
C           -5.08574977312032        3.52957267732819        0.00007885835437
C            1.41816012647734        0.04285287443097        0.00073776441358
C           -7.26608717314042        4.66679234854028       -0.00032989915578
C           -0.74819769126376        1.20978212549700        0.00076708599479
C            7.67268881922311        6.33387747708125       -0.00006681990185
C           -2.92035230427531        2.37589331791686        0.00045736024938
C            5.56912312565075        7.49531611670865        0.00127833269826
C            5.68287745773842        0.16664879296528       -0.00079974351361
C           -3.00773410344902        4.84459615890512       -0.00030877325388
C            3.51578521426823        1.33417642827933        0.00011901175983
C           -5.21757941690360        6.00391255258668       -0.00115291818322
C            1.34582995321546        2.50823660127042        0.00057044453039
C           -7.40040054337276        7.06161458890866       -0.00189510457091
C           -0.82452399666825        3.67125864170514        0.00047457758102
C            7.76181117861643        1.42990263368040       -0.00180424509874
C           -0.91025284544887        6.13398266699289        0.00014511760160
C            5.61438518492923        2.62130377426251       -0.00060202369093
C           -3.06298974720823        7.25804654159398       -0.00119283266524
C            3.45190368218393        3.79198610131442        0.00041306344270
C            1.28325698953243        4.96984014146315        0.00073242624171
C           -1.34583023443160       -2.50823724354100       -0.00039125016741
C            7.05012560320101        2.64802572848075       -0.00126435015066
C           -1.68962818701488        7.30061507241800       -0.00072088379643
C           -3.51578536806728       -1.33417691079913       -0.00010165845033
C            4.88143912246586        3.83038226063857       -0.00013311358193
C           -5.68287750821716       -0.16664882335891        0.00064169989309
C            2.71158130956032        5.01116374116556        0.00071068726766
C           -7.83521113855411        1.02841734671199        0.00130844549576
C            0.53857446670954        6.17636302931871        0.00097268910273
C            0.74819741712713       -1.20978265916660       -0.00060601165755
C           -1.41816043667247       -0.04285331125790       -0.00060980409008
C            6.99716444335236        5.09191414296996       -0.00035416766011
C           -3.58663567110807        1.12401205267754       -0.00008495260550
C            4.84734440866189        6.30071234862979        0.00102583030927
C           -5.74704008028782        2.28906112739678        0.00035547109992
C            2.62052623527500        7.42426008704887        0.00246400303234
C            2.84308648488500        0.08757699202137       -0.00073624081210
C           -5.85250415888177        4.74335463549680       -0.00043120328808
C            0.67484177981811        1.25386425678418       -0.00058283253744
C           -8.03360962461725        5.82672745934030       -0.00098799912786
C           -1.49242896484478        2.42274317476335       -0.00033306769399
C            6.96410980055752        7.50834977409111        0.00075991966233
C           -3.67012630173992        3.57980227718407       -0.00027288400716
C            4.94186776721113        1.37397821337147       -0.00084468894143
C           -3.76362811800117        6.04557942327887       -0.00091021590579
C            2.77578810597214        2.55034859261030       -0.00029569850284
C           -6.02259978321747        7.15595959508020       -0.00196572208716
C            0.60153549266335        3.71409911498698       -0.00002338449212
C           -1.58065447685673        4.88637108035101       -0.00007242754676
H           -3.09754697028442       -8.39354021846091       -0.00179105088213
H            1.21897846037851       -8.27228547218154        0.00253633020044
H            5.57870953732034       -8.13924614646089        0.00238765005439
H           -5.06019128872317       -8.44757907182565       -0.00300553383171
H           -0.71888426320124       -8.32837888710316       -0.00135286257382
H            3.59904019531168       -8.19587531862117        0.00271959691738
H            9.11439489102506       -5.76377944538733        0.00012905570816
H            8.91851047768968       -1.00021732597773       -0.00211053256398
H            7.99942788299122       -7.96396541215158        0.00170126659514
H           -7.48481605798413       -8.45830331402308       -0.00262298535846
H           -8.75554927187300       -6.34376640980787       -0.00081634841381
H           -8.78579526732367       -3.90784653554917        0.00078684305710
H           -8.84514025095033       -1.46423014961733        0.00173192586277
H            0.71888402979320        8.32837733517154        0.00331565247458
H            8.78579450335863        3.90784687824931       -0.00160406773886
H            8.75554777476979        6.34376813037390       -0.00046359651500
H            5.06018960712344        8.44757948566622        0.00189090923347
H           -7.99942499090759        7.96396736488380       -0.00250515979694
H            8.84513996278389        1.46423102254073       -0.00228635454280
H           -3.59903903205696        8.19587594444734       -0.00167989758851
H           -1.21897753095863        8.27228578310915       -0.00118565099102
H           -8.91851055574062        1.00021761302159        0.00158420737764
H            3.09754702723677        8.39353882912974        0.00339168882341
H           -9.11439379847000        5.76378155935378       -0.00091109273925
H            7.48481429836500        8.45830450872859        0.00096670456098
H           -5.57870645188313        8.13924661915701       -0.00276567472855
N            7.86443856621805       -3.42896966450405       -0.00100616450269
N           -7.86443837275935        3.42897058346563        0.00053721961794
H            8.87521383479336       -3.39421661962432       -0.00113439898531
H           -8.87521339850331        3.39421872531053        0.00031395828942
132
 energy: -239.386453261511 gnorm: 0.006262375736 xtb: 6.7.1pre (5071a88)
C           -2.61408929630754       -7.40387716907835       -0.00132537927117
C            1.68287142587446       -7.28121668653104        0.00172835810107
C           -0.53717526247912       -6.15899460703545       -0.00007629024459
C            6.00452921453422       -7.13302605409373        0.00165162443493
C            3.75168128950332       -6.02836969143607        0.00126856614913
C            1.57446145665753       -4.87292480147289        0.00045837864619
C           -5.55186534216775       -7.47358147857124       -0.00209864603690
C           -1.24261013211162       -7.36596783750612       -0.00088474202439
C           -3.38320569545420       -6.23892099242085       -0.00103895695422
C            3.05305095482564       -7.23889232465655        0.00198443015281
C            0.90544550385981       -6.11701735596791        0.00068096884782
C           -1.28011573390046       -4.95565588732463       -0.00011359916379
C            8.00933186558578       -5.80689737435196        0.00041133095498
C            5.83318548261407       -4.72864145114961        0.00032928513935
C            3.65664311564804       -3.57069463836896        0.00016408248102
C            5.72825372948301       -2.28157928163088       -0.00059896431813
C            7.80870773047172       -1.02435200402444       -0.00162221981532
C            7.37905492168099       -7.03990256611580        0.00129343594652
C            5.19892177128792       -5.98589479843736        0.00111864520427
C            2.99657543578492       -4.83154064497845        0.00067647608182
C            0.82059887951497       -3.66189370507780        0.00026787327113
C            7.24360740885663       -4.64974082095169       -0.00007573113689
C            5.06712799998262       -3.52025531051883       -0.00001483111716
C            2.90895917980141       -2.36912943963552        0.00010417894193
C            7.15680264999086       -2.22532511692169       -0.00107405310186
C            4.99247443643964       -1.07473017482879       -0.00055634439594
C            7.09381530291647        0.20090098900811       -0.00149463279456
C           -6.94279964461384       -7.48650144608286       -0.00195339830389
C           -4.83159145748763       -6.28165715608471       -0.00123509668073
C           -6.97449573216975       -5.07646265345081       -0.00028285948858
C           -2.70344949837399       -4.99661221990986       -0.00048362161456
C           -4.86519071351123       -3.81893895070546       -0.00005582637817
C           -7.02657510647195       -2.63938407376064        0.00083525547517
C           -0.60017578579863       -3.70434523995410       -0.00002484963506
C           -2.76632727598990       -2.54204824084406       -0.00002348155847
C           -4.92518055537141       -1.36976578161118        0.00049504334072
C           -7.09381547190248       -0.20090057335557        0.00118138577625
C           -7.64973599998923       -6.31402908977519       -0.00097718634490
C           -5.54835894328814       -5.05968314539880       -0.00049316916292
C           -7.67870420818826       -3.86990272194756        0.00050455268479
C           -3.44103379943796       -3.78105630131851       -0.00011317184771
C           -5.59618724957828       -2.61260627489862        0.00048863704474
C           -7.73719456030630       -1.42634574043386        0.00132031573935
C            1.48653907027075       -2.41591971632404       -0.00007427945583
C           -7.15680269469352        2.22532566006662        0.00074018162256
C            1.24261000667022        7.36596709458245        0.00224359694347
C           -0.67297149191294       -1.25059087822809       -0.00013882046124
C            7.67870367985769        3.86990312433535       -0.00111589726070
C           -2.83264801788406       -0.08682063769540        0.00009072394471
C            5.54835858764494        5.05968318644758        0.00019070261875
C           -4.99247448099295        1.07473032310785        0.00048121793125
C            3.38320547044637        6.23892060020075        0.00138566425044
C            3.57346340267830       -1.12162767443900       -0.00040404522661
C           -5.06712776707316        3.52025558925068       -0.00001153758878
C            1.41332470124316        0.04231119750698       -0.00026759091355
C           -7.24360689308201        4.64974150330759       -0.00032249556770
C           -0.74529771117777        1.20676484912186       -0.00010593814006
C            7.64973518284730        6.31402968906997       -0.00005698478560
C           -2.90895912592426        2.36912928629783        0.00002964084159
C            5.55186470673795        7.47358177896387        0.00128085392200
C            5.66417103066038        0.16552399891521       -0.00098295242190
C           -2.99657504707486        4.83154060562721       -0.00035345160798
C            3.50372422661233        1.33020583699022       -0.00041647470386
C           -5.19892086755756        5.98589501897800       -0.00112225565210
C            1.34190221605670        2.50042071298884       -0.00003208030184
C           -7.37905360389487        7.03990330277199       -0.00186645756013
C           -0.82059875848170        3.66189337558962        0.00009262861361
C            7.73719426423320        1.42634622029688       -0.00173924725030
C           -0.90544530298167        6.11701702275526        0.00014733687926
C            5.59618693353947        2.61260640311637       -0.00068257236237
C           -3.05305017045308        7.23889258556334       -0.00117960302584
C            3.44103365566372        3.78105607594386        0.00016322773317
C            1.28011570365430        4.95565536771286        0.00060343909607
C           -1.34190234313573       -2.50042104672810        0.00021391043713
C            7.02657475213022        2.63938448679214       -0.00122350568101
C           -1.68287076423250        7.28121673515756       -0.00069669088772
C           -3.50372440677980       -1.33020600112396        0.00043020920774
C            4.86519041710192        3.81893901092524       -0.00005902125956
C           -5.66417117678324       -0.16552386042326        0.00081977797259
C            2.70344941697502        4.99661178924986        0.00075631625328
C           -7.80870787889627        1.02435256469978        0.00122482723628
C            0.53717528249910        6.15899407486600        0.00096497035583
C            0.74529762781391       -1.20676515990391        0.00027332013523
C           -1.41332481833889       -0.04231146589058        0.00039296716624
C            6.97449522158448        5.07646296369882       -0.00035321646545
C           -3.57346345128139        1.12162754585699        0.00044355579383
C            4.83159112239705        6.28165711743483        0.00099991172124
C           -5.72825367836948        2.28157958066177        0.00046139357769
C            2.61408919535499        7.40387643526325        0.00242087668839
C            2.83264793338036        0.08682047133594       -0.00002057649450
C           -5.83318496842373        4.72864185955758       -0.00045442124080
C            0.67297138380157        1.25059056517514        0.00029452528590
C           -8.00933090266969        5.80689821016073       -0.00100441945227
C           -1.48653901773005        2.41591940655108        0.00028541147590
C            6.94279874267698        7.48650213519313        0.00074885802020
C           -3.65664291030161        3.57069459732631       -0.00004054162594
C            4.92518034319413        1.36976580075283       -0.00059919368516
C           -3.75168051688882        6.02836986039637       -0.00090190772334
C            2.76632718605483        2.54204804663085        0.00010495129430
C           -6.00452780978392        7.13302651916494       -0.00193956767780
C            0.60017575728769        3.70434478875462        0.00035920294512
C           -1.57446120143532        4.87292451642840        0.00004152857187
H           -3.09154253079504       -8.37078495948918       -0.00187127342637
H            1.21252278724299       -8.25115449191142        0.00240347692577
H            5.56312216503439       -8.11559686953909        0.00232126074778
H           -5.04533568809057       -8.42511823008395       -0.00290015267062
H           -0.71605334810367       -8.30667352951393       -0.00123203887721
H            3.58970192394434       -8.17416193681401        0.00275871982488
H            9.08808059373784       -5.74378482913906        0.00010712934971
H            8.88970444084406       -0.99418268298668       -0.00208146319713
H            7.97716230959384       -7.93987417049387        0.00170372888993
H           -7.46271491160638       -8.43440080873052       -0.00261163232286
H           -8.73030616521104       -6.32285213200658       -0.00079329640646
H           -8.75984583331361       -3.89670743181527        0.00077058424777
H           -8.81805492636878       -1.46097129547462        0.00168456685675
H            0.71605309909257        8.30667233441264        0.00317582126291
H            8.75984525057169        3.89670789427614       -0.00158702045957