      -----------------------------------------------------------      
     |                   =====================                   |     
     |                           x T B                           |     
     |                   =====================                   |     
     |                         S. Grimme                         |     
     |          Mulliken Center for Theoretical Chemistry        |     
     |                    University of Bonn                     |     
      -----------------------------------------------------------      

   * xtb version 6.7.1pre (5071a88) compiled by 'Marcel@Raven' on 2024-07-23

   xtb is free software: you can redistribute it and/or modify it under
   the terms of the GNU Lesser General Public License as published by
   the Free Software Foundation, either version 3 of the License, or
   (at your option) any later version.
   
   xtb is distributed in the hope that it will be useful,
   but WITHOUT ANY WARRANTY; without even the implied warranty of
   MERCHANTABILITY or FITNESS FOR A PARTICULAR PURPOSE.  See the
   GNU Lesser General Public License for more details.
   
   Cite this work as:
   * C. Bannwarth, E. Caldeweyher, S. Ehlert, A. Hansen, P. Pracht,
     J. Seibert, S. Spicher, S. Grimme, WIREs Comput. Mol. Sci., 2020, 11,
     e01493. DOI: 10.1002/wcms.1493
   
   for GFN2-xTB:
   * C. Bannwarth, S. Ehlert and S. Grimme., J. Chem. Theory Comput., 2019,
     15, 1652-1671. DOI: 10.1021/acs.jctc.8b01176
   for GFN1-xTB:
   * S. Grimme, C. Bannwarth, P. Shushkov, J. Chem. Theory Comput., 2017,
     13, 1989-2009. DOI: 10.1021/acs.jctc.7b00118
   for GFN0-xTB:
   * P. Pracht, E. Caldeweyher, S. Ehlert, S. Grimme, ChemRxiv, 2019, preprint.
     DOI: 10.26434/chemrxiv.8326202.v1
   for GFN-FF:
   * S. Spicher and S. Grimme, Angew. Chem. Int. Ed., 2020, 59, 15665-15673.
     DOI: 10.1002/anie.202004239
   
   for ALPB and GBSA implicit solvation:
   * S. Ehlert, M. Stahn, S. Spicher, S. Grimme, J. Chem. Theory Comput.,
     2021, 17, 4250-4261. DOI: 10.1021/acs.jctc.1c00471
   
   for ddCOSMO and CPCM-X implicit solvation:
   * M. Stahn, S. Ehlert, S. Grimme, J. Phys. Chem. A,
     2023, XX, XXXX-XXXX. DOI: 10.1021/acs.jpca.3c04382
   
   for DFT-D4:
   * E. Caldeweyher, C. Bannwarth and S. Grimme, J. Chem. Phys., 2017,
     147, 034112. DOI: 10.1063/1.4993215
   * E. Caldeweyher, S. Ehlert, A. Hansen, H. Neugebauer, S. Spicher,
     C. Bannwarth and S. Grimme, J. Chem. Phys., 2019, 150, 154122.
     DOI: 10.1063/1.5090222
   * E. Caldeweyher, J.-M. Mewes, S. Ehlert and S. Grimme, Phys. Chem. Chem. Phys.
     2020, 22, 8499-8512. DOI: 10.1039/D0CP00502A
   
   for sTDA-xTB:
   * S. Grimme and C. Bannwarth, J. Chem. Phys., 2016, 145, 054103.
     DOI: 10.1063/1.4959605
   
   in the mass-spec context:
   * V. Asgeirsson, C. Bauer and S. Grimme, Chem. Sci., 2017, 8, 4879.
     DOI: 10.1039/c7sc00601b
   * J. Koopman and S. Grimme, ACS Omega 2019, 4, 12, 15120-15133.
     DOI: 10.1021/acsomega.9b02011
   
   for metadynamics refer to:
   * S. Grimme, J. Chem. Theory Comput., 2019, 155, 2847-2862
     DOI: 10.1021/acs.jctc.9b00143
   
   for SPH calculations refer to:
   * S. Spicher and S. Grimme, J. Chem. Theory Comput., 2021, 17, 1701-1714
     DOI: 10.1021/acs.jctc.0c01306
   
   for ONIOM refer to:
   * C. Plett, A. Katbashev, S. Ehlert, S. Grimme, M. Bursch,
     Phys. Chem. Chem. Phys., 2023, 25, 17860-17868. DOI: 10.1039/D3CP02178E
   
   for DIPRO refer to:
   * J. Kohn, N. Gildemeister, S. Grimme, D. Fazzi, A. Hansen,
     J. Chem. Phys., 2023, just accepted.
   
   for PTB refer to:
   * S. Grimme, M. Mueller, A. Hansen, J. Chem. Phys., 2023, 158, 124111.
     DOI: 10.1063/5.0137838
   
   with help from (in alphabetical order)
   P. Atkinson, C. Bannwarth, F. Bohle, G. Brandenburg, E. Caldeweyher
   M. Checinski, S. Dohm, S. Ehlert, S. Ehrlich, I. Gerasimov, C. Hölzer
   A. Katbashev, J. Kohn, J. Koopman, C. Lavigne, S. Lehtola, F. März, M. Müller,
   F. Musil, H. Neugebauer, J. Pisarek, C. Plett, P. Pracht, F. Pultar,
   J. Seibert, P. Shushkov, S. Spicher, M. Stahn, M. Steiner, T. Strunk,
   J. Stückrath, T. Rose, and J. Unsleber
   
 * started run on 2025/12/08 at 00:34:35.868     
   ID    Z sym.   atoms
    1    6 C      1-50
    2    1 H      51-70
    3   15 P      71-74

           -------------------------------------------------
          |                Calculation Setup                |
           -------------------------------------------------

          program call               : xtb "C:\Users\LENOVO GAMING\Documents\GitHub\molecular-conductivity-sim\dataset\1nm-4Pdoped-5percent.xyz" --opt --parallel 4
          coordinate file            : C:\Users\LENOVO GAMING\Documents\GitHub\molecular-conductivity-sim\dataset\1nm-4Pdoped-5percent.xyz
          omp threads                :                     4


           -------------------------------------------------
          |                 G F N 2 - x T B                 |
           -------------------------------------------------

        Reference                      10.1021/acs.jctc.8b01176
      * Hamiltonian:
        H0-scaling (s, p, d)           1.850000    2.230000    2.230000
        zeta-weighting                 0.500000
      * Dispersion:
        s8                             2.700000
        a1                             0.520000
        a2                             5.000000
        s9                             5.000000
      * Repulsion:
        kExp                           1.500000    1.000000
        rExp                           1.000000
      * Coulomb:
        alpha                          2.000000
        third order                    shell-resolved
        anisotropic                    true
        a3                             3.000000
        a5                             4.000000
        cn-shift                       1.200000
        cn-exp                         4.000000
        max-rad                        5.000000


          ...................................................
          :                      SETUP                      :
          :.................................................:
          :  # basis functions                 260          :
          :  # atomic orbitals                 256          :
          :  # shells                          132          :
          :  # electrons                       240          :
          :  max. iterations                   250          :
          :  Hamiltonian                  GFN2-xTB          :
          :  restarted?                      false          :
          :  GBSA solvation                  false          :
          :  PC potential                    false          :
          :  electronic temp.          300.0000000     K    :
          :  accuracy                    1.0000000          :
          :  -> integral cutoff          0.2500000E+02      :
          :  -> integral neglect         0.1000000E-07      :
          :  -> SCF convergence          0.1000000E-05 Eh   :
          :  -> wf. convergence          0.1000000E-03 e    :
          :  Broyden damping             0.4000000          :
          :  net charge                          0          :
          :  unpaired electrons                  0          :
          ...................................................

 iter      E             dE          RMSdq      gap      omega  full diag
   1   -129.6517059 -0.129652E+03  0.517E+00    0.89       0.0  T
   2   -129.6988008 -0.470950E-01  0.303E+00    0.86       1.0  T
   3   -129.6500378  0.487630E-01  0.921E-01    0.85       1.0  T
   4   -129.6697729 -0.197351E-01  0.589E-01    0.90       1.0  T
   5   -129.7009092 -0.311363E-01  0.255E-01    0.86       1.0  T
   6   -129.7067100 -0.580076E-02  0.852E-02    0.85       1.0  T
   7   -129.7069279 -0.217879E-03  0.455E-02    0.85       1.0  T
   8   -129.7069973 -0.694376E-04  0.176E-02    0.85       1.0  T
   9   -129.7070132 -0.159227E-04  0.653E-03    0.85       1.8  T
  10   -129.7070143 -0.105938E-05  0.316E-03    0.85       3.7  T
  11   -129.7070148 -0.496521E-06  0.130E-03    0.85       9.0  T
  12   -129.7070149 -0.101271E-06  0.517E-04    0.85      22.5  T
  13   -129.7070149 -0.109379E-07  0.263E-04    0.85      44.3  T

   *** convergence criteria satisfied after 13 iterations ***

         #    Occupation            Energy/Eh            Energy/eV
      -------------------------------------------------------------
         1        2.0000           -0.6716553             -18.2767
       ...           ...                  ...                  ...
       114        2.0000           -0.3901642             -10.6169
       115        2.0000           -0.3873035             -10.5391
       116        2.0000           -0.3831178             -10.4252
       117        2.0000           -0.3732769             -10.1574
       118        2.0000           -0.3713697             -10.1055
       119        2.0000           -0.3633817              -9.8881
       120        2.0000           -0.3399227              -9.2498 (HOMO)
       121        0.0000           -0.3086451              -8.3987 (LUMO)
       122                         -0.2830719              -7.7028
       123                         -0.2739165              -7.4536
       124                         -0.2714712              -7.3871
       125                         -0.2592293              -7.0540
       ...                                ...                  ...
       256                          0.9401371              25.5824
      -------------------------------------------------------------
                  HL-Gap            0.0312777 Eh            0.8511 eV
             Fermi-level           -0.3242839 Eh           -8.8242 eV

 SCC (total)                   0 d,  0 h,  0 min,  0.303 sec
 SCC setup                      ...        0 min,  0.001 sec (  0.330%)
 Dispersion                     ...        0 min,  0.002 sec (  0.660%)
 classical contributions        ...        0 min,  0.000 sec (  0.000%)
 integral evaluation            ...        0 min,  0.017 sec (  5.611%)
 iterations                     ...        0 min,  0.230 sec ( 75.908%)
 molecular gradient             ...        0 min,  0.052 sec ( 17.162%)
 printout                       ...        0 min,  0.001 sec (  0.330%)

         :::::::::::::::::::::::::::::::::::::::::::::::::::::
         ::                     SUMMARY                     ::
         :::::::::::::::::::::::::::::::::::::::::::::::::::::
         :: total energy            -127.526763110840 Eh    ::
         :: gradient norm              0.040101929282 Eh/a0 ::
         :: HOMO-LUMO gap              0.851109255472 eV    ::
         ::.................................................::
         :: SCC energy              -129.709004112798 Eh    ::
         :: -> isotropic ES            0.003297135799 Eh    ::
         :: -> anisotropic ES          0.005622797826 Eh    ::
         :: -> anisotropic XC          0.056380089786 Eh    ::
         :: -> dispersion             -0.145995932909 Eh    ::
         :: repulsion energy           2.182241001958 Eh    ::
         :: add. restraining           0.000000000000 Eh    ::
         :: total charge              -0.000000000000 e     ::
         :::::::::::::::::::::::::::::::::::::::::::::::::::::

      ----------------------------------------------------------- 
     |                   =====================                   |
     |                        A N C O P T                        |
     |                   =====================                   |
     |               Approximate Normal Coordinate               |
     |                Rational Function Optimizer                |
      ----------------------------------------------------------- 
      ----------------------------------------------------------- 
     |                   =====================                   |
     |                        A N C O P T                        |
     |                   =====================                   |
     |               Approximate Normal Coordinate               |
     |                Rational Function Optimizer                |
      ----------------------------------------------------------- 

          ...................................................
          :                      SETUP                      :
          :.................................................:
          :   optimization level            normal          :
          :   max. optcycles                   222          :
          :   ANC micro-cycles                  20          :
          :   degrees of freedom               216          :
          :.................................................:
          :   RF solver                   davidson          :
          :   write xtbopt.log                true          :
          :   linear?                        false          :
          :   energy convergence         0.5000000E-05 Eh   :
          :   grad. convergence          0.1000000E-02 Eh/α :
          :   maxmium RF displ.          1.0000000          :
          :   Hlow (freq-cutoff)         0.1000000E-01      :
          :   Hmax (freq-cutoff)         5.0000000          :
          :   S6 in model hess.         20.0000000          :
          ...................................................

generating ANC from exact Hessian ...
Using Lindh-Hessian (1995)
 Shifting diagonal of input Hessian by   9.754428768924139E-003
 Lowest  eigenvalues of input Hessian
    0.000000    0.000000    0.000000    0.000000    0.000000    0.000000
    0.010000    0.010274    0.010572    0.010799    0.010889    0.011950
    0.012567    0.012755    0.012802    0.014197    0.014934    0.015090
 Highest eigenvalues
    1.984327    1.988082    2.024550    2.043417    2.078433    2.089455
 

........................................................................
.............................. CYCLE    1 ..............................
........................................................................

 iter      E             dE          RMSdq      gap      omega  full diag
   1   -129.7070149 -0.129707E+03  0.116E-04    0.85       0.0  T
   2   -129.7070149  0.565592E-11  0.940E-05    0.85     123.7  T
   3   -129.7070149 -0.543935E-09  0.466E-05    0.85     249.4  T
     SCC iter.                  ...        0 min,  0.054 sec
     gradient                   ...        0 min,  0.053 sec
 * total energy  :  -127.5267631 Eh     change       -0.3034756E-08 Eh
   gradient norm :     0.0401018 Eh/α   predicted     0.0000000E+00 (-100.00%)
   displ. norm   :     0.5003445 α      lambda       -0.1501987E-01
   maximum displ.:     0.2085335 α      in ANC's #41, #44, #42, ...

........................................................................
.............................. CYCLE    2 ..............................
........................................................................

 iter      E             dE          RMSdq      gap      omega  full diag
   1   -129.7963928 -0.129796E+03  0.258E-01    0.85       0.0  T
   2   -129.7964517 -0.589108E-04  0.145E-01    0.85       1.0  T
   3   -129.7963800  0.717333E-04  0.380E-02    0.85       1.0  T
   4   -129.7964412 -0.611489E-04  0.214E-02    0.85       1.0  T
   5   -129.7964557 -0.145639E-04  0.114E-02    0.85       1.0  T
   6   -129.7964664 -0.106604E-04  0.341E-03    0.85       3.4  T
   7   -129.7964671 -0.736787E-06  0.153E-03    0.85       7.6  T
   8   -129.7964671 -0.191605E-07  0.106E-03    0.85      11.0  T
   9   -129.7964672 -0.514803E-07  0.265E-04    0.85      43.9  T
  10   -129.7964672 -0.208561E-08  0.143E-04    0.85      81.4  T
     SCC iter.                  ...        0 min,  0.174 sec
     gradient                   ...        0 min,  0.059 sec
 * total energy  :  -127.5369817 Eh     change       -0.1021854E-01 Eh
   gradient norm :     0.0210906 Eh/α   predicted    -0.9390071E-02 (  -8.11%)
   displ. norm   :     0.3995663 α      lambda       -0.5415220E-02
   maximum displ.:     0.2172080 α      in ANC's #41, #42, #26, ...

........................................................................
.............................. CYCLE    3 ..............................
........................................................................

 iter      E             dE          RMSdq      gap      omega  full diag
   1   -129.8696595 -0.129870E+03  0.138E-01    0.84       0.0  T
   2   -129.8696781 -0.186231E-04  0.818E-02    0.84       1.0  T
   3   -129.8695815  0.965827E-04  0.387E-02    0.84       1.0  T
   4   -129.8696805 -0.989289E-04  0.124E-02    0.84       1.0  T
   5   -129.8696797  0.792631E-06  0.113E-02    0.84       1.0  T
   6   -129.8696912 -0.115010E-04  0.323E-03    0.84       3.6  T
   7   -129.8696916 -0.371828E-06  0.169E-03    0.84       6.9  T
   8   -129.8696916 -0.573523E-07  0.650E-04    0.84      17.9  T
   9   -129.8696916 -0.268469E-07  0.253E-04    0.84      46.0  T
     SCC iter.                  ...        0 min,  0.155 sec
     gradient                   ...        0 min,  0.052 sec
 * total energy  :  -127.5399872 Eh     change       -0.3005554E-02 Eh
   gradient norm :     0.0075309 Eh/α   predicted    -0.3139895E-02 (   4.47%)
   displ. norm   :     0.1505730 α      lambda       -0.4843029E-03
   maximum displ.:     0.0484553 α      in ANC's #15, #5, #25, ...

........................................................................
.............................. CYCLE    4 ..............................
........................................................................

 iter      E             dE          RMSdq      gap      omega  full diag
   1   -129.8768053 -0.129877E+03  0.550E-02    0.84       0.0  T
   2   -129.8768075 -0.221173E-05  0.310E-02    0.84       1.0  T
   3   -129.8768021  0.532873E-05  0.881E-03    0.84       1.3  T
   4   -129.8768061 -0.395177E-05  0.495E-03    0.84       2.3  T
   5   -129.8768073 -0.117244E-05  0.341E-03    0.84       3.4  T
   6   -129.8768082 -0.988213E-06  0.985E-04    0.84      11.8  T
   7   -129.8768083 -0.390644E-07  0.520E-04    0.84      22.3  T
     SCC iter.                  ...        0 min,  0.124 sec
     gradient                   ...        0 min,  0.049 sec
 * total energy  :  -127.5402810 Eh     change       -0.2938160E-03 Eh
   gradient norm :     0.0030163 Eh/α   predicted    -0.2479062E-03 ( -15.63%)
   displ. norm   :     0.1246479 α      lambda       -0.1500309E-03
   maximum displ.:     0.0596904 α      in ANC's #5, #6, #9, ...

........................................................................
.............................. CYCLE    5 ..............................
........................................................................

 iter      E             dE          RMSdq      gap      omega  full diag
   1   -129.8761214 -0.129876E+03  0.397E-02    0.84       0.0  T
   2   -129.8761217 -0.288488E-06  0.234E-02    0.84       1.0  T
   3   -129.8761127  0.899527E-05  0.990E-03    0.84       1.2  T
   4   -129.8761211 -0.842751E-05  0.335E-03    0.84       3.5  T
   5   -129.8761220 -0.883094E-06  0.127E-03    0.84       9.2  T
   6   -129.8761221 -0.111375E-06  0.607E-04    0.84      19.1  T
   7   -129.8761221 -0.181156E-07  0.293E-04    0.84      39.7  T
     SCC iter.                  ...        0 min,  0.122 sec
     gradient                   ...        0 min,  0.062 sec
 * total energy  :  -127.5403906 Eh     change       -0.1096000E-03 Eh
   gradient norm :     0.0021551 Eh/α   predicted    -0.7629816E-04 ( -30.38%)
   displ. norm   :     0.1792615 α      lambda       -0.1373704E-03
   maximum displ.:     0.0943764 α      in ANC's #5, #6, #9, ...

........................................................................
.............................. CYCLE    6 ..............................
........................................................................

 iter      E             dE          RMSdq      gap      omega  full diag
   1   -129.8741530 -0.129874E+03  0.516E-02    0.84       0.0  T
   2   -129.8741531 -0.103629E-06  0.306E-02    0.84       1.0  T
   3   -129.8741245  0.285625E-04  0.173E-02    0.84       1.0  T
   4   -129.8741527 -0.281914E-04  0.418E-03    0.84       2.8  T
   5   -129.8741540 -0.127702E-05  0.202E-03    0.84       5.7  T
   6   -129.8741543 -0.358043E-06  0.546E-04    0.84      21.3  T
   7   -129.8741543 -0.983846E-08  0.314E-04    0.84      37.0  T
     SCC iter.                  ...        0 min,  0.122 sec
     gradient                   ...        0 min,  0.052 sec
 * total energy  :  -127.5404889 Eh     change       -0.9824890E-04 Eh
   gradient norm :     0.0027875 Eh/α   predicted    -0.7089368E-04 ( -27.84%)
   displ. norm   :     0.1737497 α      lambda       -0.9522307E-04
   maximum displ.:     0.0948039 α      in ANC's #5, #6, #9, ...

........................................................................
.............................. CYCLE    7 ..............................
........................................................................

 iter      E             dE          RMSdq      gap      omega  full diag
   1   -129.8730363 -0.129873E+03  0.489E-02    0.84       0.0  T
   2   -129.8730360  0.332057E-06  0.291E-02    0.84       1.0  T
   3   -129.8729978  0.381383E-04  0.198E-02    0.84       1.0  T
   4   -129.8730364 -0.385449E-04  0.361E-03    0.84       3.2  T
   5   -129.8730373 -0.941062E-06  0.190E-03    0.84       6.1  T
   6   -129.8730376 -0.290310E-06  0.444E-04    0.84      26.2  T
   7   -129.8730376 -0.716693E-08  0.257E-04    0.84      45.2  T
     SCC iter.                  ...        0 min,  0.128 sec
     gradient                   ...        0 min,  0.053 sec
 * total energy  :  -127.5405582 Eh     change       -0.6929366E-04 Eh
   gradient norm :     0.0027116 Eh/α   predicted    -0.4905261E-04 ( -29.21%)
   displ. norm   :     0.1470926 α      lambda       -0.6601302E-04
   maximum displ.:     0.0846904 α      in ANC's #5, #6, #9, ...

........................................................................
.............................. CYCLE    8 ..............................
........................................................................

 iter      E             dE          RMSdq      gap      omega  full diag
   1   -129.8735143 -0.129874E+03  0.403E-02    0.84       0.0  T
   2   -129.8735140  0.292999E-06  0.241E-02    0.84       1.0  T
   3   -129.8734853  0.287221E-04  0.175E-02    0.84       1.0  T
   4   -129.8735144 -0.290508E-04  0.325E-03    0.84       3.6  T
   5   -129.8735152 -0.817700E-06  0.158E-03    0.84       7.4  T
   6   -129.8735154 -0.193723E-06  0.417E-04    0.84      27.9  T
   7   -129.8735154 -0.750356E-08  0.227E-04    0.84      51.3  T
     SCC iter.                  ...        0 min,  0.118 sec
     gradient                   ...        0 min,  0.052 sec
 * total energy  :  -127.5406040 Eh     change       -0.4586274E-04 Eh
   gradient norm :     0.0020779 Eh/α   predicted    -0.3372176E-04 ( -26.47%)
   displ. norm   :     0.0916525 α      lambda       -0.3342548E-04
   maximum displ.:     0.0574537 α      in ANC's #5, #9, #6, ...

........................................................................
.............................. CYCLE    9 ..............................
........................................................................

 iter      E             dE          RMSdq      gap      omega  full diag
   1   -129.8745602 -0.129875E+03  0.255E-02    0.84       0.0  T
   2   -129.8745601  0.119745E-06  0.153E-02    0.84       1.0  T
   3   -129.8745488  0.112466E-04  0.111E-02    0.84       1.0  T
   4   -129.8745602 -0.113339E-04  0.219E-03    0.84       5.3  T
   5   -129.8745606 -0.396790E-06  0.951E-04    0.84      12.2  T
   6   -129.8745606 -0.670306E-07  0.284E-04    0.84      41.0  T
     SCC iter.                  ...        0 min,  0.110 sec
     gradient                   ...        0 min,  0.057 sec
 * total energy  :  -127.5406277 Eh     change       -0.2365275E-04 Eh
   gradient norm :     0.0014590 Eh/α   predicted    -0.1685594E-04 ( -28.74%)
   displ. norm   :     0.1073449 α      lambda       -0.2100847E-04
   maximum displ.:     0.0697942 α      in ANC's #5, #7, #1, ...

........................................................................
.............................. CYCLE   10 ..............................
........................................................................

 iter      E             dE          RMSdq      gap      omega  full diag
   1   -129.8756724 -0.129876E+03  0.288E-02    0.84       0.0  T
   2   -129.8756724  0.676928E-08  0.171E-02    0.84       1.0  T
   3   -129.8756615  0.108627E-04  0.116E-02    0.84       1.0  T
   4   -129.8756722 -0.106969E-04  0.296E-03    0.84       3.9  T
   5   -129.8756730 -0.758924E-06  0.119E-03    0.84       9.7  T
   6   -129.8756731 -0.115523E-06  0.322E-04    0.84      36.2  T
   7   -129.8756731 -0.454023E-08  0.189E-04    0.84      61.5  T
     SCC iter.                  ...        0 min,  0.123 sec
     gradient                   ...        0 min,  0.062 sec
 * total energy  :  -127.5406466 Eh     change       -0.1891049E-04 Eh
   gradient norm :     0.0013079 Eh/α   predicted    -0.1056078E-04 ( -44.15%)
   displ. norm   :     0.0622086 α      lambda       -0.1117057E-04
   maximum displ.:     0.0380735 α      in ANC's #5, #7, #1, ...

........................................................................
.............................. CYCLE   11 ..............................
........................................................................

 iter      E             dE          RMSdq      gap      omega  full diag
   1   -129.8755626 -0.129876E+03  0.162E-02    0.84       0.0  T
   2   -129.8755627 -0.777098E-07  0.950E-03    0.84       1.2  T
   3   -129.8755616  0.102496E-05  0.362E-03    0.84       3.2  T
   4   -129.8755626 -0.100031E-05  0.111E-03    0.84      10.5  T
   5   -129.8755627 -0.351187E-07  0.933E-04    0.84      12.5  T
   6   -129.8755627 -0.840450E-07  0.170E-04    0.84      68.3  T
     SCC iter.                  ...        0 min,  0.105 sec
     gradient                   ...        0 min,  0.059 sec
 * total energy  :  -127.5406590 Eh     change       -0.1241493E-04 Eh
   gradient norm :     0.0010306 Eh/α   predicted    -0.5598672E-05 ( -54.90%)
   displ. norm   :     0.0924243 α      lambda       -0.1391964E-04
   maximum displ.:     0.0528738 α      in ANC's #5, #7, #1, ...

........................................................................
.............................. CYCLE   12 ..............................
........................................................................

 iter      E             dE          RMSdq      gap      omega  full diag
   1   -129.8748724 -0.129875E+03  0.232E-02    0.84       0.0  T
   2   -129.8748726 -0.135819E-06  0.136E-02    0.84       1.0  T
   3   -129.8748704  0.221607E-05  0.544E-03    0.84       2.1  T
   4   -129.8748726 -0.223091E-05  0.146E-03    0.84       8.0  T
   5   -129.8748726 -0.535251E-07  0.120E-03    0.84       9.7  T
   6   -129.8748728 -0.139416E-06  0.208E-04    0.84      56.0  T
   7   -129.8748728 -0.161540E-08  0.102E-04    0.84     113.5  T
     SCC iter.                  ...        0 min,  0.122 sec
     gradient                   ...        0 min,  0.056 sec
 * total energy  :  -127.5406708 Eh     change       -0.1181811E-04 Eh
   gradient norm :     0.0012029 Eh/α   predicted    -0.6988180E-05 ( -40.87%)
   displ. norm   :     0.0599944 α      lambda       -0.6970784E-05
   maximum displ.:     0.0385359 α      in ANC's #5, #1, #7, ...

........................................................................
.............................. CYCLE   13 ..............................
........................................................................

 iter      E             dE          RMSdq      gap      omega  full diag
   1   -129.8748954 -0.129875E+03  0.143E-02    0.84       0.0  T
   2   -129.8748955 -0.355205E-07  0.833E-03    0.84       1.4  T
   3   -129.8748937  0.180244E-05  0.444E-03    0.84       2.6  T
   4   -129.8748954 -0.176080E-05  0.119E-03    0.84       9.8  T
   5   -129.8748955 -0.918984E-07  0.650E-04    0.84      17.9  T
   6   -129.8748956 -0.345216E-07  0.124E-04    0.84      94.0  T
     SCC iter.                  ...        0 min,  0.108 sec
     gradient                   ...        0 min,  0.061 sec
 * total energy  :  -127.5406783 Eh     change       -0.7485626E-05 Eh
   gradient norm :     0.0007296 Eh/α   predicted    -0.3494841E-05 ( -53.31%)
   displ. norm   :     0.0548942 α      lambda       -0.5176913E-05
   maximum displ.:     0.0373324 α      in ANC's #5, #1, #4, ...

........................................................................
.............................. CYCLE   14 ..............................
........................................................................

 iter      E             dE          RMSdq      gap      omega  full diag
   1   -129.8749807 -0.129875E+03  0.124E-02    0.84       0.0  T
   2   -129.8749807 -0.265084E-07  0.726E-03    0.84       1.6  T
   3   -129.8749807  0.401266E-07  0.866E-04    0.84      13.4  T
   4   -129.8749807 -0.302605E-07  0.512E-04    0.84      22.7  T
     SCC iter.                  ...        0 min,  0.074 sec
     gradient                   ...        0 min,  0.053 sec
 * total energy  :  -127.5406844 Eh     change       -0.6079690E-05 Eh
   gradient norm :     0.0005013 Eh/α   predicted    -0.2594489E-05 ( -57.33%)
   displ. norm   :     0.0604163 α      lambda       -0.4475040E-05
   maximum displ.:     0.0399861 α      in ANC's #5, #1, #4, ...

........................................................................
.............................. CYCLE   15 ..............................
........................................................................

 iter      E             dE          RMSdq      gap      omega  full diag
   1   -129.8752518 -0.129875E+03  0.123E-02    0.84       0.0  T
   2   -129.8752518 -0.331611E-07  0.715E-03    0.84       1.6  T
   3   -129.8752516  0.176184E-06  0.149E-03    0.84       7.8  T
   4   -129.8752518 -0.137981E-06  0.765E-04    0.84      15.2  T
   5   -129.8752518 -0.387106E-07  0.412E-04    0.84      28.2  T
     SCC iter.                  ...        0 min,  0.086 sec
     gradient                   ...        0 min,  0.054 sec
 * total energy  :  -127.5406894 Eh     change       -0.5055643E-05 Eh
   gradient norm :     0.0004596 Eh/α   predicted    -0.2241928E-05 ( -55.65%)
   displ. norm   :     0.0616233 α      lambda       -0.3563902E-05
   maximum displ.:     0.0400335 α      in ANC's #1, #5, #4, ...

........................................................................
.............................. CYCLE   16 ..............................
........................................................................

 iter      E             dE          RMSdq      gap      omega  full diag
   1   -129.8752697 -0.129875E+03  0.119E-02    0.84       0.0  T
   2   -129.8752697 -0.590379E-08  0.700E-03    0.84       1.7  T
   3   -129.8752688  0.901784E-06  0.318E-03    0.84       3.7  T
   4   -129.8752697 -0.903930E-06  0.609E-04    0.84      19.1  T
   5   -129.8752697 -0.267358E-07  0.318E-04    0.84      36.6  T
     SCC iter.                  ...        0 min,  0.088 sec
     gradient                   ...        0 min,  0.058 sec
 * total energy  :  -127.5406935 Eh     change       -0.4095728E-05 Eh
   gradient norm :     0.0004880 Eh/α   predicted    -0.1786940E-05 ( -56.37%)
   displ. norm   :     0.0746727 α      lambda       -0.3667568E-05
   maximum displ.:     0.0492838 α      in ANC's #1, #5, #4, ...

   *** GEOMETRY OPTIMIZATION CONVERGED AFTER 16 ITERATIONS ***

------------------------------------------------------------------------
 total energy gain   :        -0.0139304 Eh       -8.7415 kcal/mol
 total RMSD          :         0.1744062 a0        0.0923 Å
 total power (kW/mol):        -2.2858962 (step)  -11.7906 (real)
------------------------------------------------------------------------

 ANCopt (total)                0 d,  0 h,  0 min,  3.103 sec
 optimizer setup                ...        0 min,  0.000 sec (  0.000%)
 model hessian                  ...        0 min,  0.041 sec (  1.321%)
 ANC generation                 ...        0 min,  0.008 sec (  0.258%)
 coordinate transformation      ...        0 min,  0.002 sec (  0.064%)
 single point calculation       ...        0 min,  3.029 sec ( 97.615%)
 optimization log               ...        0 min,  0.016 sec (  0.516%)
 hessian update                 ...        0 min,  0.000 sec (  0.000%)
 rational function              ...        0 min,  0.003 sec (  0.097%)

================
 final structure:
================
74
 xtb: 6.7.1pre (5071a88)
C           -6.01331342193883       -3.16155260263017        0.20277876366051
C           -1.04760770078386       -4.70860127904337       -0.50542027782499
C           -5.65241156817262       -4.43103234874927       -0.00688172563838
C           -3.09124634601297       -3.37718758312364       -0.22181946266310
C           -5.12510906683078       -2.02791091902112        0.18431132975013
C            4.38700050083039       -5.42422412342069        0.31852284627733
C            0.29501012375353       -4.82905176646932       -0.42598698972434
C            1.08793044117853        4.86088060755326       -0.31320597185461
C            2.51685701188301       -3.82665946727632       -0.00358294873816
C            4.74973598219693       -2.73670772591246        0.02258511729667
C           -3.32899301913481        2.83697195131682        0.03070051677532
C           -1.10316490222764        3.83959614414140       -0.29394689455071
C           -1.70102296376193       -3.46272438536296       -0.29646079488157
C            0.51070618878891       -2.42100001310839       -0.12888381851008
C            2.71922681873499       -1.37923221270344        0.01247321797227
C           -5.28579741765723        4.29259710078893       -0.08485734381711
C            4.91807290876059       -0.32135097486441        0.13673928236111
C           -3.15303079682526        5.17063222876716       -0.66185738298567
C           -3.72155853747405       -2.12844356498707       -0.01138976089700
C            5.15391904571490        2.09823760814619        0.21793662964884
C           -1.51437128816837       -1.03633315039861       -0.04096547803895
C            0.69401259489044        0.01655686281236       -0.00606280441348
C            2.91472702095625        1.08078185121974        0.05641415487572
C           -5.66781138554414       -0.78616820391935        0.45789777818932
C            3.11675902902530        3.50631588589466       -0.02285788262817
C           -3.52645755210903        0.33689480304598        0.23663896151042
C            5.67493145660875        4.50960726088583        0.33937290661155
C           -1.33715323796686        1.41316219824878        0.00417123888346
C            0.89749109903839        2.45336313383752       -0.07603548321552
C            3.08217181877956       -5.12354023265951        0.28333595673330
C           -4.90871466139568        0.37210569686228        0.47552897517571
C           -2.73032587895562        1.53292123774382        0.13077061519317
C           -0.51630772348823        2.57652665705368       -0.11573730055057
C            1.71488434222330        3.60762748300234       -0.14051252052304
C            1.12803363169239       -3.70197982161808       -0.16838994716450
C            3.33066220393941       -2.66295287124239        0.00228163335646
C           -4.71387318852959        3.07090959871032        0.20492215108078
C            5.50509945477788       -1.59290668182597        0.08932308783813
C           -2.53109482441299        3.95654020496954       -0.32292743199010
C           -0.26206395000451        4.97091926350585       -0.39987013162110
C           -0.89607124198979       -2.30211640121265       -0.15655945951186
C            1.30766855440485       -1.25987364053993       -0.02766023938232
C            3.51291190015003       -0.20711055199977        0.07325785342613
C           -4.51088795999390        5.33439210538063       -0.57655281010581
C            5.70167726236636        0.84372886847627        0.23993220335096
C           -2.92536378953922       -0.94181764783386        0.05002014599298
C            6.03802330336940        3.22526309953523        0.39305806375119
C           -0.71216453867412        0.13236285597149       -0.00190679932902
C            1.50832575694747        1.18465362160623        0.00582569018999
C            3.73060584673580        2.25387353208738        0.07785075023849
H           -7.04515113963514       -2.93477742512061        0.44475027455402
H            1.70693404295709        5.74563089420717       -0.39043134252663
H           -6.34857869897185        4.42610003944730        0.06746136568722
H           -2.55683517864452        5.99724685700619       -1.01112944148126
H           -6.72830588318368       -0.70818608107683        0.66447696200374
H            6.40264234175047        5.29657050313682        0.49505053703747
H            3.68248717147174        5.62359455710872        1.05619330860707
H           -0.69133571598340        5.95154719943829       -0.52192122756363
H           -4.97026243897743        6.27042457562152       -0.85679188914740
H           -3.67472713786675       -5.58776596399347        0.66034727818454
H           -1.65743059014405       -5.57196529807732       -0.74105593922422
H           -6.38376283165084       -5.22858629088979        0.03347992187796
H            4.71446884467142       -6.42077741845428        0.58480036945637
H            0.74939148754653       -5.78998450449800       -0.60954129697805
H            2.37926918553298       -5.89076378638175        0.57863705876900
H            6.58511336688115       -1.66873433912833        0.09734756038954
H            6.77271093737233        0.73027094924055        0.33588067167865
H            7.06683347794626        2.97232427565730        0.62200832454169
H            6.39019380169871       -4.26590873610897        0.96403263159648
H           -6.78717076708096        1.82720114176920        0.06687812866212
P           -5.76714738377961        1.85854274563530        1.02902866104622
P            4.05007841901151        5.06153661974954       -0.17913688839622
P            5.65960255038197       -4.29089471201552       -0.23532082278262
P           -4.00975819745876       -4.91945349391430       -0.53104841557178
 
 Bond Distances (Angstroems)
 ---------------------------
C1-C3=1.3363         C1-C5=1.4403         C1-H51=1.0838        C2-C7=1.3503         C2-C13=1.4223        C2-H61=1.0830        
C3-C1=1.3363         C3-H62=1.0829        C3-P74=1.7921        C4-C13=1.3949        C4-C19=1.4145        C4-P74=1.8215        
C5-C1=1.4403         C5-C19=1.4207        C5-C24=1.3825        C6-C30=1.3395        C6-H63=1.0822        C6-P73=1.7918        
C7-C2=1.3503         C7-C35=1.4250        C7-H64=1.0787        C8-C34=1.4119        C8-C40=1.3572        C8-H52=1.0825        
C9-C30=1.4435        C9-C35=1.4041        C9-C36=1.4200        C10-C36=1.4211       C10-C38=1.3723       C10-P73=1.8193       
C11-C32=1.4384       C11-C37=1.4153       C11-C39=1.4196       C12-C33=1.4041       C12-C39=1.4330       C12-C40=1.4137       
C13-C2=1.4223        C13-C4=1.3949        C13-C41=1.4193       C14-C35=1.4225       C14-C41=1.4121       C14-C42=1.4120       
C15-C36=1.4219       C15-C42=1.4172       C15-C43=1.4169       C16-C37=1.3797       C16-C44=1.3884       C16-H53=1.0819       
C17-C38=1.4013       C17-C43=1.4112       C17-C45=1.4079       C18-C39=1.4056       C18-C44=1.3704       C18-H54=1.0774       
C19-C4=1.4145        C19-C5=1.4207        C19-C46=1.4303       C20-C45=1.3691       C20-C47=1.4431       C20-C50=1.4386       
C21-C41=1.4135       C21-C46=1.4171       C21-C48=1.4181       C22-C42=1.4164       C22-C48=1.4109       C22-C49=1.4240       
C23-C43=1.4201       C23-C49=1.4111       C23-C50=1.4291       C24-C5=1.3825        C24-C31=1.3850       C24-H55=1.0832       
C25-C34=1.4104       C25-C50=1.3984       C25-P72=1.8205       C26-C31=1.4032       C26-C32=1.4407       C26-C46=1.4252       
C27-C47=1.3358       C27-H56=1.0831       C27-P72=1.7927       C28-C32=1.4040       C28-C33=1.4288       C28-C48=1.4252       
C29-C33=1.4197       C29-C34=1.4158       C29-C49=1.4105       C30-C6=1.3395        C30-C9=1.4435        C30-H65=1.0816       
C31-C24=1.3850       C31-C26=1.4032       C31-P71=1.8035       C32-C11=1.4384       C32-C26=1.4407       C32-C28=1.4040       
C33-C12=1.4041       C33-C28=1.4288       C33-C29=1.4197       C34-C8=1.4119        C34-C25=1.4104       C34-C29=1.4158       
C35-C7=1.4250        C35-C9=1.4041        C35-C14=1.4225       C36-C9=1.4200        C36-C10=1.4211       C36-C15=1.4219       
C37-C11=1.4153       C37-C16=1.3797       C37-P71=1.8051       C38-C10=1.3723       C38-C17=1.4013       C38-H66=1.0827       
C39-C11=1.4196       C39-C12=1.4330       C39-C18=1.4056       C40-C8=1.3572        C40-C12=1.4137       C40-H58=1.0774       
C41-C13=1.4193       C41-C14=1.4121       C41-C21=1.4135       C42-C14=1.4120       C42-C15=1.4172       C42-C22=1.4164       
C43-C15=1.4169       C43-C17=1.4112       C43-C23=1.4201       C44-C16=1.3884       C44-C18=1.3704       C44-H59=1.0797       
C45-C17=1.4079       C45-C20=1.3691       C45-H67=1.0813       C46-C19=1.4303       C46-C21=1.4171       C46-C26=1.4252       
C47-C20=1.4431       C47-C27=1.3358       C47-H68=1.0839       C48-C21=1.4181       C48-C22=1.4109       C48-C28=1.4252       
C49-C22=1.4240       C49-C23=1.4111       C49-C29=1.4105       C50-C20=1.4386       C50-C23=1.4291       C50-C25=1.3984       
H51-C1=1.0838        H52-C8=1.0825        H53-C16=1.0819       H54-C18=1.0774       H55-C24=1.0832       H56-C27=1.0831       
H57-P72=1.4061       H58-C40=1.0774       H59-C44=1.0797       H60-P74=1.4065       H61-C2=1.0830        H62-C3=1.0829        
H63-C6=1.0822        H64-C7=1.0787        H65-C30=1.0816       H66-C38=1.0827       H67-C45=1.0813       H68-C47=1.0839       
H69-P73=1.4046       H70-P71=1.4026       P71-C31=1.8035       P71-C37=1.8051       P71-H70=1.4026       P72-C25=1.8205       
P72-C27=1.7927       P72-H57=1.4061       P73-C6=1.7918        P73-C10=1.8193       P73-H69=1.4046       P74-C3=1.7921        
P74-C4=1.8215        P74-H60=1.4065       
 C  H  Rav=1.0816 sigma=0.0021  Rmin=1.0774  Rmax=1.0839    16
 C  C  Rav=1.4081 sigma=0.0252  Rmin=1.3358  Rmax=1.4435    63
 P  H  Rav=1.4049 sigma=0.0016  Rmin=1.4026  Rmax=1.4065     4
 P  C  Rav=1.8058 sigma=0.0123  Rmin=1.7918  Rmax=1.8215     8
 
 selected bond angles (degree)
 --------------------
C5-C1-C3=125.39                H51-C1-C3=119.40               H51-C1-C5=115.17               C13-C2-C7=121.75               
H61-C2-C7=120.10               H61-C2-C13=118.14              H62-C3-C1=120.76               P74-C3-C1=123.53               
P74-C3-H62=115.42              C19-C4-C13=120.41              P74-C4-C13=116.20              P74-C4-C19=123.23              
C19-C5-C1=123.73               C24-C5-C1=117.54               C24-C5-C19=118.60              H63-C6-C30=120.53              
P73-C6-C30=122.80              P73-C6-H63=116.33              C35-C7-C2=121.42               H64-C7-C2=119.23               
H64-C7-C35=119.28              C40-C8-C34=121.43              H52-C8-C34=118.70              H52-C8-C40=119.86              
C35-C9-C30=119.37              C36-C9-C30=120.73              C36-C9-C35=119.64              C38-C10-C36=120.47             
P73-C10-C36=122.80             P73-C10-C38=116.34             
 
 selected dihedral angles (degree)
 ---------------------------------
H62-C3-C1-C5=179.44           H62-C3-C1-H51=  1.83          P74-C3-C1-C5=352.92           P74-C3-C1-H51=175.31          
C19-C5-C1-C3=357.41           C19-C5-C1-H51=175.11          C24-C5-C1-C3=181.66           C24-C5-C1-H51=359.36          
C35-C7-C2-C13=358.05          C35-C7-C2-H61=177.57          H64-C7-C2-C13=181.10          H64-C7-C2-H61=  0.62          
           -------------------------------------------------
          |                Final Singlepoint                |
           -------------------------------------------------

          ...................................................
          :                      SETUP                      :
          :.................................................:
          :  # basis functions                 260          :
          :  # atomic orbitals                 256          :
          :  # shells                          132          :
          :  # electrons                       240          :
          :  max. iterations                   250          :
          :  Hamiltonian                  GFN2-xTB          :
          :  restarted?                      false          :
          :  GBSA solvation                  false          :
          :  PC potential                    false          :
          :  electronic temp.          300.0000000     K    :
          :  accuracy                    1.0000000          :
          :  -> integral cutoff          0.2500000E+02      :
          :  -> integral neglect         0.1000000E-07      :
          :  -> SCF convergence          0.1000000E-05 Eh   :
          :  -> wf. convergence          0.1000000E-03 e    :
          :  Broyden damping             0.4000000          :
          :  net charge                          0          :
          :  unpaired electrons                  0          :
          ...................................................

 iter      E             dE          RMSdq      gap      omega  full diag
   1   -129.8752697 -0.129875E+03  0.720E-05    0.84       0.0  T
   2   -129.8752697  0.661373E-10  0.624E-05    0.84     186.4  T
   3   -129.8752697 -0.215067E-09  0.316E-05    0.84     368.4  T

   *** convergence criteria satisfied after 3 iterations ***

         #    Occupation            Energy/Eh            Energy/eV
      -------------------------------------------------------------
         1        2.0000           -0.6748978             -18.3649
       ...           ...                  ...                  ...
       114        2.0000           -0.3929586             -10.6929
       115        2.0000           -0.3880858             -10.5604
       116        2.0000           -0.3846293             -10.4663
       117        2.0000           -0.3755370             -10.2189
       118        2.0000           -0.3734507             -10.1621
       119        2.0000           -0.3647763              -9.9261
       120        2.0000           -0.3400412              -9.2530 (HOMO)
       121        0.0000           -0.3091745              -8.4131 (LUMO)
       122                         -0.2830357              -7.7018
       123                         -0.2732692              -7.4360
       124                         -0.2705663              -7.3625
       125                         -0.2580835              -7.0228
       ...                                ...                  ...
       256                          1.0050570              27.3490
      -------------------------------------------------------------
                  HL-Gap            0.0308667 Eh            0.8399 eV
             Fermi-level           -0.3246078 Eh           -8.8330 eV

 SCC (total)                   0 d,  0 h,  0 min,  0.135 sec
 SCC setup                      ...        0 min,  0.001 sec (  0.741%)
 Dispersion                     ...        0 min,  0.001 sec (  0.741%)
 classical contributions        ...        0 min,  0.000 sec (  0.000%)
 integral evaluation            ...        0 min,  0.015 sec ( 11.111%)
 iterations                     ...        0 min,  0.055 sec ( 40.741%)
 molecular gradient             ...        0 min,  0.062 sec ( 45.926%)
 printout                       ...        0 min,  0.001 sec (  0.741%)

         :::::::::::::::::::::::::::::::::::::::::::::::::::::
         ::                     SUMMARY                     ::
         :::::::::::::::::::::::::::::::::::::::::::::::::::::
         :: total energy            -127.540693550396 Eh    ::
         :: gradient norm              0.000488522342 Eh/a0 ::
         :: HOMO-LUMO gap              0.839924876833 eV    ::
         ::.................................................::
         :: SCC energy              -129.877192747597 Eh    ::
         :: -> isotropic ES            0.003588284908 Eh    ::
         :: -> anisotropic ES          0.004704412914 Eh    ::
         :: -> anisotropic XC          0.052783638620 Eh    ::
         :: -> dispersion             -0.148179751112 Eh    ::
         :: repulsion energy           2.336499197201 Eh    ::
         :: add. restraining           0.000000000000 Eh    ::
         :: total charge              -0.000000000000 e     ::
         :::::::::::::::::::::::::::::::::::::::::::::::::::::

           -------------------------------------------------
          |                Property Printout                |
           -------------------------------------------------

    * Orbital Energies and Occupations

         #    Occupation            Energy/Eh            Energy/eV
      -------------------------------------------------------------
         1        2.0000           -0.6748978             -18.3649
       ...           ...                  ...                  ...
       108        2.0000           -0.4086793             -11.1207
       109        2.0000           -0.4070289             -11.0758
       110        2.0000           -0.4058913             -11.0449
       111        2.0000           -0.4016452             -10.9293
       112        2.0000           -0.3984045             -10.8411
       113        2.0000           -0.3964167             -10.7870
       114        2.0000           -0.3929586             -10.6929
       115        2.0000           -0.3880858             -10.5604
       116        2.0000           -0.3846293             -10.4663
       117        2.0000           -0.3755370             -10.2189
       118        2.0000           -0.3734507             -10.1621
       119        2.0000           -0.3647763              -9.9261
       120        2.0000           -0.3400412              -9.2530 (HOMO)
       121        0.0000           -0.3091745              -8.4131 (LUMO)
       122                         -0.2830357              -7.7018
       123                         -0.2732692              -7.4360
       124                         -0.2705663              -7.3625
       125                         -0.2580835              -7.0228
       126                         -0.2507945              -6.8245
       127                         -0.2424423              -6.5972
       128                         -0.2372148              -6.4549
       129                         -0.2342568              -6.3745
       130                         -0.2295266              -6.2457
       131                         -0.2237832              -6.0895
       ...                                ...                  ...
       256                          1.0050570              27.3490
      -------------------------------------------------------------
                  HL-Gap            0.0308667 Eh            0.8399 eV
             Fermi-level           -0.3246078 Eh           -8.8330 eV

     #   Z          covCN         q      C6AA      α(0)
     1   6 C        2.995    -0.027    28.666     8.783
     2   6 C        2.930    -0.035    28.868     8.811
     3   6 C        2.840    -0.031    28.760     8.789
     4   6 C        2.917    -0.004    28.127     8.697
     5   6 C        2.972     0.010    27.778     8.645
     6   6 C        2.838    -0.039    28.963     8.819
     7   6 C        2.914    -0.035    28.865     8.810
     8   6 C        2.932    -0.035    28.870     8.812
     9   6 C        2.972     0.004    27.932     8.669
    10   6 C        2.913    -0.001    28.054     8.685
    11   6 C        3.041     0.006    27.859     8.657
    12   6 C        2.983     0.005    27.909     8.666
    13   6 C        3.090     0.003    27.842     8.649
    14   6 C        2.992     0.001    27.997     8.680
    15   6 C        2.988    -0.000    28.022     8.683
    16   6 C        3.046    -0.035    28.815     8.804
    17   6 C        2.981     0.010    27.790     8.647
    18   6 C        2.924    -0.037    28.921     8.819
    19   6 C        3.023     0.007    27.849     8.656
    20   6 C        2.968     0.012    27.750     8.641
    21   6 C        2.988     0.000    28.019     8.683
    22   6 C        2.987    -0.001    28.050     8.688
    23   6 C        2.988    -0.001    28.045     8.687
    24   6 C        3.065    -0.041    28.961     8.825
    25   6 C        2.917    -0.003    28.092     8.691
    26   6 C        3.034     0.004    27.911     8.666
    27   6 C        2.839    -0.031    28.764     8.789
    28   6 C        2.985    -0.000    28.022     8.683
    29   6 C        2.993     0.001    27.996     8.679
    30   6 C        2.995    -0.030    28.740     8.794
    31   6 C        2.917     0.002    27.983     8.675
    32   6 C        2.973     0.001    28.004     8.680
    33   6 C        2.989     0.002    27.976     8.676
    34   6 C        3.084     0.004    27.847     8.651
    35   6 C        2.984     0.004    27.929     8.669
    36   6 C        3.025     0.005    27.889     8.663
    37   6 C        2.920     0.005    27.905     8.663
    38   6 C        3.044    -0.043    29.014     8.834
    39   6 C        2.984     0.006    27.876     8.661
    40   6 C        2.917    -0.035    28.866     8.810
    41   6 C        2.992     0.001    28.002     8.680
    42   6 C        2.989    -0.000    28.021     8.683
    43   6 C        2.993     0.001    28.006     8.681
    44   6 C        2.914    -0.030    28.750     8.793
    45   6 C        2.931    -0.044    29.101     8.847
    46   6 C        2.988    -0.001    28.048     8.687
    47   6 C        2.994    -0.028    28.686     8.786
    48   6 C        2.986    -0.001    28.048     8.687
    49   6 C        2.989    -0.000    28.023     8.684
    50   6 C        3.027     0.007    27.843     8.655
    51   1 H        0.925     0.034     2.532     2.488
    52   1 H        0.926     0.054     2.270     2.356
    53   1 H        0.925     0.035     2.510     2.477
    54   1 H        0.926     0.037     2.487     2.466
    55   1 H        0.925     0.035     2.510     2.478
    56   1 H        0.926     0.043     2.413     2.429
    57   1 H        0.976     0.049     2.325     2.383
    58   1 H        0.926     0.037     2.494     2.469
    59   1 H        0.926     0.033     2.540     2.492
    60   1 H        0.976     0.050     2.317     2.379
    61   1 H        0.926     0.053     2.280     2.361
    62   1 H        0.926     0.043     2.403     2.424
    63   1 H        0.926     0.041     2.429     2.437
    64   1 H        0.926     0.036     2.503     2.474
    65   1 H        0.925     0.038     2.480     2.463
    66   1 H        0.925     0.036     2.503     2.474
    67   1 H        0.925     0.032     2.556     2.500
    68   1 H        0.925     0.033     2.541     2.493
    69   1 H        0.976     0.049     2.326     2.383
    70   1 H        0.976     0.050     2.318     2.379
    71  15 P        3.222    -0.083   163.986    23.004
    72  15 P        3.092    -0.102   164.853    23.065
    73  15 P        3.101    -0.064   163.115    22.943
    74  15 P        3.095    -0.100   164.748    23.057

 Mol. C6AA /au·bohr⁶  :     120956.967378
 Mol. C8AA /au·bohr⁸  :    3672458.133383
 Mol. α(0) /au        :        576.648483


Wiberg/Mayer (AO) data.
largest (>0.10) Wiberg bond orders for each atom

 ---------------------------------------------------------------------------
     #   Z sym  total        # sym  WBO       # sym  WBO       # sym  WBO
 ---------------------------------------------------------------------------
     1   6 C    3.988 --     3 C    1.756     5 C    1.137    51 H    0.959
     2   6 C    3.955 --     7 C    1.643    13 C    1.202    61 H    0.934
     3   6 C    3.946 --     1 C    1.756    74 P    1.090    62 H    0.951
     4   6 C    3.891 --    13 C    1.356    19 C    1.274    74 P    1.047
     5   6 C    3.927 --    24 C    1.397    19 C    1.236     1 C    1.137
     6   6 C    3.926 --    30 C    1.749    73 P    1.090    63 H    0.953
     7   6 C    3.974 --     2 C    1.643    35 C    1.207    64 H    0.962
     8   6 C    3.958 --    40 C    1.585    34 C    1.248    52 H    0.935
     9   6 C    3.908 --    35 C    1.322    36 C    1.248    30 C    1.144
    10   6 C    3.938 --    38 C    1.495    36 C    1.238    73 P    1.033
    11   6 C    3.976 --    37 C    1.272    39 C    1.272    32 C    1.197
    12   6 C    3.961 --    33 C    1.314    40 C    1.259    39 C    1.176
    13   6 C    3.982 --     4 C    1.356    41 C    1.218     2 C    1.202
    14   6 C    3.970 --    41 C    1.268    42 C    1.254    35 C    1.224
    15   6 C    3.975 --    43 C    1.251    36 C    1.250    42 C    1.243
    16   6 C    3.980 --    37 C    1.458    44 C    1.369    53 H    0.961
    17   6 C    3.951 --    38 C    1.287    43 C    1.254    45 C    1.252
    18   6 C    3.986 --    44 C    1.503    39 C    1.322    54 H    0.960
                            37 C    0.102
    19   6 C    3.983 --     4 C    1.274    46 C    1.237     5 C    1.236
    20   6 C    3.958 --    45 C    1.509    50 C    1.167    47 C    1.129
    21   6 C    3.979 --    41 C    1.256    46 C    1.255    48 C    1.238
    22   6 C    3.958 --    48 C    1.286    42 C    1.247    49 C    1.208
    23   6 C    3.967 --    49 C    1.280    43 C    1.235    50 C    1.225
    24   6 C    3.983 --     5 C    1.397    31 C    1.390    55 H    0.957
    25   6 C    3.907 --    50 C    1.355    34 C    1.282    72 P    1.045
    26   6 C    3.974 --    31 C    1.308    46 C    1.245    32 C    1.180
    27   6 C    3.955 --    47 C    1.765    72 P    1.091    56 H    0.951
    28   6 C    3.978 --    32 C    1.340    48 C    1.214    33 C    1.197
    29   6 C    3.976 --    49 C    1.260    34 C    1.245    33 C    1.241
    30   6 C    3.987 --     6 C    1.749     9 C    1.144    65 H    0.954
    31   6 C    3.917 --    24 C    1.390    26 C    1.308    71 P    1.043
    32   6 C    3.948 --    28 C    1.340    11 C    1.197    26 C    1.180
    33   6 C    3.984 --    12 C    1.314    29 C    1.241    28 C    1.197
    34   6 C    3.977 --    25 C    1.282     8 C    1.248    29 C    1.245
    35   6 C    3.968 --     9 C    1.322    14 C    1.224     7 C    1.207
    36   6 C    3.966 --    15 C    1.250     9 C    1.248    10 C    1.238
    37   6 C    3.969 --    16 C    1.458    11 C    1.272    71 P    1.041
                            18 C    0.102
    38   6 C    3.954 --    10 C    1.495    17 C    1.287    66 H    0.959
    39   6 C    3.970 --    18 C    1.322    11 C    1.272    12 C    1.176
    40   6 C    3.977 --     8 C    1.585    12 C    1.259    58 H    0.960
    41   6 C    3.966 --    14 C    1.268    21 C    1.256    13 C    1.218
    42   6 C    3.973 --    14 C    1.254    22 C    1.247    15 C    1.243
    43   6 C    3.979 --    17 C    1.254    15 C    1.251    23 C    1.235
    44   6 C    3.974 --    18 C    1.503    16 C    1.369    59 H    0.969
    45   6 C    3.975 --    20 C    1.509    17 C    1.252    67 H    0.965
    46   6 C    3.973 --    21 C    1.255    26 C    1.245    19 C    1.237
    47   6 C    3.988 --    27 C    1.765    20 C    1.129    68 H    0.959
    48   6 C    3.960 --    22 C    1.286    21 C    1.238    28 C    1.214
    49   6 C    3.982 --    23 C    1.280    29 C    1.260    22 C    1.208
    50   6 C    3.976 --    25 C    1.355    23 C    1.225    20 C    1.167
    51   1 H    0.998 --     1 C    0.959
    52   1 H    0.996 --     8 C    0.935
    53   1 H    0.998 --    16 C    0.961
    54   1 H    0.998 --    18 C    0.960
    55   1 H    0.998 --    24 C    0.957
    56   1 H    0.997 --    27 C    0.951
    57   1 H    0.984 --    72 P    0.917
    58   1 H    0.998 --    40 C    0.960
    59   1 H    0.998 --    44 C    0.969
    60   1 H    0.979 --    74 P    0.915
    61   1 H    0.996 --     2 C    0.934
    62   1 H    0.997 --     3 C    0.951
    63   1 H    0.997 --     6 C    0.953
    64   1 H    0.997 --     7 C    0.962
    65   1 H    0.998 --    30 C    0.954
    66   1 H    0.997 --    38 C    0.959
    67   1 H    0.998 --    45 C    0.965
    68   1 H    0.998 --    47 C    0.959
    69   1 H    0.980 --    73 P    0.925
    70   1 H    0.987 --    71 P    0.936
    71  15 P    3.304 --    31 C    1.043    37 C    1.041    70 H    0.936
    72  15 P    3.368 --    27 C    1.091    25 C    1.045    57 H    0.917
    73  15 P    3.297 --     6 C    1.090    10 C    1.033    69 H    0.925
    74  15 P    3.359 --     3 C    1.090     4 C    1.047    60 H    0.915
 ---------------------------------------------------------------------------

Topologies differ in total number of bonds
Writing topology from bond orders to xtbtopo.mol

molecular dipole:
                 x           y           z       tot (Debye)
 q only:       -0.002      -0.008       0.260
   full:       -0.090      -0.016       0.632       1.624
molecular quadrupole (traceless):
                xx          xy          yy          xz          yz          zz
 q only:        4.095      -1.977       8.336       5.287      -3.685     -12.432
  q+dip:       19.301      -1.320      13.248      12.651      -8.992     -32.548
   full:       10.297      -0.431       5.633      13.490      -8.564     -15.931

           -------------------------------------------------
          |                Geometry Summary                 |
           -------------------------------------------------

      molecular mass/u    :      744.5906580
   center of mass at/Å    :        0.0002281      -0.0034581      -0.0054053
  moments of inertia/u·Å² :        0.8562569E+04   0.1116658E+05   0.1955105E+05
rotational constants/cm⁻¹ :        0.1968759E-02   0.1509650E-02   0.8622366E-03

 * 83 selected distances

     #   Z          #   Z                                           value/Å
     1   6 C        3   6 C                                       1.3363334
     2   6 C        7   6 C                                       1.3503484
     2   6 C       13   6 C                                       1.4222606
     4   6 C       13   6 C                                       1.3948510
     4   6 C       19   6 C                                       1.4145445
     5   6 C       19   6 C                                       1.4206900
     5   6 C       24   6 C                                       1.3824980
     6   6 C       30   6 C                                       1.3394876
    24   6 C       31   6 C                                       1.3849684
    26   6 C       31   6 C                                       1.4031904
    11   6 C       32   6 C                                       1.4383897
    28   6 C       32   6 C                                       1.4040299
    12   6 C       33   6 C                                       1.4041029
    28   6 C       33   6 C                                       1.4288396
    29   6 C       33   6 C                                       1.4197088
     8   6 C       34   6 C                                       1.4119270
    25   6 C       34   6 C                                       1.4104466
    29   6 C       34   6 C                                       1.4158445
     7   6 C       35   6 C                                       1.4249828
     9   6 C       35   6 C                                       1.4041144
    14   6 C       35   6 C                                       1.4225201
     9   6 C       36   6 C                                       1.4200446
    10   6 C       36   6 C                                       1.4211343
    15   6 C       36   6 C                                       1.4219340
    11   6 C       37   6 C                                       1.4152644
    16   6 C       37   6 C                                       1.3797066
    10   6 C       38   6 C                                       1.3723371
    17   6 C       38   6 C                                       1.4013218
    11   6 C       39   6 C                                       1.4195519
    12   6 C       39   6 C                                       1.4330038
    18   6 C       39   6 C                                       1.4055951
     8   6 C       40   6 C                                       1.3572415
    12   6 C       40   6 C                                       1.4137054
    13   6 C       41   6 C                                       1.4193417
    14   6 C       41   6 C                                       1.4120632
    21   6 C       41   6 C                                       1.4134584
    14   6 C       42   6 C                                       1.4119526
    15   6 C       42   6 C                                       1.4171642
    22   6 C       42   6 C                                       1.4164446
    15   6 C       43   6 C                                       1.4168629
    17   6 C       43   6 C                                       1.4112259
    23   6 C       43   6 C                                       1.4201324
    16   6 C       44   6 C                                       1.3883754
    18   6 C       44   6 C                                       1.3703542
    17   6 C       45   6 C                                       1.4078693
    20   6 C       45   6 C                                       1.3690564
    19   6 C       46   6 C                                       1.4303072
    21   6 C       46   6 C                                       1.4170786
    26   6 C       46   6 C                                       1.4252179
    27   6 C       47   6 C                                       1.3357612
    21   6 C       48   6 C                                       1.4180663
    22   6 C       48   6 C                                       1.4109439
    28   6 C       48   6 C                                       1.4251650
    22   6 C       49   6 C                                       1.4239725
    23   6 C       49   6 C                                       1.4111391
    29   6 C       49   6 C                                       1.4104767
    23   6 C       50   6 C                                       1.4290774
    25   6 C       50   6 C                                       1.3984142
     1   6 C       51   1 H                                       1.0838203
     8   6 C       52   1 H                                       1.0825491
    16   6 C       53   1 H                                       1.0819096
    18   6 C       54   1 H                                       1.0773728 (min)
    24   6 C       55   1 H                                       1.0832382
    27   6 C       56   1 H                                       1.0831020
    40   6 C       58   1 H                                       1.0774053
    44   6 C       59   1 H                                       1.0796832
     2   6 C       61   1 H                                       1.0829616
     3   6 C       62   1 H                                       1.0828648
     6   6 C       63   1 H                                       1.0822467
     7   6 C       64   1 H                                       1.0786781
    30   6 C       65   1 H                                       1.0816224
    38   6 C       66   1 H                                       1.0827024
    45   6 C       67   1 H                                       1.0812919
    47   6 C       68   1 H                                       1.0839035
    31   6 C       71  15 P                                       1.8035422
    37   6 C       71  15 P                                       1.8050961 (max)
    70   1 H       71  15 P                                       1.4025562
    27   6 C       72  15 P                                       1.7926590
    57   1 H       72  15 P                                       1.4060845
     6   6 C       73  15 P                                       1.7918412
    69   1 H       73  15 P                                       1.4045771
     3   6 C       74  15 P                                       1.7920984
    60   1 H       74  15 P                                       1.4065246

 * 4 distinct bonds (by element types)

   Z      Z             #   av. dist./Å        max./Å        min./Å
   1 H    6 C          16     1.0815845     1.0839035     1.0773728
   6 C    6 C          58     1.4052559     1.4383897     1.3357612
   1 H   15 P           4     1.4049356     1.4065246     1.4025562
   6 C   15 P           5     1.7970474     1.8050961     1.7918412


optimized geometry written to: xtbopt.xyz


           -------------------------------------------------
          | TOTAL ENERGY             -127.540693550396 Eh   |
          | GRADIENT NORM               0.000488522342 Eh/α |
          | HOMO-LUMO GAP               0.839924876833 eV   |
           -------------------------------------------------

------------------------------------------------------------------------
 * finished run on 2025/12/08 at 00:34:39.486     
------------------------------------------------------------------------
 total:
 * wall-time:     0 d,  0 h,  0 min,  3.614 sec
 *  cpu-time:     0 d,  0 h,  0 min, 14.078 sec
 * ratio c/w:     3.895 speedup
 SCF:
 * wall-time:     0 d,  0 h,  0 min,  0.304 sec
 *  cpu-time:     0 d,  0 h,  0 min,  1.156 sec
 * ratio c/w:     3.803 speedup
 ANC optimizer:
 * wall-time:     0 d,  0 h,  0 min,  3.245 sec
 *  cpu-time:     0 d,  0 h,  0 min, 12.688 sec
 * ratio c/w:     3.910 speedup

normal termination of xtb
