      -----------------------------------------------------------      
     |                   =====================                   |     
     |                           x T B                           |     
     |                   =====================                   |     
     |                         S. Grimme                         |     
     |          Mulliken Center for Theoretical Chemistry        |     
     |                    University of Bonn                     |     
      -----------------------------------------------------------      

   * xtb version 6.7.1pre (5071a88) compiled by 'Marcel@Raven' on 2024-07-23

   xtb is free software: you can redistribute it and/or modify it under
   the terms of the GNU Lesser General Public License as published by
   the Free Software Foundation, either version 3 of the License, or
   (at your option) any later version.
   
   xtb is distributed in the hope that it will be useful,
   but WITHOUT ANY WARRANTY; without even the implied warranty of
   MERCHANTABILITY or FITNESS FOR A PARTICULAR PURPOSE.  See the
   GNU Lesser General Public License for more details.
   
   Cite this work as:
   * C. Bannwarth, E. Caldeweyher, S. Ehlert, A. Hansen, P. Pracht,
     J. Seibert, S. Spicher, S. Grimme, WIREs Comput. Mol. Sci., 2020, 11,
     e01493. DOI: 10.1002/wcms.1493
   
   for GFN2-xTB:
   * C. Bannwarth, S. Ehlert and S. Grimme., J. Chem. Theory Comput., 2019,
     15, 1652-1671. DOI: 10.1021/acs.jctc.8b01176
   for GFN1-xTB:
   * S. Grimme, C. Bannwarth, P. Shushkov, J. Chem. Theory Comput., 2017,
     13, 1989-2009. DOI: 10.1021/acs.jctc.7b00118
   for GFN0-xTB:
   * P. Pracht, E. Caldeweyher, S. Ehlert, S. Grimme, ChemRxiv, 2019, preprint.
     DOI: 10.26434/chemrxiv.8326202.v1
   for GFN-FF:
   * S. Spicher and S. Grimme, Angew. Chem. Int. Ed., 2020, 59, 15665-15673.
     DOI: 10.1002/anie.202004239
   
   for ALPB and GBSA implicit solvation:
   * S. Ehlert, M. Stahn, S. Spicher, S. Grimme, J. Chem. Theory Comput.,
     2021, 17, 4250-4261. DOI: 10.1021/acs.jctc.1c00471
   
   for ddCOSMO and CPCM-X implicit solvation:
   * M. Stahn, S. Ehlert, S. Grimme, J. Phys. Chem. A,
     2023, XX, XXXX-XXXX. DOI: 10.1021/acs.jpca.3c04382
   
   for DFT-D4:
   * E. Caldeweyher, C. Bannwarth and S. Grimme, J. Chem. Phys., 2017,
     147, 034112. DOI: 10.1063/1.4993215
   * E. Caldeweyher, S. Ehlert, A. Hansen, H. Neugebauer, S. Spicher,
     C. Bannwarth and S. Grimme, J. Chem. Phys., 2019, 150, 154122.
     DOI: 10.1063/1.5090222
   * E. Caldeweyher, J.-M. Mewes, S. Ehlert and S. Grimme, Phys. Chem. Chem. Phys.
     2020, 22, 8499-8512. DOI: 10.1039/D0CP00502A
   
   for sTDA-xTB:
   * S. Grimme and C. Bannwarth, J. Chem. Phys., 2016, 145, 054103.
     DOI: 10.1063/1.4959605
   
   in the mass-spec context:
   * V. Asgeirsson, C. Bauer and S. Grimme, Chem. Sci., 2017, 8, 4879.
     DOI: 10.1039/c7sc00601b
   * J. Koopman and S. Grimme, ACS Omega 2019, 4, 12, 15120-15133.
     DOI: 10.1021/acsomega.9b02011
   
   for metadynamics refer to:
   * S. Grimme, J. Chem. Theory Comput., 2019, 155, 2847-2862
     DOI: 10.1021/acs.jctc.9b00143
   
   for SPH calculations refer to:
   * S. Spicher and S. Grimme, J. Chem. Theory Comput., 2021, 17, 1701-1714
     DOI: 10.1021/acs.jctc.0c01306
   
   for ONIOM refer to:
   * C. Plett, A. Katbashev, S. Ehlert, S. Grimme, M. Bursch,
     Phys. Chem. Chem. Phys., 2023, 25, 17860-17868. DOI: 10.1039/D3CP02178E
   
   for DIPRO refer to:
   * J. Kohn, N. Gildemeister, S. Grimme, D. Fazzi, A. Hansen,
     J. Chem. Phys., 2023, just accepted.
   
   for PTB refer to:
   * S. Grimme, M. Mueller, A. Hansen, J. Chem. Phys., 2023, 158, 124111.
     DOI: 10.1063/5.0137838
   
   with help from (in alphabetical order)
   P. Atkinson, C. Bannwarth, F. Bohle, G. Brandenburg, E. Caldeweyher
   M. Checinski, S. Dohm, S. Ehlert, S. Ehrlich, I. Gerasimov, C. Hölzer
   A. Katbashev, J. Kohn, J. Koopman, C. Lavigne, S. Lehtola, F. März, M. Müller,
   F. Musil, H. Neugebauer, J. Pisarek, C. Plett, P. Pracht, F. Pultar,
   J. Seibert, P. Shushkov, S. Spicher, M. Stahn, M. Steiner, T. Strunk,
   J. Stückrath, T. Rose, and J. Unsleber
   
 * started run on 2025/12/08 at 00:34:39.513     
   ID    Z sym.   atoms
    1    6 C      1-50
    2    1 H      51-70
    3   15 P      71-74

           -------------------------------------------------
          |                Calculation Setup                |
           -------------------------------------------------

          program call               : xtb "C:\Users\LENOVO GAMING\Documents\GitHub\molecular-conductivity-sim\results\1nm-4Pdoped-5percent\xtbopt.xyz" --sp
          coordinate file            : C:\Users\LENOVO GAMING\Documents\GitHub\molecular-conductivity-sim\results\1nm-4Pdoped-5percent\xtbopt.xyz
          omp threads                :                    16


           -------------------------------------------------
          |                 G F N 2 - x T B                 |
           -------------------------------------------------

        Reference                      10.1021/acs.jctc.8b01176
      * Hamiltonian:
        H0-scaling (s, p, d)           1.850000    2.230000    2.230000
        zeta-weighting                 0.500000
      * Dispersion:
        s8                             2.700000
        a1                             0.520000
        a2                             5.000000
        s9                             5.000000
      * Repulsion:
        kExp                           1.500000    1.000000
        rExp                           1.000000
      * Coulomb:
        alpha                          2.000000
        third order                    shell-resolved
        anisotropic                    true
        a3                             3.000000
        a5                             4.000000
        cn-shift                       1.200000
        cn-exp                         4.000000
        max-rad                        5.000000

q/qsh data taken from xtbrestart
CAMM data taken from xtbrestart

          ...................................................
          :                      SETUP                      :
          :.................................................:
          :  # basis functions                 260          :
          :  # atomic orbitals                 256          :
          :  # shells                          132          :
          :  # electrons                       240          :
          :  max. iterations                   250          :
          :  Hamiltonian                  GFN2-xTB          :
          :  restarted?                       true          :
          :  GBSA solvation                  false          :
          :  PC potential                    false          :
          :  electronic temp.          300.0000000     K    :
          :  accuracy                    1.0000000          :
          :  -> integral cutoff          0.2500000E+02      :
          :  -> integral neglect         0.1000000E-07      :
          :  -> SCF convergence          0.1000000E-05 Eh   :
          :  -> wf. convergence          0.1000000E-03 e    :
          :  Broyden damping             0.4000000          :
          :  net charge                          0          :
          :  unpaired electrons                  0          :
          ...................................................

 iter      E             dE          RMSdq      gap      omega  full diag
   1   -129.8752697 -0.129875E+03  0.310E-05    0.84       0.0  T
   2   -129.8752697  0.203499E-09  0.529E-05    0.84     219.7  T
   3   -129.8752697 -0.284302E-09  0.644E-06    0.84    1805.3  T

   *** convergence criteria satisfied after 3 iterations ***

         #    Occupation            Energy/Eh            Energy/eV
      -------------------------------------------------------------
         1        2.0000           -0.6748982             -18.3649
       ...           ...                  ...                  ...
       114        2.0000           -0.3929585             -10.6929
       115        2.0000           -0.3880858             -10.5604
       116        2.0000           -0.3846293             -10.4663
       117        2.0000           -0.3755370             -10.2189
       118        2.0000           -0.3734508             -10.1621
       119        2.0000           -0.3647761              -9.9261
       120        2.0000           -0.3400412              -9.2530 (HOMO)
       121        0.0000           -0.3091745              -8.4131 (LUMO)
       122                         -0.2830356              -7.7018
       123                         -0.2732691              -7.4360
       124                         -0.2705664              -7.3625
       125                         -0.2580835              -7.0228
       ...                                ...                  ...
       256                          1.0050569              27.3490
      -------------------------------------------------------------
                  HL-Gap            0.0308667 Eh            0.8399 eV
             Fermi-level           -0.3246078 Eh           -8.8330 eV

 SCC (total)                   0 d,  0 h,  0 min,  0.116 sec
 SCC setup                      ...        0 min,  0.000 sec (  0.000%)
 Dispersion                     ...        0 min,  0.002 sec (  1.724%)
 classical contributions        ...        0 min,  0.001 sec (  0.862%)
 integral evaluation            ...        0 min,  0.015 sec ( 12.931%)
 iterations                     ...        0 min,  0.068 sec ( 58.621%)
 molecular gradient             ...        0 min,  0.029 sec ( 25.000%)
 printout                       ...        0 min,  0.001 sec (  0.862%)

         :::::::::::::::::::::::::::::::::::::::::::::::::::::
         ::                     SUMMARY                     ::
         :::::::::::::::::::::::::::::::::::::::::::::::::::::
         :: total energy            -127.540693550434 Eh    ::
         :: gradient norm              0.000488438823 Eh/a0 ::
         :: HOMO-LUMO gap              0.839924555681 eV    ::
         ::.................................................::
         :: SCC energy              -129.877192747635 Eh    ::
         :: -> isotropic ES            0.003588290338 Eh    ::
         :: -> anisotropic ES          0.004704383764 Eh    ::
         :: -> anisotropic XC          0.052783645178 Eh    ::
         :: -> dispersion             -0.148179753607 Eh    ::
         :: repulsion energy           2.336499197201 Eh    ::
         :: add. restraining           0.000000000000 Eh    ::
         :: total charge               0.000000000000 e     ::
         :::::::::::::::::::::::::::::::::::::::::::::::::::::

           -------------------------------------------------
          |                Property Printout                |
           -------------------------------------------------

    * Orbital Energies and Occupations

         #    Occupation            Energy/Eh            Energy/eV
      -------------------------------------------------------------
         1        2.0000           -0.6748982             -18.3649
       ...           ...                  ...                  ...
       108        2.0000           -0.4086792             -11.1207
       109        2.0000           -0.4070289             -11.0758
       110        2.0000           -0.4058913             -11.0449
       111        2.0000           -0.4016452             -10.9293
       112        2.0000           -0.3984045             -10.8411
       113        2.0000           -0.3964168             -10.7870
       114        2.0000           -0.3929585             -10.6929
       115        2.0000           -0.3880858             -10.5604
       116        2.0000           -0.3846293             -10.4663
       117        2.0000           -0.3755370             -10.2189
       118        2.0000           -0.3734508             -10.1621
       119        2.0000           -0.3647761              -9.9261
       120        2.0000           -0.3400412              -9.2530 (HOMO)
       121        0.0000           -0.3091745              -8.4131 (LUMO)
       122                         -0.2830356              -7.7018
       123                         -0.2732691              -7.4360
       124                         -0.2705664              -7.3625
       125                         -0.2580835              -7.0228
       126                         -0.2507944              -6.8245
       127                         -0.2424424              -6.5972
       128                         -0.2372149              -6.4549
       129                         -0.2342567              -6.3744
       130                         -0.2295265              -6.2457
       131                         -0.2237833              -6.0895
       ...                                ...                  ...
       256                          1.0050569              27.3490
      -------------------------------------------------------------
                  HL-Gap            0.0308667 Eh            0.8399 eV
             Fermi-level           -0.3246078 Eh           -8.8330 eV

     #   Z          covCN         q      C6AA      α(0)
     1   6 C        2.995    -0.027    28.666     8.783
     2   6 C        2.930    -0.035    28.868     8.811
     3   6 C        2.840    -0.031    28.760     8.789
     4   6 C        2.917    -0.004    28.127     8.697
     5   6 C        2.972     0.010    27.778     8.645
     6   6 C        2.838    -0.039    28.963     8.819
     7   6 C        2.914    -0.035    28.865     8.810
     8   6 C        2.932    -0.035    28.870     8.812
     9   6 C        2.972     0.004    27.932     8.669
    10   6 C        2.913    -0.001    28.054     8.685
    11   6 C        3.041     0.006    27.859     8.657
    12   6 C        2.983     0.005    27.909     8.666
    13   6 C        3.090     0.003    27.842     8.649
    14   6 C        2.992     0.001    27.997     8.680
    15   6 C        2.988    -0.000    28.022     8.683
    16   6 C        3.046    -0.035    28.815     8.804
    17   6 C        2.981     0.010    27.790     8.647
    18   6 C        2.924    -0.037    28.921     8.819
    19   6 C        3.023     0.007    27.849     8.656
    20   6 C        2.968     0.012    27.750     8.641
    21   6 C        2.988     0.000    28.019     8.683
    22   6 C        2.987    -0.001    28.050     8.688
    23   6 C        2.988    -0.001    28.045     8.687
    24   6 C        3.065    -0.041    28.961     8.825
    25   6 C        2.917    -0.003    28.092     8.691
    26   6 C        3.034     0.004    27.911     8.666
    27   6 C        2.839    -0.031    28.764     8.789
    28   6 C        2.985    -0.000    28.022     8.683
    29   6 C        2.993     0.001    27.996     8.679
    30   6 C        2.995    -0.030    28.740     8.794
    31   6 C        2.917     0.002    27.983     8.675
    32   6 C        2.973     0.001    28.004     8.680
    33   6 C        2.989     0.002    27.977     8.676
    34   6 C        3.084     0.004    27.847     8.651
    35   6 C        2.984     0.004    27.929     8.669
    36   6 C        3.025     0.005    27.889     8.663
    37   6 C        2.920     0.005    27.905     8.663
    38   6 C        3.044    -0.043    29.014     8.834
    39   6 C        2.984     0.006    27.876     8.661
    40   6 C        2.917    -0.035    28.866     8.810
    41   6 C        2.992     0.001    28.002     8.680
    42   6 C        2.989    -0.000    28.021     8.683
    43   6 C        2.993     0.001    28.006     8.681
    44   6 C        2.914    -0.030    28.750     8.793
    45   6 C        2.931    -0.044    29.101     8.847
    46   6 C        2.988    -0.001    28.048     8.687
    47   6 C        2.994    -0.028    28.686     8.786
    48   6 C        2.986    -0.001    28.048     8.687
    49   6 C        2.989    -0.000    28.023     8.684
    50   6 C        3.027     0.007    27.843     8.655
    51   1 H        0.925     0.034     2.532     2.488
    52   1 H        0.926     0.054     2.270     2.356
    53   1 H        0.925     0.035     2.510     2.477
    54   1 H        0.926     0.037     2.487     2.466
    55   1 H        0.925     0.035     2.510     2.478
    56   1 H        0.926     0.043     2.413     2.429
    57   1 H        0.976     0.049     2.325     2.383
    58   1 H        0.926     0.037     2.494     2.469
    59   1 H        0.926     0.033     2.540     2.492
    60   1 H        0.976     0.050     2.317     2.379
    61   1 H        0.926     0.053     2.280     2.361
    62   1 H        0.926     0.043     2.403     2.424
    63   1 H        0.926     0.041     2.429     2.437
    64   1 H        0.926     0.036     2.503     2.474
    65   1 H        0.925     0.038     2.480     2.463
    66   1 H        0.925     0.036     2.503     2.474
    67   1 H        0.925     0.032     2.556     2.500
    68   1 H        0.925     0.033     2.541     2.493
    69   1 H        0.976     0.049     2.326     2.383
    70   1 H        0.976     0.050     2.318     2.379
    71  15 P        3.222    -0.083   163.986    23.004
    72  15 P        3.092    -0.102   164.853    23.065
    73  15 P        3.101    -0.064   163.115    22.943
    74  15 P        3.095    -0.100   164.748    23.057

 Mol. C6AA /au·bohr⁶  :     120956.969326
 Mol. C8AA /au·bohr⁸  :    3672458.136558
 Mol. α(0) /au        :        576.648487


Wiberg/Mayer (AO) data.
largest (>0.10) Wiberg bond orders for each atom

 ---------------------------------------------------------------------------
     #   Z sym  total        # sym  WBO       # sym  WBO       # sym  WBO
 ---------------------------------------------------------------------------
     1   6 C    3.988 --     3 C    1.756     5 C    1.137    51 H    0.959
     2   6 C    3.955 --     7 C    1.643    13 C    1.202    61 H    0.934
     3   6 C    3.946 --     1 C    1.756    74 P    1.090    62 H    0.951
     4   6 C    3.891 --    13 C    1.356    19 C    1.274    74 P    1.047
     5   6 C    3.927 --    24 C    1.397    19 C    1.236     1 C    1.137
     6   6 C    3.926 --    30 C    1.749    73 P    1.090    63 H    0.953
     7   6 C    3.974 --     2 C    1.643    35 C    1.207    64 H    0.962
     8   6 C    3.958 --    40 C    1.585    34 C    1.248    52 H    0.935
     9   6 C    3.908 --    35 C    1.322    36 C    1.248    30 C    1.144
    10   6 C    3.938 --    38 C    1.495    36 C    1.238    73 P    1.033
    11   6 C    3.976 --    37 C    1.272    39 C    1.272    32 C    1.197
    12   6 C    3.961 --    33 C    1.314    40 C    1.259    39 C    1.176
    13   6 C    3.982 --     4 C    1.356    41 C    1.218     2 C    1.202
    14   6 C    3.970 --    41 C    1.268    42 C    1.254    35 C    1.224
    15   6 C    3.975 --    43 C    1.251    36 C    1.250    42 C    1.243
    16   6 C    3.980 --    37 C    1.458    44 C    1.369    53 H    0.961
    17   6 C    3.951 --    38 C    1.287    43 C    1.254    45 C    1.252
    18   6 C    3.986 --    44 C    1.503    39 C    1.322    54 H    0.960
                            37 C    0.102
    19   6 C    3.983 --     4 C    1.274    46 C    1.237     5 C    1.236
    20   6 C    3.958 --    45 C    1.509    50 C    1.167    47 C    1.129
    21   6 C    3.979 --    41 C    1.256    46 C    1.255    48 C    1.238
    22   6 C    3.958 --    48 C    1.286    42 C    1.247    49 C    1.208
    23   6 C    3.967 --    49 C    1.280    43 C    1.235    50 C    1.225
    24   6 C    3.983 --     5 C    1.397    31 C    1.390    55 H    0.957
    25   6 C    3.907 --    50 C    1.355    34 C    1.282    72 P    1.045
    26   6 C    3.974 --    31 C    1.308    46 C    1.245    32 C    1.180
    27   6 C    3.955 --    47 C    1.765    72 P    1.091    56 H    0.951
    28   6 C    3.978 --    32 C    1.340    48 C    1.214    33 C    1.197
    29   6 C    3.976 --    49 C    1.260    34 C    1.245    33 C    1.241
    30   6 C    3.987 --     6 C    1.749     9 C    1.144    65 H    0.954
    31   6 C    3.917 --    24 C    1.390    26 C    1.308    71 P    1.043
    32   6 C    3.948 --    28 C    1.340    11 C    1.197    26 C    1.180
    33   6 C    3.984 --    12 C    1.314    29 C    1.241    28 C    1.197
    34   6 C    3.977 --    25 C    1.282     8 C    1.248    29 C    1.245
    35   6 C    3.968 --     9 C    1.322    14 C    1.224     7 C    1.207
    36   6 C    3.966 --    15 C    1.250     9 C    1.248    10 C    1.238
    37   6 C    3.969 --    16 C    1.458    11 C    1.272    71 P    1.041
                            18 C    0.102
    38   6 C    3.954 --    10 C    1.495    17 C    1.287    66 H    0.959
    39   6 C    3.970 --    18 C    1.322    11 C    1.272    12 C    1.176
    40   6 C    3.977 --     8 C    1.585    12 C    1.259    58 H    0.960
    41   6 C    3.966 --    14 C    1.268    21 C    1.256    13 C    1.218
    42   6 C    3.973 --    14 C    1.254    22 C    1.247    15 C    1.243
    43   6 C    3.979 --    17 C    1.254    15 C    1.251    23 C    1.235
    44   6 C    3.974 --    18 C    1.503    16 C    1.369    59 H    0.969
    45   6 C    3.975 --    20 C    1.509    17 C    1.252    67 H    0.965
    46   6 C    3.973 --    21 C    1.255    26 C    1.245    19 C    1.237
    47   6 C    3.988 --    27 C    1.765    20 C    1.129    68 H    0.959
    48   6 C    3.960 --    22 C    1.286    21 C    1.238    28 C    1.214
    49   6 C    3.982 --    23 C    1.280    29 C    1.260    22 C    1.208
    50   6 C    3.976 --    25 C    1.355    23 C    1.225    20 C    1.167
    51   1 H    0.998 --     1 C    0.959
    52   1 H    0.996 --     8 C    0.935
    53   1 H    0.998 --    16 C    0.961
    54   1 H    0.998 --    18 C    0.960
    55   1 H    0.998 --    24 C    0.957
    56   1 H    0.997 --    27 C    0.951
    57   1 H    0.984 --    72 P    0.917
    58   1 H    0.998 --    40 C    0.960
    59   1 H    0.998 --    44 C    0.969
    60   1 H    0.979 --    74 P    0.915
    61   1 H    0.996 --     2 C    0.934
    62   1 H    0.997 --     3 C    0.951
    63   1 H    0.997 --     6 C    0.953
    64   1 H    0.997 --     7 C    0.962
    65   1 H    0.998 --    30 C    0.954
    66   1 H    0.997 --    38 C    0.959
    67   1 H    0.998 --    45 C    0.965
    68   1 H    0.998 --    47 C    0.959
    69   1 H    0.980 --    73 P    0.925
    70   1 H    0.987 --    71 P    0.936
    71  15 P    3.304 --    31 C    1.043    37 C    1.041    70 H    0.936
    72  15 P    3.368 --    27 C    1.091    25 C    1.045    57 H    0.917
    73  15 P    3.297 --     6 C    1.090    10 C    1.033    69 H    0.925
    74  15 P    3.359 --     3 C    1.090     4 C    1.047    60 H    0.915
 ---------------------------------------------------------------------------

Topologies differ in total number of bonds
Writing topology from bond orders to xtbtopo.mol

molecular dipole:
                 x           y           z       tot (Debye)
 q only:       -0.002      -0.008       0.260
   full:       -0.090      -0.016       0.632       1.624
molecular quadrupole (traceless):
                xx          xy          yy          xz          yz          zz
 q only:        4.095      -1.977       8.336       5.287      -3.685     -12.432
  q+dip:       19.301      -1.320      13.248      12.651      -8.992     -32.548
   full:       10.297      -0.431       5.633      13.490      -8.564     -15.931


           -------------------------------------------------
          | TOTAL ENERGY             -127.540693550434 Eh   |
          | GRADIENT NORM               0.000488438823 Eh/α |
          | HOMO-LUMO GAP               0.839924555681 eV   |
           -------------------------------------------------

------------------------------------------------------------------------
 * finished run on 2025/12/08 at 00:34:39.683     
------------------------------------------------------------------------
 total:
 * wall-time:     0 d,  0 h,  0 min,  0.167 sec
 *  cpu-time:     0 d,  0 h,  0 min,  1.938 sec
 * ratio c/w:    11.602 speedup
 SCF:
 * wall-time:     0 d,  0 h,  0 min,  0.118 sec
 *  cpu-time:     0 d,  0 h,  0 min,  1.234 sec
 * ratio c/w:    10.461 speedup

normal termination of xtb
