74
 energy: -127.540693550396 gnorm: 0.000488522342 xtb: 6.7.1pre (5071a88)
C           -6.01331342193883       -3.16155260263017        0.20277876366051
C           -1.04760770078386       -4.70860127904337       -0.50542027782499
C           -5.65241156817262       -4.43103234874927       -0.00688172563838
C           -3.09124634601297       -3.37718758312364       -0.22181946266310
C           -5.12510906683078       -2.02791091902112        0.18431132975013
C            4.38700050083039       -5.42422412342069        0.31852284627733
C            0.29501012375353       -4.82905176646932       -0.42598698972434
C            1.08793044117853        4.86088060755326       -0.31320597185461
C            2.51685701188301       -3.82665946727632       -0.00358294873816
C            4.74973598219693       -2.73670772591246        0.02258511729667
C           -3.32899301913481        2.83697195131682        0.03070051677532
C           -1.10316490222764        3.83959614414140       -0.29394689455071
C           -1.70102296376193       -3.46272438536296       -0.29646079488157
C            0.51070618878891       -2.42100001310839       -0.12888381851008
C            2.71922681873499       -1.37923221270344        0.01247321797227
C           -5.28579741765723        4.29259710078893       -0.08485734381711
C            4.91807290876059       -0.32135097486441        0.13673928236111
C           -3.15303079682526        5.17063222876716       -0.66185738298567
C           -3.72155853747405       -2.12844356498707       -0.01138976089700
C            5.15391904571490        2.09823760814619        0.21793662964884
C           -1.51437128816837       -1.03633315039861       -0.04096547803895
C            0.69401259489044        0.01655686281236       -0.00606280441348
C            2.91472702095625        1.08078185121974        0.05641415487572
C           -5.66781138554414       -0.78616820391935        0.45789777818932
C            3.11675902902530        3.50631588589466       -0.02285788262817
C           -3.52645755210903        0.33689480304598        0.23663896151042
C            5.67493145660875        4.50960726088583        0.33937290661155
C           -1.33715323796686        1.41316219824878        0.00417123888346
C            0.89749109903839        2.45336313383752       -0.07603548321552
C            3.08217181877956       -5.12354023265951        0.28333595673330
C           -4.90871466139568        0.37210569686228        0.47552897517571
C           -2.73032587895562        1.53292123774382        0.13077061519317
C           -0.51630772348823        2.57652665705368       -0.11573730055057
C            1.71488434222330        3.60762748300234       -0.14051252052304
C            1.12803363169239       -3.70197982161808       -0.16838994716450
C            3.33066220393941       -2.66295287124239        0.00228163335646
C           -4.71387318852959        3.07090959871032        0.20492215108078
C            5.50509945477788       -1.59290668182597        0.08932308783813
C           -2.53109482441299        3.95654020496954       -0.32292743199010
C           -0.26206395000451        4.97091926350585       -0.39987013162110
C           -0.89607124198979       -2.30211640121265       -0.15655945951186
C            1.30766855440485       -1.25987364053993       -0.02766023938232
C            3.51291190015003       -0.20711055199977        0.07325785342613
C           -4.51088795999390        5.33439210538063       -0.57655281010581
C            5.70167726236636        0.84372886847627        0.23993220335096
C           -2.92536378953922       -0.94181764783386        0.05002014599298
C            6.03802330336940        3.22526309953523        0.39305806375119
C           -0.71216453867412        0.13236285597149       -0.00190679932902
C            1.50832575694747        1.18465362160623        0.00582569018999
C            3.73060584673580        2.25387353208738        0.07785075023849
H           -7.04515113963514       -2.93477742512061        0.44475027455402
H            1.70693404295709        5.74563089420717       -0.39043134252663
H           -6.34857869897185        4.42610003944730        0.06746136568722
H           -2.55683517864452        5.99724685700619       -1.01112944148126
H           -6.72830588318368       -0.70818608107683        0.66447696200374
H            6.40264234175047        5.29657050313682        0.49505053703747
H            3.68248717147174        5.62359455710872        1.05619330860707
H           -0.69133571598340        5.95154719943829       -0.52192122756363
H           -4.97026243897743        6.27042457562152       -0.85679188914740
H           -3.67472713786675       -5.58776596399347        0.66034727818454
H           -1.65743059014405       -5.57196529807732       -0.74105593922422
H           -6.38376283165084       -5.22858629088979        0.03347992187796
H            4.71446884467142       -6.42077741845428        0.58480036945637
H            0.74939148754653       -5.78998450449800       -0.60954129697805
H            2.37926918553298       -5.89076378638175        0.57863705876900
H            6.58511336688115       -1.66873433912833        0.09734756038954
H            6.77271093737233        0.73027094924055        0.33588067167865
H            7.06683347794626        2.97232427565730        0.62200832454169
H            6.39019380169871       -4.26590873610897        0.96403263159648
H           -6.78717076708096        1.82720114176920        0.06687812866212
P           -5.76714738377961        1.85854274563530        1.02902866104622
P            4.05007841901151        5.06153661974954       -0.17913688839622
P            5.65960255038197       -4.29089471201552       -0.23532082278262
P           -4.00975819745876       -4.91945349391430       -0.53104841557178
