74
 energy: -127.526763113874 gnorm: 0.040101812680 xtb: 6.7.1pre (5071a88)
C           -6.06750700000000       -3.20373900000000        0.20354100000000
C           -1.04097600000000       -4.76128400000000       -0.46253200000000
C           -5.72247400000000       -4.48461900000000       -0.00300800000000
C           -3.10867200000000       -3.42490200000000       -0.21763600000000
C           -5.16165800000000       -2.06395300000000        0.18310300000000
C            4.42853300000000       -5.50066100000000        0.27121800000000
C            0.30790800000000       -4.87174400000000       -0.39238000000000
C            1.08666100000000        4.90742500000000       -0.29555400000000
C            2.54617200000000       -3.85812000000000       -0.00209500000000
C            4.79659200000000       -2.74778000000000        0.08667600000000
C           -3.36981100000000        2.86939900000000        0.01864400000000
C           -1.11567700000000        3.87137500000000       -0.27262500000000
C           -1.71426100000000       -3.50537900000000       -0.27819900000000
C            0.51696300000000       -2.44051100000000       -0.11636100000000
C            2.73780700000000       -1.38715800000000        0.03170100000000
C           -5.32396000000000        4.35638500000000       -0.08089400000000
C            4.94346300000000       -0.31338900000000        0.16276400000000
C           -3.15907400000000        5.24838500000000       -0.58649400000000
C           -3.74585900000000       -2.16391200000000       -0.00697200000000
C            5.19391600000000        2.12163500000000        0.20424800000000
C           -1.52677600000000       -1.05237500000000       -0.04176500000000
C            0.69210100000000        0.01863400000000       -0.00992600000000
C            2.92821300000000        1.09599900000000        0.05506700000000
C           -5.71338300000000       -0.81415000000000        0.42651100000000
C            3.14185800000000        3.54313600000000       -0.05228700000000
C           -3.56920600000000        0.33004100000000        0.21185500000000
C            5.76076400000000        4.54855400000000        0.26470300000000
C           -1.35888800000000        1.42453100000000       -0.00076300000000
C            0.90298000000000        2.47838900000000       -0.08337000000000
C            3.12166200000000       -5.18728400000000        0.19582800000000
C           -4.96144200000000        0.35821600000000        0.43972000000000
C           -2.76406700000000        1.54554500000000        0.11054900000000
C           -0.52652800000000        2.59861500000000       -0.11570700000000
C            1.72899900000000        3.64433700000000       -0.14733200000000
C            1.15143700000000       -3.73105700000000       -0.15840100000000
C            3.36436200000000       -2.67946200000000        0.03901400000000
C           -4.76984200000000        3.11215700000000        0.18060800000000
C            5.54110500000000       -1.58817500000000        0.14546300000000
C           -2.55169700000000        4.00164400000000       -0.29273000000000
C           -0.27033000000000        5.01308300000000       -0.36631700000000
C           -0.90259700000000       -2.32824300000000       -0.14624500000000
C            1.31327700000000       -1.26830200000000       -0.02117600000000
C            3.53201700000000       -0.20283500000000        0.08989100000000
C           -4.52279700000000        5.42292300000000       -0.50866200000000
C            5.73503300000000        0.86112700000000        0.24312400000000
C           -2.95012100000000       -0.95985500000000        0.04576800000000
C            6.10249500000000        3.25269100000000        0.34365300000000
C           -0.72397300000000        0.13027700000000       -0.00683400000000
C            1.51377600000000        1.20017300000000       -0.00102900000000
C            3.75242300000000        2.28160500000000        0.06635600000000
H           -7.10717300000000       -2.96619800000000        0.42429100000000
H            1.67873300000000        5.81407100000000       -0.35618100000000
H           -6.39327600000000        4.50709900000000        0.04689800000000
H           -2.54771700000000        6.08774500000000       -0.89118900000000
H           -6.78358400000000       -0.75572700000000        0.61323400000000
H            6.51663400000000        5.32033900000000        0.39027100000000
H            3.71963700000000        5.79143500000000        0.94095700000000
H           -0.70008000000000        6.00145400000000       -0.46224300000000
H           -4.96954700000000        6.38270800000000       -0.75040200000000
H           -3.68247700000000       -5.74946100000000        0.60572300000000
H           -1.62216000000000       -5.65403400000000       -0.66838000000000
H           -6.47545500000000       -5.26801300000000        0.03951600000000
H            4.72020300000000       -6.53105300000000        0.45968900000000
H            0.75189400000000       -5.84403700000000       -0.56287000000000
H            2.41877200000000       -5.99622100000000        0.36064800000000
H            6.62783200000000       -1.64143300000000        0.17028900000000
H            6.81209300000000        0.74818400000000        0.33876700000000
H            7.14068000000000        2.99104200000000        0.54350000000000
H            6.40430500000000       -4.32741600000000        1.19359300000000
H           -6.89457800000000        1.83062500000000       -0.02680300000000
P           -5.84907300000000        1.86200200000000        0.93753400000000
P            4.11821100000000        5.10029100000000       -0.24114600000000
P            5.74459300000000       -4.31604300000000       -0.07051200000000
P           -4.06762100000000       -4.97461500000000       -0.52758100000000
74
 energy: -127.536981652742 gnorm: 0.021090627222 xtb: 6.7.1pre (5071a88)
C           -6.03781061631841       -3.19013342166699        0.20159518862138
C           -1.04487663573893       -4.73596221021338       -0.45966426940568
C           -5.68203581553262       -4.46549399210851        0.00538275407799
C           -3.10059865292095       -3.40677097503233       -0.19837407617447
C           -5.14443998382429       -2.05165273750965        0.17814124607964
C            4.42225251720435       -5.45986190508734        0.28485486529094
C            0.30045304955220       -4.84859100011703       -0.39509650008188
C            1.08744067954616        4.88292479108791       -0.29054442510497
C            2.53793209725653       -3.84315458252385       -0.00364349346354
C            4.77556498691646       -2.74111524205941        0.09917677472899
C           -3.35515634926466        2.85295007341067        0.01630181962100
C           -1.11230258484496        3.85633701105342       -0.26949093365162
C           -1.70930101905549       -3.48753642026582       -0.26696383712789
C            0.51471600508035       -2.43325125997822       -0.11384357716283
C            2.72965638907255       -1.38418528223027        0.03323863727587
C           -5.30664655845149        4.33073235501587       -0.08069399841130
C            4.92866494414027       -0.31460734871820        0.16137198769416
C           -3.15627820544333        5.22103908857065       -0.58303018196892
C           -3.73528751059429       -2.15031645658689       -0.00580480562564
C            5.17296457834092        2.11286617218421        0.20004428274914
C           -1.52228864199304       -1.04695237114832       -0.03950942940398
C            0.69186296139786        0.01713284310089       -0.00869447981979
C            2.92087937440404        1.09000191613031        0.05683588706067
C           -5.69462670102754       -0.80421540193965        0.41937813970752
C            3.12932020449592        3.52569667598125       -0.03645566898132
C           -3.55301256602505        0.33177357263284        0.20528920626229
C            5.71798582941368        4.53135257231840        0.26982852297185
C           -1.35224721607543        1.41839504489299       -0.00484662357616
C            0.89880026483488        2.46669656883958       -0.07924273424122
C            3.11802484586003       -5.15774055601802        0.20185146322050
C           -4.94286079618083        0.36375831633512        0.42135693155450
C           -2.75231417288903        1.53860821337905        0.10581680744397
C           -0.52399071987794        2.58749397364325       -0.11395111431916
C            1.72213503848833        3.62599401227516       -0.13929464347046
C            1.14453956690742       -3.71776290468740       -0.15710070384701
C            3.35087702305519       -2.67147322325132        0.03967242313414
C           -4.74982531777355        3.08996585811852        0.16826202316351
C            5.52163874803016       -1.58749594490885        0.15006206847313
C           -2.54465560492838        3.98294088597391       -0.29150154151788
C           -0.26568417237700        4.99090055825364       -0.36093755778007
C           -0.89961424626835       -2.31836065253335       -0.14137483472455
C            1.31080604334973       -1.26536174587516       -0.02021671404274
C            3.52141275999079       -0.20373396338247        0.08962906590284
C           -4.51402216239414        5.39316481659690       -0.50517269898581
C            5.71578663922197        0.85609382724090        0.24112272128726
C           -2.94066469505071       -0.95377230018970        0.04471451288416
C            6.06988346074451        3.24240300364952        0.33968655666787
C           -0.72024035792836        0.13033463280580       -0.00792859195163
C            1.51015045307453        1.19315580070767        0.00076511857270
C            3.74100257988593        2.26924334518523        0.06804633392719
H           -7.07576188883814       -2.95987385265254        0.42467115533187
H            1.69064288494182        5.78074757398005       -0.35727699257766
H           -6.37240385202505        4.47837146884590        0.05235036433768
H           -2.55265900134017        6.06201207494751       -0.88683675002544
H           -6.76089457253913       -0.73884737544727        0.61148397024432
H            6.46773211215311        5.30809044840881        0.38467390671559
H            3.73814152739834        5.72435375640790        0.94420573528063
H           -0.69150045224140        5.97732158218401       -0.46074652930974
H           -4.96197733531027        6.34956446803541       -0.74305742948466
H           -3.70185015688007       -5.68249336608188        0.61323301632756
H           -1.63789757412385       -5.61929058065830       -0.66738969153356
H           -6.42851921365371       -5.25290530202849        0.03632090579371
H            4.72490608671673       -6.48759789452495        0.45732953992032
H            0.74159262291844       -5.81892268168822       -0.56729280793342
H            2.42158254599633       -5.96856437908809        0.36932139758424
H            6.60473417904225       -1.64871626541859        0.17366270368802
H            6.78947283396593        0.74364198512049        0.33597695202600
H            7.10631763318744        2.98739937919509        0.54301683505816
H            6.34367801042512       -4.30724100439841        1.17548873588936
H           -6.83545804819980        1.82654236652848       -0.03641125420929
P           -5.82179073152397        1.85637098686136        0.94942121204623
P            4.08842660818575        5.07480759735901       -0.26730078257740
P            5.72964651559536       -4.29112589301664       -0.10292498140009
P           -4.04034347133702       -4.94596312422214       -0.55065311472511
74
 energy: -127.539987206897 gnorm: 0.007530945963 xtb: 6.7.1pre (5071a88)
C           -6.01789595970532       -3.17335165213255        0.19019525709856
C           -1.04704498055111       -4.71557541091480       -0.45960743040452
C           -5.65779000169082       -4.44348114920535       -0.01241566315088
C           -3.09186027487753       -3.38696937679496       -0.20158796842952
C           -5.13030449764496       -2.03907912554715        0.16727134266887
C            4.40793498694358       -5.43749279595604        0.27086798681824
C            0.29592264944243       -4.83152211051380       -0.39683735983022
C            1.08671392172143        4.86310341532539       -0.28892534290103
C            2.52838141667612       -3.83094710061052       -0.00639270485047
C            4.75650628499143       -2.73247995067547        0.08930824843922
C           -3.33922398684096        2.83911495667506        0.01851980984890
C           -1.10753135856255        3.84339499108265       -0.26737562751329
C           -1.70230081258298       -3.47035948647381       -0.26543134527977
C            0.51311560683701       -2.42634292520951       -0.10944080519170
C            2.72137476142664       -1.38089185747755        0.03559751032604
C           -5.29002712805743        4.30844193089187       -0.07785404010845
C            4.91568494089730       -0.31496143412500        0.16500724235981
C           -3.14829674593784        5.19786148644497       -0.58384175807897
C           -3.72516025133706       -2.13652513245475       -0.01289347546152
C            5.15571459553313        2.10446241842549        0.19399442933860
C           -1.51672710934296       -1.04137038826711       -0.03667266178213
C            0.69174394782595        0.01550138958680       -0.00497447579081
C            2.91345104880149        1.08377129473520        0.05982605559198
C           -5.67781933914898       -0.79489935013056        0.41528883439279
C            3.11726026934561        3.50834789957780       -0.03913449603630
C           -3.53619925456783        0.33303726602615        0.20581396779753
C            5.69021610199534        4.51511632666964        0.25044597655598
C           -1.34461714563385        1.41254534414609       -0.00437204330765
C            0.89454903785419        2.45509791321355       -0.07323844961798
C            3.10508264619383       -5.13801740914163        0.19811234974847
C           -4.92288769842753        0.36619202590508        0.42013598768493
C           -2.74029043674922        1.53221496019319        0.10697579186026
C           -0.52105782736232        2.57723524999812       -0.11039041768490
C            1.71429617712754        3.60909452883858       -0.13709526438631
C            1.13670065399823       -3.70639816940984       -0.15574396662335
C            3.33744094686731       -2.66412053623775        0.03396359709375
C           -4.72756245973846        3.07423999012076        0.17258352145539
C            5.50522938205947       -1.58514089012179        0.14934217505387
C           -2.53532751655315        3.96629645844537       -0.29266536226346
C           -0.26359836283168        4.97389568561735       -0.35954075762770
C           -0.89556759373634       -2.30855187946758       -0.13531402084385
C            1.30831851704945       -1.26226354253295       -0.01645167670851
C            3.51146473600264       -0.20460161704720        0.09209763078047
C           -4.50417024084764        5.36731717297268       -0.50778477357330
C            5.70043641448209        0.85081882229563        0.24238003849511
C           -2.93021620964709       -0.94756351754275        0.04292330080355
C            6.04675308399287        3.23106118048508        0.32861544261023
C           -0.71605391873072        0.13052986030689       -0.00611342584031
C            1.50618563553823        1.18593513306612        0.00529667755960
C            3.73104291707365        2.25690484612092        0.06346915293034
H           -7.04912584657685       -2.94867740858806        0.43935907464919
H            1.70129477221503        5.75201814484876       -0.35877074988115
H           -6.35431613106402        4.44721215430127        0.05874273319853
H           -2.54716035150480        6.03957517813919       -0.88388670023316
H           -6.74129341201338       -0.72023711028682        0.60836166673897
H            6.42624247563037        5.29907844157253        0.38324483599950
H            3.72303257999573        5.68670939007767        0.95417094332492
H           -0.68916762738960        5.95800569742792       -0.46333869150070
H           -4.95373990496743        6.32047160508153       -0.74339778841419
H           -3.69003406938576       -5.64220634483951        0.62625907973237
H           -1.65225603632021       -5.58883028545607       -0.67099868190452
H           -6.39084999890030       -5.23954319566235        0.03749214836414
H            4.72048296471023       -6.45551535645808        0.46744009686077
H            0.73751761579121       -5.79908960863378       -0.57343666093773
H            2.40950942876871       -5.94208383954426        0.39364092241894
H            6.58543352266680       -1.65502035579178        0.17628980223092
H            6.77179045842514        0.73808487686580        0.33405566944185
H            7.07676066814344        2.97955284087780        0.55702418132706
H            6.31882613588773       -4.28012124085182        1.16198179632775
H           -6.79756865910588        1.82256409241141       -0.04128217178918
P           -5.80279424195064        1.84999622453974        0.95025117921934
P            4.05754532695635        5.05593369380135       -0.25944310195621
P            5.71145086722934       -4.27146702053239       -0.10791320396485
P           -4.01378310681186       -4.92490031247607       -0.54146939327818
74
 energy: -127.540281022939 gnorm: 0.003016300264 xtb: 6.7.1pre (5071a88)
C           -6.01318381203479       -3.17063924650987        0.19318570116577
C           -1.04741443478492       -4.71352520534989       -0.46576459826731
C           -5.65030649535725       -4.44026950195038       -0.01148491174314
C           -3.09045511006316       -3.38322224062161       -0.20832317804046
C           -5.12815303536573       -2.03546341094413        0.16359233863972
C            4.40390861638007       -5.43390370007945        0.27787948981200
C            0.29563713285238       -4.83125070940831       -0.40270772948189
C            1.08660451016700        4.86129138933876       -0.29116580412953
C            2.52553445760315       -3.83000059505530       -0.00784323280238
C            4.75365152175037       -2.73232998392562        0.08057530702565
C           -3.33481681225210        2.83712125728056        0.02428553389280
C           -1.10533190928962        3.84212129652762       -0.26737829093830
C           -1.70014508184059       -3.46746533812507       -0.26878545939718
C            0.51290788312424       -2.42545200219728       -0.10897825454322
C            2.71997764234360       -1.38062794940701        0.03490543322301
C           -5.28744039229262        4.30291609421737       -0.07527954127779
C            4.91490598090888       -0.31576705344123        0.16516867353188
C           -3.14594945639875        5.19362277348752       -0.58779912677581
C           -3.72293248408420       -2.13340336230649       -0.01635688984731
C            5.15330511487795        2.10266039246305        0.19369971894569
C           -1.51504668564864       -1.03987554096356       -0.03512433981267
C            0.69225071329648        0.01467821659573       -0.00045751483587
C            2.91231047276624        1.08176854145456        0.06054083465338
C           -5.67558403453051       -0.79184737725400        0.41467093913854
C            3.11557295080365        3.50596805353561       -0.04191020023290
C           -3.53236567380061        0.33389856471225        0.21036374950957
C            5.68056292921047        4.51430017086108        0.25343977852903
C           -1.34158258703976        1.41165920640573        0.00064701195701
C            0.89432924940401        2.45257246486262       -0.07129908021803
C            3.09979733964438       -5.13523236478045        0.21048945556810
C           -4.91848987763713        0.36721245076782        0.42731742523947
C           -2.73667763224695        1.53130523240668        0.11363288709883
C           -0.51963504363739        2.57582140205168       -0.10776977996712
C            1.71265374954311        3.60647593270734       -0.13736328897622
C            1.13403430482319       -3.70568581439098       -0.15815354655745
C            3.33475774589022       -2.66373202478782        0.02964410260245
C           -4.72199633151478        3.07134315465371        0.18233819918603
C            5.50389147095622       -1.58571399314300        0.14686387926498
C           -2.53232414620015        3.96398647180258       -0.29224389738322
C           -0.26341978488529        4.97315119249086       -0.36261740984149
C           -0.89450572207871       -2.30640530351479       -0.13577397223934
C            1.30797982338313       -1.26211815898616       -0.01373732581189
C            3.51039768932672       -0.20557852266045        0.09247410998713
C           -4.50319245287400        5.36156914093086       -0.51154939664409
C            5.69984940426673        0.84921111298173        0.24220435741764
C           -2.92751290738164       -0.94574664335366        0.04296229225366
C            6.04076115043377        3.23080364709202        0.33489123691618
C           -0.71459729270934        0.13060354472302       -0.00143818359344
C            1.50566503859136        1.18390055747926        0.00834595039710
C            3.72939179772722        2.25442553788272        0.06325876047659
H           -7.04486158710721       -2.94545852376019        0.43684138308351
H            1.70420116831416        5.74743109659491       -0.36297763891066
H           -6.35225114731117        4.43558883361435        0.06311458840126
H           -2.54460456207262        6.03369948447460       -0.89221012946460
H           -6.73849648639034       -0.71384566801754        0.60839769807754
H            6.41286629760492        5.30197338991077        0.37969673185946
H            3.71180111481114        5.66041078210562        0.96379813001730
H           -0.68977576213061        5.95662913434559       -0.46804346709522
H           -4.95430765479894        6.31218573099939       -0.75308977093512
H           -3.68229235495307       -5.61362697877426        0.63783171787498
H           -1.65610986181294       -5.58274923293290       -0.68206741193596
H           -6.37996995065456       -5.23886675307871        0.03430700123132
H            4.71954933144740       -6.45026607818616        0.47596717762623
H            0.73848462798131       -5.79729158406795       -0.58424717333806
H            2.40282172320528       -5.93671662373864        0.41138871016799
H            6.58378509948433       -1.65833723307397        0.17481638265523
H            6.77093230305329        0.73629461873126        0.33558931834497
H            7.07166586326448        2.98062711929707        0.55673105620299
H            6.30649296989844       -4.26769084815063        1.14960101350085
H           -6.78405472637644        1.82043040654439       -0.04401667417181
P           -5.79959464960809        1.84852998015449        0.95533326791348
P            4.05014511752415        5.05350977772115       -0.25934614145323
P            5.70417674089327       -4.27068601498195       -0.12053543388314
P           -4.00839610839202       -4.92077057228692       -0.54263854884347
74
 energy: -127.540390622925 gnorm: 0.002155148921 xtb: 6.7.1pre (5071a88)
C           -6.01282930338402       -3.16915756171259        0.19095064753014
C           -1.04756049984285       -4.71248343901248       -0.47613650278085
C           -5.64867618993119       -4.43869479992036       -0.01369767170713
C           -3.09008187443105       -3.38139959538886       -0.21442099934074
C           -5.12769229447440       -2.03380697689856        0.16288052608310
C            4.40049282212020       -5.43395484526931        0.28344217588626
C            0.29557168735630       -4.83158126334759       -0.41138933282856
C            1.08704496815720        4.86102200643483       -0.29532935884694
C            2.52375652696056       -3.83041369156813       -0.00777944145744
C            4.75283129824401       -2.73339964713974        0.07343840018320
C           -3.33309130330080        2.83718218486187        0.03066193435625
C           -1.10433327487156        3.84243260907149       -0.26739922615587
C           -1.69930243299223       -3.46590711652094       -0.27457642570313
C            0.51279142084118       -2.42507437884411       -0.11039403449461
C            2.71984516647420       -1.38077144172742        0.03355982468234
C           -5.28708231416595        4.30061647194118       -0.07246546397827
C            4.91575796813310       -0.31666986550048        0.16354307721607
C           -3.14679399538398        5.19115793023606       -0.59354898063061
C           -3.72215704453627       -2.13190918791950       -0.01803310935798
C            5.15348425953448        2.10200095673649        0.19507487394732
C           -1.51452620621754       -1.03887250286846       -0.03356596297628
C            0.69272735086467        0.01434925805661        0.00338568622523
C            2.91249958920398        1.08073812184052        0.06103431557926
C           -5.67509344452176       -0.79057035002043        0.41665158139761
C            3.11559125115680        3.50517022851780       -0.04464007849580
C           -3.53116490827067        0.33478002434119        0.21597262763782
C            5.67822275933835        4.51461258003243        0.25418229650090
C           -1.34009357125935        1.41195538539692        0.00616159480765
C            0.89468794264789        2.45175213986861       -0.06990743694990
C            3.09586006464257       -5.13532081702774        0.22063496450616
C           -4.91715761099959        0.36815600567494        0.43404702928124
C           -2.73507608453626        1.53161404130908        0.12115200542802
C           -0.51892794204208        2.57604624780667       -0.10486285426536
C            1.71248316477342        3.60549739391813       -0.13929315692439
C            1.13240142965539       -3.70583306437806       -0.16079557781836
C            3.33378748233015       -2.66424440095626        0.02629972687732
C           -4.71998398200487        3.07047334985164        0.19053935325931
C            5.50413300860324       -1.58698859514278        0.14262010201995
C           -2.53146977143614        3.96379842638836       -0.29121883734185
C           -0.26294391483497        4.97376169278115       -0.36628630688481
C           -0.89426446497784       -2.30514238701941       -0.13800012659388
C            1.30804953300308       -1.26221118572889       -0.01235499712273
C            3.51086552056396       -0.20641228698388        0.09177357585542
C           -4.50460490776924        5.35799694553758       -0.51614358813388
C            5.70086466022765        0.84837887844566        0.24312223586042
C           -2.92664055163737       -0.94457329910139        0.04436017904936
C            6.04014617752066        3.23137396864185        0.33635947817769
C           -0.71393594260148        0.13098394963079        0.00314104927579
C            1.50592702986501        1.18314143880260        0.01105232157984
C            3.72941906742692        2.25349239114018        0.06345162311625
H           -7.04417496563089       -2.94365032545374        0.43548222437891
H            1.70600241314859        5.74572278363899       -0.36920969694216
H           -6.35220226784532        4.42941024341206        0.06762369731154
H           -2.54633999124853        6.02918976590929       -0.90547446247840
H           -6.73798762345088       -0.71089619397758        0.60974573154968
H            6.40787401677232        5.30452981308375        0.38115611866087
H            3.70371617293971        5.64767759935135        0.97625299008056
H           -0.68919650947211        5.95704610222086       -0.47328880754459
H           -4.95727267745227        6.30606825451587       -0.76483357723977
H           -3.67573028834136       -5.59927658222916        0.64954027301038
H           -1.65790162716364       -5.57913714971220       -0.69708258149049
H           -6.37617793586728       -5.23906351327552        0.03328766706327
H            4.71767093987451       -6.44800428297162        0.49067461953963
H            0.73974677212889       -5.79623569200986       -0.59733178391102
H            2.39731101321373       -5.93220152631639        0.43594535096938
H            6.58399316669661       -1.66143472631445        0.17016570396101
H            6.77194589352043        0.73532382515531        0.33752603558107
H            7.07077354491456        2.98188106977033        0.55982976389781
H            6.30910826298703       -4.26265288876314        1.13486532941362
H           -6.77661008280920        1.82008610288484       -0.04325595048329
P           -5.79879253302759        1.84838046049501        0.96213480546125
P            4.04662741352242        5.05472808867137       -0.25197924604594
P            5.69921678140440       -4.27308341975719       -0.13062387320284
P           -4.00557120803560       -4.92136373559547       -0.53809006707108
74
 energy: -127.540488871830 gnorm: 0.002787497957 xtb: 6.7.1pre (5071a88)
C           -6.01302353924356       -3.16849997151344        0.18916091540221
C           -1.04650829684275       -4.71063533273767       -0.49311837686057
C           -5.64800383586799       -4.43812351477335       -0.01297587972163
C           -3.08947769032168       -3.38008211308646       -0.22058401760483
C           -5.12715920817037       -2.03311719237308        0.16399394055271
C            4.39472977593948       -5.43420077111814        0.29439740635337
C            0.29664110868849       -4.83080221264614       -0.42480064226854
C            1.08705238942654        4.86092423250615       -0.30192812691316