      -----------------------------------------------------------      
     |                   =====================                   |     
     |                           x T B                           |     
     |                   =====================                   |     
     |                         S. Grimme                         |     
     |          Mulliken Center for Theoretical Chemistry        |     
     |                    University of Bonn                     |     
      -----------------------------------------------------------      

   * xtb version 6.7.1pre (5071a88) compiled by 'Marcel@Raven' on 2024-07-23

   xtb is free software: you can redistribute it and/or modify it under
   the terms of the GNU Lesser General Public License as published by
   the Free Software Foundation, either version 3 of the License, or
   (at your option) any later version.
   
   xtb is distributed in the hope that it will be useful,
   but WITHOUT ANY WARRANTY; without even the implied warranty of
   MERCHANTABILITY or FITNESS FOR A PARTICULAR PURPOSE.  See the
   GNU Lesser General Public License for more details.
   
   Cite this work as:
   * C. Bannwarth, E. Caldeweyher, S. Ehlert, A. Hansen, P. Pracht,
     J. Seibert, S. Spicher, S. Grimme, WIREs Comput. Mol. Sci., 2020, 11,
     e01493. DOI: 10.1002/wcms.1493
   
   for GFN2-xTB:
   * C. Bannwarth, S. Ehlert and S. Grimme., J. Chem. Theory Comput., 2019,
     15, 1652-1671. DOI: 10.1021/acs.jctc.8b01176
   for GFN1-xTB:
   * S. Grimme, C. Bannwarth, P. Shushkov, J. Chem. Theory Comput., 2017,
     13, 1989-2009. DOI: 10.1021/acs.jctc.7b00118
   for GFN0-xTB:
   * P. Pracht, E. Caldeweyher, S. Ehlert, S. Grimme, ChemRxiv, 2019, preprint.
     DOI: 10.26434/chemrxiv.8326202.v1
   for GFN-FF:
   * S. Spicher and S. Grimme, Angew. Chem. Int. Ed., 2020, 59, 15665-15673.
     DOI: 10.1002/anie.202004239
   
   for ALPB and GBSA implicit solvation:
   * S. Ehlert, M. Stahn, S. Spicher, S. Grimme, J. Chem. Theory Comput.,
     2021, 17, 4250-4261. DOI: 10.1021/acs.jctc.1c00471
   
   for ddCOSMO and CPCM-X implicit solvation:
   * M. Stahn, S. Ehlert, S. Grimme, J. Phys. Chem. A,
     2023, XX, XXXX-XXXX. DOI: 10.1021/acs.jpca.3c04382
   
   for DFT-D4:
   * E. Caldeweyher, C. Bannwarth and S. Grimme, J. Chem. Phys., 2017,
     147, 034112. DOI: 10.1063/1.4993215
   * E. Caldeweyher, S. Ehlert, A. Hansen, H. Neugebauer, S. Spicher,
     C. Bannwarth and S. Grimme, J. Chem. Phys., 2019, 150, 154122.
     DOI: 10.1063/1.5090222
   * E. Caldeweyher, J.-M. Mewes, S. Ehlert and S. Grimme, Phys. Chem. Chem. Phys.
     2020, 22, 8499-8512. DOI: 10.1039/D0CP00502A
   
   for sTDA-xTB:
   * S. Grimme and C. Bannwarth, J. Chem. Phys., 2016, 145, 054103.
     DOI: 10.1063/1.4959605
   
   in the mass-spec context:
   * V. Asgeirsson, C. Bauer and S. Grimme, Chem. Sci., 2017, 8, 4879.
     DOI: 10.1039/c7sc00601b
   * J. Koopman and S. Grimme, ACS Omega 2019, 4, 12, 15120-15133.
     DOI: 10.1021/acsomega.9b02011
   
   for metadynamics refer to:
   * S. Grimme, J. Chem. Theory Comput., 2019, 155, 2847-2862
     DOI: 10.1021/acs.jctc.9b00143
   
   for SPH calculations refer to:
   * S. Spicher and S. Grimme, J. Chem. Theory Comput., 2021, 17, 1701-1714
     DOI: 10.1021/acs.jctc.0c01306
   
   for ONIOM refer to:
   * C. Plett, A. Katbashev, S. Ehlert, S. Grimme, M. Bursch,
     Phys. Chem. Chem. Phys., 2023, 25, 17860-17868. DOI: 10.1039/D3CP02178E
   
   for DIPRO refer to:
   * J. Kohn, N. Gildemeister, S. Grimme, D. Fazzi, A. Hansen,
     J. Chem. Phys., 2023, just accepted.
   
   for PTB refer to:
   * S. Grimme, M. Mueller, A. Hansen, J. Chem. Phys., 2023, 158, 124111.
     DOI: 10.1063/5.0137838
   
   with help from (in alphabetical order)
   P. Atkinson, C. Bannwarth, F. Bohle, G. Brandenburg, E. Caldeweyher
   M. Checinski, S. Dohm, S. Ehlert, S. Ehrlich, I. Gerasimov, C. Hölzer
   A. Katbashev, J. Kohn, J. Koopman, C. Lavigne, S. Lehtola, F. März, M. Müller,
   F. Musil, H. Neugebauer, J. Pisarek, C. Plett, P. Pracht, F. Pultar,
   J. Seibert, P. Shushkov, S. Spicher, M. Stahn, M. Steiner, T. Strunk,
   J. Stückrath, T. Rose, and J. Unsleber
   
 * started run on 2025/12/08 at 00:55:54.191     
   ID    Z sym.   atoms
    1    6 C      1-161
    2    1 H      162-192, 202-204
    3   16 S      193-201

           -------------------------------------------------
          |                Calculation Setup                |
           -------------------------------------------------

          program call               : xtb "C:\Users\LENOVO GAMING\Documents\GitHub\molecular-conductivity-sim\results\2nm-9Sdoped-5percent\xtbopt.xyz" --sp
          coordinate file            : C:\Users\LENOVO GAMING\Documents\GitHub\molecular-conductivity-sim\results\2nm-9Sdoped-5percent\xtbopt.xyz
          omp threads                :                    16


           -------------------------------------------------
          |                 G F N 2 - x T B                 |
           -------------------------------------------------

        Reference                      10.1021/acs.jctc.8b01176
      * Hamiltonian:
        H0-scaling (s, p, d)           1.850000    2.230000    2.230000
        zeta-weighting                 0.500000
      * Dispersion:
        s8                             2.700000
        a1                             0.520000
        a2                             5.000000
        s9                             5.000000
      * Repulsion:
        kExp                           1.500000    1.000000
        rExp                           1.000000
      * Coulomb:
        alpha                          2.000000
        third order                    shell-resolved
        anisotropic                    true
        a3                             3.000000
        a5                             4.000000
        cn-shift                       1.200000
        cn-exp                         4.000000
        max-rad                        5.000000

q/qsh data taken from xtbrestart
CAMM data taken from xtbrestart

          ...................................................
          :                      SETUP                      :
          :.................................................:
          :  # basis functions                 768          :
          :  # atomic orbitals                 759          :
          :  # shells                          383          :
          :  # electrons                       732          :
          :  max. iterations                   250          :
          :  Hamiltonian                  GFN2-xTB          :
          :  restarted?                       true          :
          :  GBSA solvation                  false          :
          :  PC potential                    false          :
          :  electronic temp.          300.0000000     K    :
          :  accuracy                    1.0000000          :
          :  -> integral cutoff          0.2500000E+02      :
          :  -> integral neglect         0.1000000E-07      :
          :  -> SCF convergence          0.1000000E-05 Eh   :
          :  -> wf. convergence          0.1000000E-03 e    :
          :  Broyden damping             0.4000000          :
          :  net charge                          0          :
          :  unpaired electrons                  0          :
          ...................................................

 iter      E             dE          RMSdq      gap      omega  full diag
   1   -399.4236956 -0.399424E+03  0.119E-05    0.14       0.0  T
   2   -399.4236956  0.778925E-09  0.366E-05    0.14     191.4  T
   3   -399.4236956 -0.395005E-09  0.268E-05    0.14     261.5  T

   *** convergence criteria satisfied after 3 iterations ***

         #    Occupation            Energy/Eh            Energy/eV
      -------------------------------------------------------------
         1        2.0000           -0.7754760             -21.1018
       ...           ...                  ...                  ...
       360        2.0000           -0.3544701              -9.6456
       361        2.0000           -0.3541731              -9.6375
       362        2.0000           -0.3492714              -9.5042
       363        2.0000           -0.3475603              -9.4576
       364        2.0000           -0.3336256              -9.0784
       365        1.9999           -0.3290377              -8.9536
       366        1.8814           -0.3224382              -8.7740 (HOMO)
       367        0.1187           -0.3171871              -8.6311 (LUMO)
       368        0.0001           -0.3101126              -8.4386
       369                         -0.3004211              -8.1749
       370                         -0.2929819              -7.9724
       371                         -0.2915590              -7.9337
       ...                                ...                  ...
       759                          0.7766927              21.1349
      -------------------------------------------------------------
                  HL-Gap            0.0052511 Eh            0.1429 eV
             Fermi-level           -0.3198124 Eh           -8.7025 eV

 SCC (total)                   0 d,  0 h,  0 min,  0.589 sec
 SCC setup                      ...        0 min,  0.003 sec (  0.509%)
 Dispersion                     ...        0 min,  0.017 sec (  2.886%)
 classical contributions        ...        0 min,  0.000 sec (  0.000%)
 integral evaluation            ...        0 min,  0.051 sec (  8.659%)
 iterations                     ...        0 min,  0.361 sec ( 61.290%)
 molecular gradient             ...        0 min,  0.147 sec ( 24.958%)
 printout                       ...        0 min,  0.010 sec (  1.698%)

         :::::::::::::::::::::::::::::::::::::::::::::::::::::
         ::                     SUMMARY                     ::
         :::::::::::::::::::::::::::::::::::::::::::::::::::::
         :: total energy            -392.276161376674 Eh    ::
         :: gradient norm              0.000452186348 Eh/a0 ::
         :: HOMO-LUMO gap              0.142890453067 eV    ::
         ::.................................................::
         :: SCC energy              -399.437252834908 Eh    ::
         :: -> isotropic ES            0.020184872169 Eh    ::
         :: -> anisotropic ES          0.019033233273 Eh    ::
         :: -> anisotropic XC          0.134162589517 Eh    ::
         :: -> dispersion             -0.522518107994 Eh    ::
         :: repulsion energy           7.161091458234 Eh    ::
         :: add. restraining           0.000000000000 Eh    ::
         :: total charge               0.000000000001 e     ::
         :::::::::::::::::::::::::::::::::::::::::::::::::::::

           -------------------------------------------------
          |                Property Printout                |
           -------------------------------------------------

    * Orbital Energies and Occupations

         #    Occupation            Energy/Eh            Energy/eV
      -------------------------------------------------------------
         1        2.0000           -0.7754760             -21.1018
       ...           ...                  ...                  ...
       354        2.0000           -0.3803285             -10.3493
       355        2.0000           -0.3711111             -10.0984
       356        2.0000           -0.3677597             -10.0073
       357        2.0000           -0.3651649              -9.9366
       358        2.0000           -0.3571587              -9.7188
       359        2.0000           -0.3568030              -9.7091
       360        2.0000           -0.3544701              -9.6456
       361        2.0000           -0.3541731              -9.6375
       362        2.0000           -0.3492714              -9.5042
       363        2.0000           -0.3475603              -9.4576
       364        2.0000           -0.3336256              -9.0784
       365        1.9999           -0.3290377              -8.9536
       366        1.8814           -0.3224382              -8.7740 (HOMO)
       367        0.1187           -0.3171871              -8.6311 (LUMO)
       368        0.0001           -0.3101126              -8.4386
       369                         -0.3004211              -8.1749
       370                         -0.2929819              -7.9724
       371                         -0.2915590              -7.9337
       372                         -0.2833097              -7.7092
       373                         -0.2790804              -7.5942
       374                         -0.2770352              -7.5385
       375                         -0.2719541              -7.4002
       376                         -0.2710681              -7.3761
       377                         -0.2673439              -7.2748
       ...                                ...                  ...
       759                          0.7766927              21.1349
      -------------------------------------------------------------
                  HL-Gap            0.0052511 Eh            0.1429 eV
             Fermi-level           -0.3198124 Eh           -8.7025 eV

     #   Z          covCN         q      C6AA      α(0)
     1   6 C        3.028    -0.044    29.053     8.841
     2   6 C        2.916    -0.030    28.754     8.793
     3   6 C        2.925    -0.042    29.051     8.839
     4   6 C        2.993     0.003    27.948     8.672
     5   6 C        2.972     0.046    26.969     8.518
     6   6 C        2.999    -0.000    28.028     8.684
     7   6 C        2.978    -0.008    28.218     8.714
     8   6 C        3.025    -0.047    29.132     8.853
     9   6 C        2.969     0.040    27.110     8.540
    10   6 C        3.003    -0.001    28.042     8.687
    11   6 C        2.996     0.001    27.993     8.679
    12   6 C        2.932    -0.051    29.267     8.872
    13   6 C        2.974     0.011    27.756     8.642
    14   6 C        2.994     0.003    27.948     8.672
    15   6 C        3.093    -0.023    28.454     8.743
    16   6 C        3.098    -0.056    29.275     8.867
    17   6 C        2.945     0.045    26.997     8.522
    18   6 C        2.971     0.035    27.217     8.557
    19   6 C        2.961     0.047    26.940     8.513
    20   6 C        3.046    -0.003    28.060     8.688
    21   6 C        2.977     0.003    27.961     8.674
    22   6 C        3.025    -0.049    29.196     8.863
    23   6 C        2.964     0.044    26.999     8.523
    24   6 C        3.000    -0.002    28.071     8.691
    25   6 C        2.989     0.001    27.988     8.678
    26   6 C        2.922    -0.039    28.966     8.826
    27   6 C        2.987     0.013    27.723     8.637
    28   6 C        2.996    -0.003    28.085     8.693
    29   6 C        2.978     0.007    27.848     8.656
    30   6 C        2.914    -0.029    28.722     8.788
    31   6 C        2.923    -0.039    28.964     8.826
    32   6 C        3.048     0.003    27.911     8.665
    33   6 C        2.911    -0.076    29.900     8.966
    34   6 C        2.980    -0.040    28.989     8.832
    35   6 C        2.958    -0.030    28.736     8.793
    36   6 C        3.002    -0.009    28.228     8.715
    37   6 C        2.976    -0.016    28.403     8.742
    38   6 C        3.871     0.010    20.365     6.417
    39   6 C        2.989    -0.000    28.026     8.684
    40   6 C        2.968    -0.005    28.140     8.701
    41   6 C        2.989    -0.018    28.456     8.750
    42   6 C        2.992    -0.004    28.108     8.697
    43   6 C        2.987     0.004    27.916     8.667
    44   6 C        2.997     0.001    27.996     8.680
    45   6 C        2.993     0.000    28.018     8.683
    46   6 C        2.990    -0.001    28.049     8.688
    47   6 C        3.006    -0.004    28.109     8.697
    48   6 C        2.982     0.002    27.974     8.676
    49   6 C        2.994     0.002    27.964     8.675
    50   6 C        2.992     0.000    28.013     8.682
    51   6 C        2.986    -0.003    28.102     8.696
    52   6 C        2.993     0.001    28.002     8.680
    53   6 C        2.990    -0.001    28.045     8.687
    54   6 C        2.987    -0.001    28.051     8.688
    55   6 C        2.986     0.000    28.011     8.682
    56   6 C        2.987     0.001    28.001     8.680
    57   6 C        2.995    -0.001    28.050     8.688
    58   6 C        3.034    -0.001    28.012     8.681
    59   6 C        2.981    -0.004    28.118     8.698
    60   6 C        2.989     0.003    27.944     8.671
    61   6 C        2.981    -0.020    28.491     8.756
    62   6 C        3.022     0.003    27.938     8.670
    63   6 C        2.918    -0.035    28.872     8.811
    64   6 C        2.924    -0.042    29.052     8.839
    65   6 C        3.009    -0.008    28.193     8.710
    66   6 C        2.923    -0.044    29.104     8.847
    67   6 C        2.921    -0.040    28.998     8.831
    68   6 C        3.012    -0.011    28.276     8.723
    69   6 C        2.991    -0.012    28.309     8.728
    70   6 C        2.978    -0.006    28.160     8.705
    71   6 C        2.984    -0.010    28.271     8.722
    72   6 C        3.053    -0.019    28.428     8.744
    73   6 C        2.986    -0.009    28.246     8.718
    74   6 C        2.998    -0.006    28.161     8.705
    75   6 C        2.988    -0.000    28.021     8.683
    76   6 C        2.987    -0.008    28.207     8.712
    77   6 C        2.991    -0.001    28.043     8.687
    78   6 C        2.989     0.000    28.010     8.682
    79   6 C        2.989     0.001    28.000     8.680
    80   6 C        2.991    -0.004    28.119     8.698
    81   6 C        2.992    -0.001    28.035     8.685
    82   6 C        2.991    -0.001    28.039     8.686
    83   6 C        2.992    -0.000    28.020     8.683
    84   6 C        2.992    -0.000    28.025     8.684
    85   6 C        2.996    -0.001    28.031     8.685
    86   6 C        2.991    -0.000    28.026     8.684
    87   6 C        2.991    -0.003    28.079     8.692
    88   6 C        2.990     0.004    27.928     8.669
    89   6 C        2.977    -0.017    28.428     8.746
    90   6 C        3.025    -0.002    28.044     8.687
    91   6 C        2.979    -0.019    28.487     8.755
    92   6 C        3.022    -0.003    28.084     8.693
    93   6 C        2.955    -0.036    28.888     8.816
    94   6 C        2.983    -0.022    28.551     8.765
    95   6 C        3.101    -0.002    27.960     8.665
    96   6 C        2.972    -0.037    28.916     8.821
    97   6 C        2.915    -0.081    30.032     8.986
    98   6 C        2.954    -0.030    28.743     8.793
    99   6 C        2.982    -0.042    29.045     8.840
   100   6 C        2.910    -0.070    29.734     8.941
   101   6 C        3.024     0.001    27.973     8.676
   102   6 C        3.867     0.010    20.363     6.417
   103   6 C        2.976    -0.022    28.551     8.765
   104   6 C        3.018    -0.012    28.281     8.723
   105   6 C        2.986     0.001    28.009     8.681
   106   6 C        3.049    -0.024    28.561     8.765
   107   6 C        2.980    -0.014    28.345     8.733
   108   6 C        2.986    -0.001    28.036     8.686
   109   6 C        2.991     0.000    28.010     8.682
   110   6 C        2.994    -0.003    28.092     8.694
   111   6 C        2.987    -0.001    28.037     8.686
   112   6 C        2.989    -0.002    28.057     8.689
   113   6 C        2.992    -0.002    28.073     8.691
   114   6 C        2.992    -0.000    28.027     8.684
   115   6 C        2.988    -0.001    28.055     8.689
   116   6 C        2.989    -0.000    28.025     8.684
   117   6 C        2.991    -0.006    28.158     8.704
   118   6 C        2.991    -0.001    28.054     8.688
   119   6 C        2.989    -0.000    28.022     8.683
   120   6 C        2.987    -0.001    28.049     8.688
   121   6 C        2.998    -0.006    28.165     8.706
   122   6 C        2.990     0.002    27.984     8.677
   123   6 C        2.988    -0.001    28.041     8.686
   124   6 C        2.985    -0.002    28.079     8.692
   125   6 C        2.974     0.024    27.467     8.597
   126   6 C        2.998     0.003    27.956     8.673
   127   6 C        2.976     0.001    28.002     8.680
   128   6 C        3.002     0.004    27.912     8.666
   129   6 C        2.904    -0.014    28.362     8.732
   130   6 C        2.985     0.005    27.902     8.665
   131   6 C        2.922    -0.041    29.019     8.834
   132   6 C        2.914    -0.029    28.735     8.790
   133   6 C        2.923    -0.040    28.991     8.830
   134   6 C        2.993    -0.003    28.084     8.693
   135   6 C        2.991    -0.004    28.117     8.698
   136   6 C        2.987     0.013    27.705     8.634
   137   6 C        3.038    -0.059    29.415     8.896
   138   6 C        2.970    -0.001    28.046     8.687
   139   6 C        2.997    -0.003    28.092     8.694
   140   6 C        2.965     0.045    26.995     8.522
   141   6 C        2.990     0.001    27.998     8.680
   142   6 C        2.999    -0.005    28.129     8.700
   143   6 C        2.968     0.046    26.965     8.518
   144   6 C        3.041    -0.055    29.320     8.881
   145   6 C        2.991     0.002    27.980     8.677
   146   6 C        2.993    -0.006    28.172     8.707
   147   6 C        2.989     0.013    27.726     8.637
   148   6 C        3.027    -0.054    29.312     8.881
   149   6 C        2.974     0.003    27.955     8.673
   150   6 C        3.001    -0.004    28.104     8.696
   151   6 C        2.966     0.045    26.977     8.519
   152   6 C        2.990     0.000    28.011     8.682
   153   6 C        3.005    -0.002    28.049     8.688
   154   6 C        2.967     0.046    26.975     8.519
   155   6 C        3.019    -0.054    29.322     8.882
   156   6 C        2.987     0.004    27.930     8.669
   157   6 C        2.998     0.001    27.998     8.680
   158   6 C        2.989     0.013    27.709     8.635
   159   6 C        2.921    -0.037    28.926     8.820
   160   6 C        2.923    -0.042    29.042     8.838
   161   6 C        2.915    -0.028    28.705     8.786
   162   1 H        0.926     0.043     2.411     2.428
   163   1 H        0.926     0.038     2.479     2.462
   164   1 H        0.926     0.040     2.442     2.444
   165   1 H        0.926     0.043     2.410     2.428
   166   1 H        0.925     0.046     2.375     2.410
   167   1 H        0.926     0.047     2.359     2.402
   168   1 H        0.926     0.042     2.418     2.431
   169   1 H        0.926     0.033     2.549     2.497
   170   1 H        0.926     0.032     2.551     2.498
   171   1 H        0.926     0.045     2.377     2.411
   172   1 H        0.926     0.031     2.572     2.508
   173   1 H        0.926     0.031     2.578     2.511
   174   1 H        0.926     0.041     2.432     2.439
   175   1 H        0.926     0.032     2.565     2.504
   176   1 H        0.926     0.034     2.534     2.489
   177   1 H        0.926     0.031     2.571     2.507
   178   1 H        0.926     0.034     2.537     2.491
   179   1 H        0.926     0.039     2.456     2.451
   180   1 H        0.926     0.042     2.420     2.433
   181   1 H        0.926     0.042     2.417     2.431
   182   1 H        0.926     0.043     2.411     2.428
   183   1 H        0.926     0.037     2.495     2.470
   184   1 H        0.926     0.034     2.531     2.488
   185   1 H        0.926     0.030     2.579     2.511
   186   1 H        0.926     0.033     2.544     2.494
   187   1 H        0.926     0.034     2.526     2.485
   188   1 H        0.926     0.030     2.589     2.516
   189   1 H        0.926     0.041     2.430     2.437
   190   1 H        0.926     0.034     2.530     2.487
   191   1 H        0.927     0.058     2.226     2.333
   192   1 H        0.926     0.030     2.585     2.514
   193  16 S        2.109    -0.030   142.275    20.076
   194  16 S        3.266     0.194   133.393    19.439
   195  16 S        2.216    -0.119   146.030    20.339
   196  16 S        2.320    -0.147   147.248    20.423
   197  16 S        2.214    -0.114   145.821    20.324
   198  16 S        2.243    -0.111   145.685    20.315
   199  16 S        3.308     0.194   133.403    19.439
   200  16 S        3.200     0.191   133.494    19.446
   201  16 S        2.217    -0.106   145.500    20.302
   202   1 H        0.926     0.039     2.466     2.456
   203   1 H        0.924     0.062     2.181     2.310
   204   1 H        0.924     0.065     2.140     2.288

 Mol. C6AA /au·bohr⁶  :    1027440.952482
 Mol. C8AA /au·bohr⁸  :   30504911.798676
 Mol. α(0) /au        :       1661.663242


Wiberg/Mayer (AO) data.
largest (>0.10) Wiberg bond orders for each atom

 ---------------------------------------------------------------------------
     #   Z sym  total        # sym  WBO       # sym  WBO       # sym  WBO
 ---------------------------------------------------------------------------
     1   6 C    3.976 --     5 C    1.427     2 C    1.392   162 H    0.966
     2   6 C    3.974 --     3 C    1.479     1 C    1.392   163 H    0.969
     3   6 C    3.979 --     2 C    1.479     4 C    1.336   164 H    0.960
     4   6 C    3.972 --     3 C    1.336     6 C    1.276    32 C    1.139
     5   6 C    3.951 --     1 C    1.427     6 C    1.293   201 S    1.054
     6   6 C    3.980 --     5 C    1.293     4 C    1.276     7 C    1.184
     7   6 C    3.942 --    36 C    1.310    10 C    1.196     6 C    1.184
     8   6 C    3.955 --    13 C    1.414     9 C    1.366   165 H    0.963
     9   6 C    3.895 --     8 C    1.366    10 C    1.313   201 S    1.055
    10   6 C    3.970 --     9 C    1.313    11 C    1.228     7 C    1.196
    11   6 C    3.956 --    14 C    1.259    39 C    1.244    10 C    1.228
    12   6 C    3.957 --    17 C    1.642    13 C    1.130   166 H    0.949
    13   6 C    3.926 --     8 C    1.414    14 C    1.213    12 C    1.130
    14   6 C    3.972 --    15 C    1.282    11 C    1.259    13 C    1.213
    15   6 C    3.911 --    43 C    1.400    14 C    1.282   202 H    0.958
    16   6 C    3.960 --    19 C    1.623    17 C    1.152   167 H    0.952
    17   6 C    3.926 --    12 C    1.642    16 C    1.152   196 S    0.984
    18   6 C    3.910 --    20 C    1.435    47 C    1.236   196 S    1.005
    19   6 C    3.928 --    16 C    1.623    20 C    1.102   195 S    1.057
    20   6 C    3.957 --    18 C    1.435    21 C    1.212    19 C    1.102
    21   6 C    3.953 --    51 C    1.268    24 C    1.241    20 C    1.212
    22   6 C    3.939 --    23 C    1.526    27 C    1.241   168 H    0.964
    23   6 C    3.955 --    22 C    1.526    24 C    1.215   195 S    1.041
    24   6 C    3.943 --    25 C    1.268    21 C    1.241    23 C    1.215
    25   6 C    3.972 --    24 C    1.268    55 C    1.240    28 C    1.235
    26   6 C    3.930 --    30 C    1.468    27 C    1.317   169 H    0.969
    27   6 C    3.983 --    26 C    1.317    28 C    1.250    22 C    1.241
    28   6 C    3.976 --    29 C    1.259    27 C    1.250    25 C    1.235
    29   6 C    3.977 --    31 C    1.372    28 C    1.259    59 C    1.153
    30   6 C    3.981 --    26 C    1.468    31 C    1.417   185 H    0.970
    31   6 C    3.929 --    30 C    1.417    29 C    1.372   186 H    0.962
    32   6 C    3.965 --    37 C    1.323    33 C    1.286     4 C    1.139
    33   6 C    3.876 --    34 C    1.430    32 C    1.286   170 H    0.960
    34   6 C    3.959 --    33 C    1.430    35 C    1.403   171 H    0.949
    35   6 C    3.814 --    34 C    1.403    65 C    1.214   200 S    0.954
    36   6 C    3.973 --     7 C    1.310    37 C    1.288    40 C    1.134
    37   6 C    3.867 --    32 C    1.323    36 C    1.288   200 S    0.975
    38   6 C    3.945 --    69 C    0.990    41 C    0.988   204 H    0.921
                           200 S    0.920
    39   6 C    3.976 --    44 C    1.272    11 C    1.244    40 C    1.218
    40   6 C    3.963 --    41 C    1.402    39 C    1.218    36 C    1.134
    41   6 C    3.918 --    40 C    1.402    42 C    1.277    38 C    0.988
    42   6 C    3.959 --    41 C    1.277    45 C    1.256    73 C    1.209
    43   6 C    3.973 --    15 C    1.400    44 C    1.216    48 C    1.155
    44   6 C    3.976 --    39 C    1.272    45 C    1.255    43 C    1.216
    45   6 C    3.962 --    42 C    1.256    44 C    1.255    46 C    1.231
    46   6 C    3.953 --    77 C    1.291    45 C    1.231    49 C    1.211
    47   6 C    3.955 --    52 C    1.251    18 C    1.236    48 C    1.229
    48   6 C    3.916 --    49 C    1.312    47 C    1.229    43 C    1.155
    49   6 C    3.968 --    48 C    1.312    50 C    1.229    46 C    1.211
    50   6 C    3.958 --    53 C    1.273    81 C    1.238    49 C    1.229
    51   6 C    3.972 --    21 C    1.268    52 C    1.244    56 C    1.231
    52   6 C    3.964 --    47 C    1.251    51 C    1.244    53 C    1.241
    53   6 C    3.963 --    50 C    1.273    52 C    1.241    54 C    1.224
    54   6 C    3.967 --    57 C    1.272    85 C    1.253    53 C    1.224
    55   6 C    3.950 --    56 C    1.292    25 C    1.240    60 C    1.199
    56   6 C    3.967 --    55 C    1.292    51 C    1.231    57 C    1.220
    57   6 C    3.948 --    54 C    1.272    58 C    1.233    56 C    1.220
    58   6 C    3.960 --    89 C    1.318    57 C    1.233    61 C    1.190
    59   6 C    3.934 --    63 C    1.310    60 C    1.276    29 C    1.153
    60   6 C    3.981 --    61 C    1.281    59 C    1.276    55 C    1.199
    61   6 C    3.962 --    60 C    1.281    62 C    1.228    58 C    1.190
    62   6 C    3.958 --    64 C    1.277    93 C    1.246    61 C    1.228
    63   6 C    3.966 --    64 C    1.527    59 C    1.310   187 H    0.959
    64   6 C    3.953 --    63 C    1.527    62 C    1.277   188 H    0.962
    65   6 C    3.932 --    66 C    1.321    35 C    1.214    70 C    1.185
    66   6 C    3.947 --    67 C    1.476    65 C    1.321   172 H    0.964
    67   6 C    3.945 --    66 C    1.476    68 C    1.321   173 H    0.962
    68   6 C    3.930 --    67 C    1.321    98 C    1.220    71 C    1.183
    69   6 C    3.958 --    70 C    1.352    74 C    1.339    38 C    0.990
    70   6 C    3.967 --    69 C    1.352    71 C    1.209    65 C    1.185
    71   6 C    3.961 --    72 C    1.334    70 C    1.209    68 C    1.183
    72   6 C    3.949 --    75 C    1.353    71 C    1.334   102 C    1.013
    73   6 C    3.945 --    78 C    1.325    42 C    1.209    74 C    1.184
    74   6 C    3.965 --    69 C    1.339    75 C    1.222    73 C    1.184
    75   6 C    3.968 --    72 C    1.353    74 C    1.222    76 C    1.181
    76   6 C    3.930 --    79 C    1.337   105 C    1.189    75 C    1.181
    77   6 C    3.950 --    46 C    1.291    78 C    1.229    82 C    1.222
    78   6 C    3.964 --    73 C    1.325    77 C    1.229    79 C    1.191
    79   6 C    3.962 --    76 C    1.337    80 C    1.221    78 C    1.191
    80   6 C    3.942 --    83 C    1.257   109 C    1.255    79 C    1.221
    81   6 C    3.954 --    82 C    1.270    50 C    1.238    86 C    1.234
    82   6 C    3.945 --    81 C    1.270    83 C    1.245    77 C    1.222
    83   6 C    3.947 --    80 C    1.257    82 C    1.245    84 C    1.241
    84   6 C    3.957 --    87 C    1.260   113 C    1.243    83 C    1.241
    85   6 C    3.958 --    54 C    1.253    86 C    1.252    90 C    1.224
    86   6 C    3.959 --    87 C    1.256    85 C    1.252    81 C    1.234
    87   6 C    3.951 --    84 C    1.260    86 C    1.256    88 C    1.220
    88   6 C    3.969 --    91 C    1.307   117 C    1.224    87 C    1.220
    89   6 C    3.879 --    90 C    1.320    58 C    1.318   194 S    0.968
    90   6 C    3.961 --    89 C    1.320    85 C    1.224    91 C    1.201
    91   6 C    3.930 --    88 C    1.307    90 C    1.201    92 C    1.180
    92   6 C    3.973 --    94 C    1.346   121 C    1.225    91 C    1.180
    93   6 C    3.825 --    96 C    1.359    62 C    1.246   194 S    0.953
    94   6 C    3.877 --    92 C    1.346    95 C    1.270   194 S    0.967
    95   6 C    3.965 --    94 C    1.270   125 C    1.269    97 C    1.226
    96   6 C    3.968 --    97 C    1.487    93 C    1.359   189 H    0.947
    97   6 C    3.907 --    96 C    1.487    95 C    1.226   190 H    0.954
    98   6 C    3.798 --    99 C    1.413    68 C    1.220   199 S    0.950
    99   6 C    3.947 --   100 C    1.416    98 C    1.413   174 H    0.949
   100   6 C    3.858 --    99 C    1.416   101 C    1.292   175 H    0.962
   101   6 C    3.946 --   103 C    1.333   100 C    1.292   130 C    1.126
   102   6 C    3.938 --    72 C    1.013   106 C    1.012   203 H    0.933
                           199 S    0.884
   103   6 C    3.844 --   101 C    1.333   104 C    1.311   199 S    0.950
   104   6 C    3.935 --   103 C    1.311   134 C    1.223   107 C    1.181
   105   6 C    3.960 --   106 C    1.346   110 C    1.222    76 C    1.189
   106   6 C    3.898 --   105 C    1.346   107 C    1.318   102 C    1.012
   107   6 C    3.950 --   106 C    1.318   108 C    1.231   104 C    1.181
   108   6 C    3.966 --   138 C    1.269   111 C    1.244   107 C    1.231
   109   6 C    3.960 --    80 C    1.255   110 C    1.254   114 C    1.236
   110   6 C    3.956 --   111 C    1.262   109 C    1.254   105 C    1.222
   111   6 C    3.972 --   110 C    1.262   108 C    1.244   112 C    1.241
   112   6 C    3.952 --   115 C    1.261   111 C    1.241   141 C    1.237
   113   6 C    3.953 --   114 C    1.261    84 C    1.243   118 C    1.236
   114   6 C    3.959 --   113 C    1.261   115 C    1.248   109 C    1.236
   115   6 C    3.956 --   112 C    1.261   114 C    1.248   116 C    1.231
   116   6 C    3.961 --   119 C    1.268   145 C    1.243   115 C    1.231
   117   6 C    3.937 --   118 C    1.267   122 C    1.237    88 C    1.224
   118   6 C    3.958 --   117 C    1.267   119 C    1.241   113 C    1.236
   119   6 C    3.960 --   116 C    1.268   118 C    1.241   120 C    1.234
   120   6 C    3.967 --   149 C    1.272   123 C    1.239   119 C    1.234
   121   6 C    3.957 --   122 C    1.255    92 C    1.225   126 C    1.224
   122   6 C    3.974 --   121 C    1.255   123 C    1.252   117 C    1.237
   123   6 C    3.942 --   122 C    1.252   124 C    1.243   120 C    1.239
   124   6 C    3.975 --   127 C    1.318   123 C    1.243   152 C    1.184
   125   6 C    3.858 --   126 C    1.317    95 C    1.269   193 S    1.062
   126   6 C    3.978 --   125 C    1.317   121 C    1.224   127 C    1.221
   127   6 C    3.900 --   124 C    1.318   126 C    1.221   128 C    1.155
   128   6 C    3.971 --   129 C    1.562   127 C    1.155   156 C    1.089
   129   6 C    3.869 --   128 C    1.562   193 S    1.161   191 H    0.952
   130   6 C    3.979 --   131 C    1.381   135 C    1.263   101 C    1.126
   131   6 C    3.935 --   132 C    1.411   130 C    1.381   176 H    0.962
   132   6 C    3.981 --   133 C    1.474   131 C    1.411   177 H    0.970
   133   6 C    3.943 --   132 C    1.474   136 C    1.315   178 H    0.969
   134   6 C    3.967 --   139 C    1.265   135 C    1.235   104 C    1.223
   135   6 C    3.981 --   130 C    1.263   136 C    1.249   134 C    1.235
   136   6 C    3.984 --   133 C    1.315   135 C    1.249   137 C    1.245
   137   6 C    3.946 --   140 C    1.516   136 C    1.245   179 H    0.963
   138   6 C    3.927 --   108 C    1.269   139 C    1.237   142 C    1.211
   139   6 C    3.928 --   134 C    1.265   138 C    1.237   140 C    1.219
   140   6 C    3.955 --   137 C    1.516   139 C    1.219   198 S    1.053
   141   6 C    3.969 --   142 C    1.259   146 C    1.247   112 C    1.237
   142   6 C    3.941 --   141 C    1.259   143 C    1.254   138 C    1.211
   143   6 C    3.937 --   144 C    1.464   142 C    1.254   198 S    1.059
   144   6 C    3.944 --   143 C    1.464   147 C    1.294   180 H    0.963
   145   6 C    3.969 --   146 C    1.251   150 C    1.249   116 C    1.243
   146   6 C    3.974 --   145 C    1.251   141 C    1.247   147 C    1.242
   147   6 C    3.966 --   144 C    1.294   148 C    1.260   146 C    1.242
   148   6 C    3.951 --   151 C    1.505   147 C    1.260   181 H    0.964
   149   6 C    3.929 --   120 C    1.272   150 C    1.250   153 C    1.199
   150   6 C    3.941 --   149 C    1.250   145 C    1.249   151 C    1.227
   151   6 C    3.939 --   148 C    1.505   150 C    1.227   197 S    1.048
   152   6 C    3.961 --   153 C    1.317   157 C    1.233   124 C    1.184
   153   6 C    3.950 --   152 C    1.317   154 C    1.218   149 C    1.199
   154   6 C    3.956 --   155 C    1.516   153 C    1.218   197 S    1.053
   155   6 C    3.960 --   154 C    1.516   158 C    1.254   182 H    0.964
   156   6 C    3.980 --   160 C    1.419   157 C    1.265   128 C    1.089
   157   6 C    3.983 --   156 C    1.265   158 C    1.248   152 C    1.233
   158   6 C    3.980 --   159 C    1.302   155 C    1.254   157 C    1.248
   159   6 C    3.967 --   161 C    1.499   158 C    1.302   183 H    0.968
   160   6 C    3.966 --   156 C    1.419   161 C    1.384   192 H    0.963
   161   6 C    3.980 --   159 C    1.499   160 C    1.384   184 H    0.970
   162   1 H    0.997 --     1 C    0.966
   163   1 H    0.997 --     2 C    0.969
   164   1 H    0.997 --     3 C    0.960
   165   1 H    0.996 --     8 C    0.963
   166   1 H    0.995 --    12 C    0.949
   167   1 H    0.996 --    16 C    0.952
   168   1 H    0.997 --    22 C    0.964
   169   1 H    0.998 --    26 C    0.969
   170   1 H    0.998 --    33 C    0.960
   171   1 H    0.996 --    34 C    0.949
   172   1 H    0.997 --    66 C    0.964
   173   1 H    0.997 --    67 C    0.962
   174   1 H    0.996 --    99 C    0.949
   175   1 H    0.998 --   100 C    0.962
   176   1 H    0.998 --   131 C    0.962
   177   1 H    0.997 --   132 C    0.970
   178   1 H    0.998 --   133 C    0.969
   179   1 H    0.997 --   137 C    0.963
   180   1 H    0.997 --   144 C    0.963
   181   1 H    0.997 --   148 C    0.964
   182   1 H    0.997 --   155 C    0.964
   183   1 H    0.998 --   159 C    0.968
   184   1 H    0.998 --   161 C    0.970
   185   1 H    0.998 --    30 C    0.970
   186   1 H    0.998 --    31 C    0.962
   187   1 H    0.997 --    63 C    0.959
   188   1 H    0.998 --    64 C    0.962
   189   1 H    0.995 --    96 C    0.947
   190   1 H    0.998 --    97 C    0.954
   191   1 H    0.995 --   129 C    0.952
   192   1 H    0.999 --   160 C    0.963
   193  16 S    2.506 --   129 C    1.161   125 C    1.062
   194  16 S    3.174 --    89 C    0.968    94 C    0.967    93 C    0.953
   195  16 S    2.411 --    19 C    1.057    23 C    1.041
   196  16 S    2.346 --    18 C    1.005    17 C    0.984
   197  16 S    2.401 --   154 C    1.053   151 C    1.048
   198  16 S    2.421 --   143 C    1.059   140 C    1.053
   199  16 S    3.077 --   103 C    0.950    98 C    0.950   102 C    0.884
   200  16 S    3.136 --    37 C    0.975    35 C    0.954    38 C    0.920
   201  16 S    2.405 --     9 C    1.055     5 C    1.054
   202   1 H    0.997 --    15 C    0.958
   203   1 H    0.990 --   102 C    0.933
   204   1 H    0.987 --    38 C    0.921
 ---------------------------------------------------------------------------

Topologies differ in total number of bonds
Writing topology from bond orders to xtbtopo.mol

molecular dipole:
                 x           y           z       tot (Debye)
 q only:       -0.001      -0.808       1.101
   full:        0.001      -0.957       1.565       4.662
molecular quadrupole (traceless):
                xx          xy          yy          xz          yz          zz
 q only:      -64.465      38.059      68.176     -12.368      -3.438      -3.711
  q+dip:      -54.132      33.741     107.627      -6.473       9.725     -53.495
   full:      -78.125      36.167      84.678      -8.289       6.181      -6.553


           -------------------------------------------------
          | TOTAL ENERGY             -392.276161376674 Eh   |
          | GRADIENT NORM               0.000452186348 Eh/α |
          | HOMO-LUMO GAP               0.142890453067 eV   |
           -------------------------------------------------

------------------------------------------------------------------------
 * finished run on 2025/12/08 at 00:55:54.902     
------------------------------------------------------------------------
 total:
 * wall-time:     0 d,  0 h,  0 min,  0.709 sec
 *  cpu-time:     0 d,  0 h,  0 min, 10.484 sec
 * ratio c/w:    14.788 speedup
 SCF:
 * wall-time:     0 d,  0 h,  0 min,  0.594 sec
 *  cpu-time:     0 d,  0 h,  0 min,  8.922 sec
 * ratio c/w:    15.020 speedup

normal termination of xtb
