      -----------------------------------------------------------      
     |                   =====================                   |     
     |                           x T B                           |     
     |                   =====================                   |     
     |                         S. Grimme                         |     
     |          Mulliken Center for Theoretical Chemistry        |     
     |                    University of Bonn                     |     
      -----------------------------------------------------------      

   * xtb version 6.7.1pre (5071a88) compiled by 'Marcel@Raven' on 2024-07-23

   xtb is free software: you can redistribute it and/or modify it under
   the terms of the GNU Lesser General Public License as published by
   the Free Software Foundation, either version 3 of the License, or
   (at your option) any later version.
   
   xtb is distributed in the hope that it will be useful,
   but WITHOUT ANY WARRANTY; without even the implied warranty of
   MERCHANTABILITY or FITNESS FOR A PARTICULAR PURPOSE.  See the
   GNU Lesser General Public License for more details.
   
   Cite this work as:
   * C. Bannwarth, E. Caldeweyher, S. Ehlert, A. Hansen, P. Pracht,
     J. Seibert, S. Spicher, S. Grimme, WIREs Comput. Mol. Sci., 2020, 11,
     e01493. DOI: 10.1002/wcms.1493
   
   for GFN2-xTB:
   * C. Bannwarth, S. Ehlert and S. Grimme., J. Chem. Theory Comput., 2019,
     15, 1652-1671. DOI: 10.1021/acs.jctc.8b01176
   for GFN1-xTB:
   * S. Grimme, C. Bannwarth, P. Shushkov, J. Chem. Theory Comput., 2017,
     13, 1989-2009. DOI: 10.1021/acs.jctc.7b00118
   for GFN0-xTB:
   * P. Pracht, E. Caldeweyher, S. Ehlert, S. Grimme, ChemRxiv, 2019, preprint.
     DOI: 10.26434/chemrxiv.8326202.v1
   for GFN-FF:
   * S. Spicher and S. Grimme, Angew. Chem. Int. Ed., 2020, 59, 15665-15673.
     DOI: 10.1002/anie.202004239
   
   for ALPB and GBSA implicit solvation:
   * S. Ehlert, M. Stahn, S. Spicher, S. Grimme, J. Chem. Theory Comput.,
     2021, 17, 4250-4261. DOI: 10.1021/acs.jctc.1c00471
   
   for ddCOSMO and CPCM-X implicit solvation:
   * M. Stahn, S. Ehlert, S. Grimme, J. Phys. Chem. A,
     2023, XX, XXXX-XXXX. DOI: 10.1021/acs.jpca.3c04382
   
   for DFT-D4:
   * E. Caldeweyher, C. Bannwarth and S. Grimme, J. Chem. Phys., 2017,
     147, 034112. DOI: 10.1063/1.4993215
   * E. Caldeweyher, S. Ehlert, A. Hansen, H. Neugebauer, S. Spicher,
     C. Bannwarth and S. Grimme, J. Chem. Phys., 2019, 150, 154122.
     DOI: 10.1063/1.5090222
   * E. Caldeweyher, J.-M. Mewes, S. Ehlert and S. Grimme, Phys. Chem. Chem. Phys.
     2020, 22, 8499-8512. DOI: 10.1039/D0CP00502A
   
   for sTDA-xTB:
   * S. Grimme and C. Bannwarth, J. Chem. Phys., 2016, 145, 054103.
     DOI: 10.1063/1.4959605
   
   in the mass-spec context:
   * V. Asgeirsson, C. Bauer and S. Grimme, Chem. Sci., 2017, 8, 4879.
     DOI: 10.1039/c7sc00601b
   * J. Koopman and S. Grimme, ACS Omega 2019, 4, 12, 15120-15133.
     DOI: 10.1021/acsomega.9b02011
   
   for metadynamics refer to:
   * S. Grimme, J. Chem. Theory Comput., 2019, 155, 2847-2862
     DOI: 10.1021/acs.jctc.9b00143
   
   for SPH calculations refer to:
   * S. Spicher and S. Grimme, J. Chem. Theory Comput., 2021, 17, 1701-1714
     DOI: 10.1021/acs.jctc.0c01306
   
   for ONIOM refer to:
   * C. Plett, A. Katbashev, S. Ehlert, S. Grimme, M. Bursch,
     Phys. Chem. Chem. Phys., 2023, 25, 17860-17868. DOI: 10.1039/D3CP02178E
   
   for DIPRO refer to:
   * J. Kohn, N. Gildemeister, S. Grimme, D. Fazzi, A. Hansen,
     J. Chem. Phys., 2023, just accepted.
   
   for PTB refer to:
   * S. Grimme, M. Mueller, A. Hansen, J. Chem. Phys., 2023, 158, 124111.
     DOI: 10.1063/5.0137838
   
   with help from (in alphabetical order)
   P. Atkinson, C. Bannwarth, F. Bohle, G. Brandenburg, E. Caldeweyher
   M. Checinski, S. Dohm, S. Ehlert, S. Ehrlich, I. Gerasimov, C. Hölzer
   A. Katbashev, J. Kohn, J. Koopman, C. Lavigne, S. Lehtola, F. März, M. Müller,
   F. Musil, H. Neugebauer, J. Pisarek, C. Plett, P. Pracht, F. Pultar,
   J. Seibert, P. Shushkov, S. Spicher, M. Stahn, M. Steiner, T. Strunk,
   J. Stückrath, T. Rose, and J. Unsleber
   
 * started run on 2025/12/08 at 00:54:10.393     
   ID    Z sym.   atoms
    1    6 C      1-161
    2    1 H      162-192, 202-204
    3   16 S      193-201

           -------------------------------------------------
          |                Calculation Setup                |
           -------------------------------------------------

          program call               : xtb "C:\Users\LENOVO GAMING\Documents\GitHub\molecular-conductivity-sim\dataset\2nm-9Sdoped-5percent.xyz" --opt --parallel 4
          coordinate file            : C:\Users\LENOVO GAMING\Documents\GitHub\molecular-conductivity-sim\dataset\2nm-9Sdoped-5percent.xyz
          omp threads                :                     4


           -------------------------------------------------
          |                 G F N 2 - x T B                 |
           -------------------------------------------------

        Reference                      10.1021/acs.jctc.8b01176
      * Hamiltonian:
        H0-scaling (s, p, d)           1.850000    2.230000    2.230000
        zeta-weighting                 0.500000
      * Dispersion:
        s8                             2.700000
        a1                             0.520000
        a2                             5.000000
        s9                             5.000000
      * Repulsion:
        kExp                           1.500000    1.000000
        rExp                           1.000000
      * Coulomb:
        alpha                          2.000000
        third order                    shell-resolved
        anisotropic                    true
        a3                             3.000000
        a5                             4.000000
        cn-shift                       1.200000
        cn-exp                         4.000000
        max-rad                        5.000000


          ...................................................
          :                      SETUP                      :
          :.................................................:
          :  # basis functions                 768          :
          :  # atomic orbitals                 759          :
          :  # shells                          383          :
          :  # electrons                       732          :
          :  max. iterations                   250          :
          :  Hamiltonian                  GFN2-xTB          :
          :  restarted?                      false          :
          :  GBSA solvation                  false          :
          :  PC potential                    false          :
          :  electronic temp.          300.0000000     K    :
          :  accuracy                    1.0000000          :
          :  -> integral cutoff          0.2500000E+02      :
          :  -> integral neglect         0.1000000E-07      :
          :  -> SCF convergence          0.1000000E-05 Eh   :
          :  -> wf. convergence          0.1000000E-03 e    :
          :  Broyden damping             0.4000000          :
          :  net charge                          0          :
          :  unpaired electrons                  0          :
          ...................................................

 iter      E             dE          RMSdq      gap      omega  full diag
   1   -398.7256983 -0.398726E+03  0.493E+00    0.17       0.0  T
   2   -398.3125784  0.413120E+00  0.303E+00    0.05       1.0  T
   3   -310.3835307  0.879290E+02  0.655E+00    0.07       1.0  T
   4   -342.7322601 -0.323487E+02  0.550E+00    0.08       1.0  T
   5   -395.5618992 -0.528296E+02  0.187E+00    0.01       1.0  T
   6   -397.0826125 -0.152071E+01  0.123E+00    0.22       1.0  T
   7   -397.7147852 -0.632173E+00  0.921E-01    0.19       1.0  T
   8   -398.6743280 -0.959543E+00  0.743E-01    0.37       1.0  T
   9   -398.7917358 -0.117408E+00  0.562E-01    0.27       1.0  T
  10   -398.8146856 -0.229498E-01  0.495E-01    0.30       1.0  T
  11   -398.8874293 -0.727437E-01  0.366E-01    0.24       1.0  T
  12   -398.9023922 -0.149629E-01  0.291E-01    0.18       1.0  T
  13   -398.8823059  0.200863E-01  0.324E-01    0.17       1.0  T
  14   -398.8957453 -0.134394E-01  0.270E-01    0.17       1.0  T
  15   -398.8670843  0.286610E-01  0.253E-01    0.14       1.0  T
  16   -398.8904633 -0.233790E-01  0.136E-01    0.15       1.0  T
  17   -398.8936755 -0.321214E-02  0.116E-01    0.14       1.0  T
  18   -398.9085122 -0.148367E-01  0.729E-02    0.14       1.0  T
  19   -398.9124889 -0.397677E-02  0.555E-02    0.15       1.0  T
  20   -398.9140036 -0.151464E-02  0.424E-02    0.15       1.0  T
  21   -398.9158674 -0.186386E-02  0.229E-02    0.15       1.0  T
  22   -398.9160121 -0.144655E-03  0.121E-02    0.16       1.0  T
  23   -398.9161528 -0.140665E-03  0.678E-03    0.16       1.0  T
  24   -398.9161626 -0.978848E-05  0.338E-03    0.16       2.1  T
  25   -398.9161645 -0.197779E-05  0.149E-03    0.16       4.7  T
  26   -398.9161646 -0.883039E-07  0.934E-04    0.16       7.5  T
  27   -398.9161648 -0.198843E-06  0.479E-04    0.16      14.6  T

   *** convergence criteria satisfied after 27 iterations ***

         #    Occupation            Energy/Eh            Energy/eV
      -------------------------------------------------------------
         1        2.0000           -0.7742568             -21.0686
       ...           ...                  ...                  ...
       360        2.0000           -0.3565611              -9.7025
       361        2.0000           -0.3545856              -9.6488
       362        2.0000           -0.3498795              -9.5207
       363        2.0000           -0.3483926              -9.4802
       364        2.0000           -0.3339734              -9.0879
       365        1.9997           -0.3285351              -8.9399
       366        1.9114           -0.3231951              -8.7946 (HOMO)
       367        0.0889           -0.3173627              -8.6359 (LUMO)
       368        0.0001           -0.3104802              -8.4486
       369                         -0.3004835              -8.1766
       370                         -0.2936790              -7.9914
       371                         -0.2923434              -7.9551
       ...                                ...                  ...
       759                          0.7415788              20.1794
      -------------------------------------------------------------
                  HL-Gap            0.0058324 Eh            0.1587 eV
             Fermi-level           -0.3202774 Eh           -8.7152 eV

 SCC (total)                   0 d,  0 h,  0 min,  6.245 sec
 SCC setup                      ...        0 min,  0.003 sec (  0.048%)
 Dispersion                     ...        0 min,  0.012 sec (  0.192%)
 classical contributions        ...        0 min,  0.001 sec (  0.016%)
 integral evaluation            ...        0 min,  0.070 sec (  1.121%)
 iterations                     ...        0 min,  5.662 sec ( 90.665%)
 molecular gradient             ...        0 min,  0.478 sec (  7.654%)
 printout                       ...        0 min,  0.019 sec (  0.304%)

         :::::::::::::::::::::::::::::::::::::::::::::::::::::
         ::                     SUMMARY                     ::
         :::::::::::::::::::::::::::::::::::::::::::::::::::::
         :: total energy            -392.239843770634 Eh    ::
         :: gradient norm              0.063019191704 Eh/a0 ::
         :: HOMO-LUMO gap              0.158707395754 eV    ::
         ::.................................................::
         :: SCC energy              -398.929543805160 Eh    ::
         :: -> isotropic ES            0.019261882886 Eh    ::
         :: -> anisotropic ES          0.020024947305 Eh    ::
         :: -> anisotropic XC          0.143635606593 Eh    ::
         :: -> dispersion             -0.514220331496 Eh    ::
         :: repulsion energy           6.689700034525 Eh    ::
         :: add. restraining           0.000000000000 Eh    ::
         :: total charge               0.000000000262 e     ::
         :::::::::::::::::::::::::::::::::::::::::::::::::::::

      ----------------------------------------------------------- 
     |                   =====================                   |
     |                        A N C O P T                        |
     |                   =====================                   |
     |               Approximate Normal Coordinate               |
     |                Rational Function Optimizer                |
      ----------------------------------------------------------- 
      ----------------------------------------------------------- 
     |                   =====================                   |
     |                        A N C O P T                        |
     |                   =====================                   |
     |               Approximate Normal Coordinate               |
     |                Rational Function Optimizer                |
      ----------------------------------------------------------- 

          ...................................................
          :                      SETUP                      :
          :.................................................:
          :   optimization level            normal          :
          :   max. optcycles                   612          :
          :   ANC micro-cycles                  20          :
          :   degrees of freedom               606          :
          :.................................................:
          :   RF solver                   davidson          :
          :   write xtbopt.log                true          :
          :   linear?                        false          :
          :   energy convergence         0.5000000E-05 Eh   :
          :   grad. convergence          0.1000000E-02 Eh/α :
          :   maxmium RF displ.          1.0000000          :
          :   Hlow (freq-cutoff)         0.1000000E-01      :
          :   Hmax (freq-cutoff)         5.0000000          :
          :   S6 in model hess.         20.0000000          :
          ...................................................

generating ANC from exact Hessian ...
Using Lindh-Hessian (1995)
 Shifting diagonal of input Hessian by   9.912108751871707E-003
 Lowest  eigenvalues of input Hessian
    0.000000    0.000000    0.000000    0.000000    0.000000    0.000000
    0.010000    0.010040    0.010077    0.010182    0.010235    0.010580
    0.010602    0.010680    0.010839    0.010931    0.011623    0.011826
 Highest eigenvalues
    2.068476    2.081561    2.086921    2.096487    2.125696    2.139143
 

........................................................................
.............................. CYCLE    1 ..............................
........................................................................

 iter      E             dE          RMSdq      gap      omega  full diag
   1   -398.9161650 -0.398916E+03  0.276E-04    0.16       0.0  T
   2   -398.9161645  0.511657E-06  0.894E-04    0.16       7.8  T
   3   -398.9161648 -0.354759E-06  0.534E-04    0.16      13.1  T
     SCC iter.                  ...        0 min,  0.630 sec
     gradient                   ...        0 min,  0.462 sec
 * total energy  :  -392.2398438 Eh     change       -0.1534033E-08 Eh
   gradient norm :     0.0630306 Eh/α   predicted     0.0000000E+00 (-100.00%)
   displ. norm   :     0.5798609 α      lambda       -0.2433620E-01
   maximum displ.:     0.2539271 α      in ANC's #43, #48, #40, ...

........................................................................
.............................. CYCLE    2 ..............................
........................................................................

 iter      E             dE          RMSdq      gap      omega  full diag
   1   -399.1000855 -0.399100E+03  0.118E-01    0.15       0.0  T
   2   -399.0997732  0.312306E-03  0.767E-02    0.16       1.0  T
   3   -399.0793183  0.204550E-01  0.192E-01    0.15       1.0  T
   4   -399.0839949 -0.467664E-02  0.163E-01    0.18       1.0  T
   5   -399.0999899 -0.159949E-01  0.278E-02    0.16       1.0  T
   6   -399.1002605 -0.270636E-03  0.102E-02    0.15       1.0  T
   7   -399.1002402  0.202825E-04  0.993E-03    0.16       1.0  T
   8   -399.1002893 -0.490916E-04  0.321E-03    0.15       2.2  T
   9   -399.1002921 -0.275073E-05  0.152E-03    0.15       4.6  T
  10   -399.1002924 -0.327203E-06  0.691E-04    0.15      10.1  T
  11   -399.1002925 -0.881954E-07  0.408E-04    0.15      17.2  T
     SCC iter.                  ...        0 min,  2.311 sec
     gradient                   ...        0 min,  0.482 sec
 * total energy  :  -392.2585232 Eh     change       -0.1867947E-01 Eh
   gradient norm :     0.0318600 Eh/α   predicted    -0.1626005E-01 ( -12.95%)
   displ. norm   :     0.6563642 α      lambda       -0.1431739E-01
   maximum displ.:     0.3121715 α      in ANC's #43, #48, #37, ...

........................................................................
.............................. CYCLE    3 ..............................
........................................................................

 iter      E             dE          RMSdq      gap      omega  full diag
   1   -399.2675669 -0.399268E+03  0.101E-01    0.14       0.0  T
   2   -399.2670322  0.534626E-03  0.670E-02    0.16       1.0  T
   3   -399.2317531  0.352792E-01  0.243E-01    0.16       1.0  T
   4   -399.2614817 -0.297286E-01  0.104E-01    0.15       1.0  T
   5   -399.2673771 -0.589547E-02  0.272E-02    0.16       1.0  T
   6   -399.2676769 -0.299795E-03  0.681E-03    0.15       1.0  T
   7   -399.2676690  0.791567E-05  0.664E-03    0.15       1.1  T
   8   -399.2676860 -0.170254E-04  0.233E-03    0.15       3.0  T
   9   -399.2676869 -0.876108E-06  0.131E-03    0.15       5.3  T
  10   -399.2676874 -0.465086E-06  0.599E-04    0.15      11.7  T
  11   -399.2676874 -0.605434E-07  0.365E-04    0.15      19.2  T
     SCC iter.                  ...        0 min,  2.251 sec
     gradient                   ...        0 min,  0.476 sec
 * total energy  :  -392.2689212 Eh     change       -0.1039792E-01 Eh
   gradient norm :     0.0153217 Eh/α   predicted    -0.1024276E-01 (  -1.49%)
   displ. norm   :     0.5608238 α      lambda       -0.6160112E-02
   maximum displ.:     0.2726606 α      in ANC's #43, #48, #40, ...

........................................................................
.............................. CYCLE    4 ..............................
........................................................................

 iter      E             dE          RMSdq      gap      omega  full diag
   1   -399.3666861 -0.399367E+03  0.794E-02    0.14       0.0  T
   2   -399.3666728  0.132343E-04  0.459E-02    0.15       1.0  T
   3   -399.3652171  0.145571E-02  0.586E-02    0.13       1.0  T
   4   -399.3581172  0.709989E-02  0.115E-01    0.16       1.0  T
   5   -399.3665872 -0.846993E-02  0.194E-02    0.15       1.0  T
   6   -399.3667294 -0.142221E-03  0.686E-03    0.14       1.0  T
   7   -399.3667378 -0.836151E-05  0.431E-03    0.14       1.6  T
   8   -399.3667458 -0.808277E-05  0.147E-03    0.14       4.8  T
   9   -399.3667465 -0.659927E-06  0.588E-04    0.14      11.9  T
  10   -399.3667465 -0.397603E-07  0.363E-04    0.14      19.3  T
     SCC iter.                  ...        0 min,  2.082 sec
     gradient                   ...        0 min,  0.465 sec
 * total energy  :  -392.2731302 Eh     change       -0.4209014E-02 Eh
   gradient norm :     0.0110734 Eh/α   predicted    -0.4048819E-02 (  -3.81%)
   displ. norm   :     0.4192211 α      lambda       -0.2245883E-02
   maximum displ.:     0.1612207 α      in ANC's #43, #37, #48, ...

........................................................................
.............................. CYCLE    5 ..............................
........................................................................

 iter      E             dE          RMSdq      gap      omega  full diag
   1   -399.4198545 -0.399420E+03  0.625E-02    0.14       0.0  T
   2   -399.4179262  0.192830E-02  0.666E-02    0.14       1.0  T
   3   -399.4033794  0.145467E-01  0.163E-01    0.17       1.0  T
   4   -399.4194429 -0.160634E-01  0.302E-02    0.14       1.0  T
   5   -399.4198199 -0.377008E-03  0.130E-02    0.15       1.0  T
   6   -399.4198947 -0.748648E-04  0.599E-03    0.14       1.2  T
   7   -399.4199056 -0.108939E-04  0.316E-03    0.14       2.2  T
   8   -399.4199083 -0.270884E-05  0.154E-03    0.14       4.5  T
   9   -399.4199091 -0.791912E-06  0.787E-04    0.14       8.9  T
  10   -399.4199094 -0.223202E-06  0.303E-04    0.14      23.1  T
     SCC iter.                  ...        0 min,  2.074 sec
     gradient                   ...        0 min,  0.462 sec
 * total energy  :  -392.2744190 Eh     change       -0.1288817E-02 Eh
   gradient norm :     0.0089395 Eh/α   predicted    -0.1320300E-02 (   2.44%)
   displ. norm   :     0.2220357 α      lambda       -0.6036478E-03
   maximum displ.:     0.0858009 α      in ANC's #23, #14, #40, ...

........................................................................
.............................. CYCLE    6 ..............................
........................................................................

 iter      E             dE          RMSdq      gap      omega  full diag
   1   -399.4305656 -0.399431E+03  0.385E-02    0.14       0.0  T
   2   -399.4273316  0.323404E-02  0.745E-02    0.14       1.0  T
   3   -399.4278827 -0.551130E-03  0.681E-02    0.15       1.0  T
   4   -399.4305184 -0.263572E-02  0.142E-02    0.14       1.0  T
   5   -399.4306127 -0.942790E-04  0.357E-03    0.14       2.0  T
   6   -399.4306110  0.171201E-05  0.354E-03    0.14       2.0  T
   7   -399.4306160 -0.503796E-05  0.167E-03    0.14       4.2  T
   8   -399.4306166 -0.596918E-06  0.948E-04    0.14       7.4  T
   9   -399.4306170 -0.360282E-06  0.431E-04    0.14      16.3  T
     SCC iter.                  ...        0 min,  1.837 sec
     gradient                   ...        0 min,  0.462 sec
 * total energy  :  -392.2747803 Eh     change       -0.3612987E-03 Eh
   gradient norm :     0.0054357 Eh/α   predicted    -0.3167055E-03 ( -12.34%)
   displ. norm   :     0.1599863 α      lambda       -0.2389615E-03
   maximum displ.:     0.0676020 α      in ANC's #14, #23, #25, ...

........................................................................
.............................. CYCLE    7 ..............................
........................................................................

 iter      E             dE          RMSdq      gap      omega  full diag
   1   -399.4282298 -0.399428E+03  0.271E-02    0.14       0.0  T
   2   -399.4248331  0.339670E-02  0.745E-02    0.14       1.0  T
   3   -399.4274578 -0.262473E-02  0.384E-02    0.14       1.0  T
   4   -399.4282176 -0.759759E-03  0.121E-02    0.14       1.0  T
   5   -399.4282772 -0.596105E-04  0.232E-03    0.14       3.0  T
   6   -399.4282784 -0.122390E-05  0.190E-03    0.14       3.7  T
   7   -399.4282796 -0.120007E-05  0.102E-03    0.14       6.9  T
   8   -399.4282799 -0.296480E-06  0.546E-04    0.14      12.8  T
   9   -399.4282800 -0.130903E-06  0.174E-04    0.14      40.2  T
     SCC iter.                  ...        0 min,  1.824 sec
     gradient                   ...        0 min,  0.464 sec
 * total energy  :  -392.2749621 Eh     change       -0.1818214E-03 Eh
   gradient norm :     0.0031462 Eh/α   predicted    -0.1225551E-03 ( -32.60%)
   displ. norm   :     0.2215856 α      lambda       -0.2255170E-03
   maximum displ.:     0.0999389 α      in ANC's #14, #23, #7, ...

........................................................................
.............................. CYCLE    8 ..............................
........................................................................

 iter      E             dE          RMSdq      gap      omega  full diag
   1   -399.4216541 -0.399422E+03  0.352E-02    0.14       0.0  T
   2   -399.4165720  0.508209E-02  0.914E-02    0.14       1.0  T
   3   -399.4203482 -0.377616E-02  0.498E-02    0.15       1.0  T
   4   -399.4216396 -0.129137E-02  0.154E-02    0.14       1.0  T
   5   -399.4217230 -0.834469E-04  0.366E-03    0.14       1.9  T
   6   -399.4217245 -0.150147E-05  0.337E-03    0.14       2.1  T
   7   -399.4217288 -0.424194E-05  0.146E-03    0.14       4.8  T
   8   -399.4217295 -0.741939E-06  0.633E-04    0.14      11.1  T
   9   -399.4217297 -0.154428E-06  0.287E-04    0.14      24.4  T
     SCC iter.                  ...        0 min,  1.895 sec
     gradient                   ...        0 min,  0.467 sec
 * total energy  :  -392.2751100 Eh     change       -0.1479352E-03 Eh
   gradient norm :     0.0031006 Eh/α   predicted    -0.1182968E-03 ( -20.03%)
   displ. norm   :     0.1542496 α      lambda       -0.8936838E-04
   maximum displ.:     0.0701114 α      in ANC's #14, #7, #23, ...

........................................................................
.............................. CYCLE    9 ..............................
........................................................................

 iter      E             dE          RMSdq      gap      omega  full diag
   1   -399.4195543 -0.399420E+03  0.217E-02    0.14       0.0  T
   2   -399.4186418  0.912515E-03  0.397E-02    0.14       1.0  T
   3   -399.4186897 -0.478443E-04  0.386E-02    0.14       1.0  T
   4   -399.4195497 -0.860071E-03  0.741E-03    0.14       1.0  T
   5   -399.4195661 -0.164050E-04  0.219E-03    0.14       3.2  T
   6   -399.4195664 -0.301590E-06  0.201E-03    0.14       3.5  T
   7   -399.4195682 -0.172564E-05  0.700E-04    0.14      10.0  T
   8   -399.4195683 -0.174441E-06  0.262E-04    0.14      26.7  T
   9   -399.4195684 -0.223602E-07  0.143E-04    0.14      48.8  T
     SCC iter.                  ...        0 min,  1.822 sec
     gradient                   ...        0 min,  0.480 sec
 * total energy  :  -392.2751785 Eh     change       -0.6842070E-04 Eh
   gradient norm :     0.0029923 Eh/α   predicted    -0.4574764E-04 ( -33.14%)
   displ. norm   :     0.2130511 α      lambda       -0.1068541E-03
   maximum displ.:     0.0909869 α      in ANC's #14, #7, #5, ...

........................................................................
.............................. CYCLE   10 ..............................
........................................................................

 iter      E             dE          RMSdq      gap      omega  full diag
   1   -399.4190553 -0.399419E+03  0.272E-02    0.14       0.0  T
   2   -399.4187991  0.256177E-03  0.254E-02    0.14       1.0  T
   3   -399.4144099  0.438927E-02  0.856E-02    0.15       1.0  T
   4   -399.4190420 -0.463213E-02  0.735E-03    0.14       1.0  T
   5   -399.4190579 -0.158539E-04  0.266E-03    0.14       2.6  T
   6   -399.4190579 -0.455349E-07  0.236E-03    0.14       3.0  T
   7   -399.4190602 -0.230109E-05  0.850E-04    0.14       8.2  T
   8   -399.4190605 -0.273828E-06  0.342E-04    0.14      20.4  T
   9   -399.4190605 -0.403654E-07  0.180E-04    0.14      39.0  T
     SCC iter.                  ...        0 min,  1.851 sec
     gradient                   ...        0 min,  0.478 sec
 * total energy  :  -392.2752569 Eh     change       -0.7845727E-04 Eh
   gradient norm :     0.0023905 Eh/α   predicted    -0.5585308E-04 ( -28.81%)
   displ. norm   :     0.2239187 α      lambda       -0.9052619E-04
   maximum displ.:     0.0871895 α      in ANC's #7, #14, #5, ...

........................................................................
.............................. CYCLE   11 ..............................
........................................................................

 iter      E             dE          RMSdq      gap      omega  full diag
   1   -399.4200163 -0.399420E+03  0.267E-02    0.14       0.0  T
   2   -399.4199983  0.180055E-04  0.162E-02    0.14       1.0  T
   3   -399.4155887  0.440963E-02  0.832E-02    0.14       1.0  T
   4   -399.4199948 -0.440605E-02  0.710E-03    0.14       1.0  T
   5   -399.4200164 -0.216339E-04  0.202E-03    0.14       3.5  T
   6   -399.4200164 -0.161062E-07  0.182E-03    0.14       3.8  T
   7   -399.4200179 -0.149920E-05  0.680E-04    0.14      10.3  T
   8   -399.4200180 -0.132637E-06  0.369E-04    0.14      19.0  T
   9   -399.4200181 -0.703104E-07  0.132E-04    0.14      53.0  T
     SCC iter.                  ...        0 min,  1.889 sec
     gradient                   ...        0 min,  0.445 sec
 * total energy  :  -392.2753253 Eh     change       -0.6840065E-04 Eh
   gradient norm :     0.0025089 Eh/α   predicted    -0.4754154E-04 ( -30.50%)
   displ. norm   :     0.2650333 α      lambda       -0.9456329E-04
   maximum displ.:     0.0993845 α      in ANC's #7, #14, #12, ...

........................................................................
.............................. CYCLE   12 ..............................
........................................................................

 iter      E             dE          RMSdq      gap      omega  full diag
   1   -399.4214927 -0.399421E+03  0.308E-02    0.14       0.0  T
   2   -399.4211563  0.336491E-03  0.289E-02    0.14       1.0  T
   3   -399.4150342  0.612204E-02  0.101E-01    0.14       1.0  T
   4   -399.4214671 -0.643293E-02  0.899E-03    0.14       1.0  T
   5   -399.4214932 -0.260716E-04  0.364E-03    0.14       1.9  T
   6   -399.4214986 -0.534807E-05  0.195E-03    0.14       3.6  T
   7   -399.4214986 -0.306290E-07  0.143E-03    0.14       4.9  T
   8   -399.4214997 -0.107407E-05  0.550E-04    0.14      12.7  T
   9   -399.4214999 -0.181568E-06  0.180E-04    0.14      39.0  T
  10   -399.4214999 -0.755375E-08  0.767E-05    0.14      91.2  T
     SCC iter.                  ...        0 min,  2.056 sec
     gradient                   ...        0 min,  0.494 sec
 * total energy  :  -392.2753974 Eh     change       -0.7206594E-04 Eh
   gradient norm :     0.0030565 Eh/α   predicted    -0.5060388E-04 ( -29.78%)
   displ. norm   :     0.3125593 α      lambda       -0.1025106E-03
   maximum displ.:     0.1111341 α      in ANC's #12, #7, #10, ...

........................................................................
.............................. CYCLE   13 ..............................
........................................................................

 iter      E             dE          RMSdq      gap      omega  full diag
   1   -399.4226240 -0.399423E+03  0.364E-02    0.14       0.0  T
   2   -399.4220588  0.565284E-03  0.364E-02    0.14       1.0  T
   3   -399.4147508  0.730797E-02  0.112E-01    0.14       1.0  T
   4   -399.4225555 -0.780470E-02  0.135E-02    0.14       1.0  T
   5   -399.4226271 -0.715759E-04  0.428E-03    0.14       1.6  T
   6   -399.4226338 -0.676292E-05  0.237E-03    0.14       2.9  T
   7   -399.4226341 -0.309711E-06  0.166E-03    0.14       4.2  T
   8   -399.4226355 -0.136374E-05  0.691E-04    0.14      10.1  T
   9   -399.4226358 -0.275650E-06  0.254E-04    0.14      27.6  T
  10   -399.4226358 -0.165202E-07  0.110E-04    0.14      63.5  T
     SCC iter.                  ...        0 min,  2.126 sec
     gradient                   ...        0 min,  0.493 sec
 * total energy  :  -392.2754745 Eh     change       -0.7713136E-04 Eh
   gradient norm :     0.0032185 Eh/α   predicted    -0.5626516E-04 ( -27.05%)
   displ. norm   :     0.3019884 α      lambda       -0.9660838E-04
   maximum displ.:     0.1220537 α      in ANC's #12, #10, #22, ...

........................................................................
.............................. CYCLE   14 ..............................
........................................................................

 iter      E             dE          RMSdq      gap      omega  full diag
   1   -399.4231112 -0.399423E+03  0.358E-02    0.14       0.0  T
   2   -399.4228025  0.308712E-03  0.303E-02    0.14       1.0  T
   3   -399.4131312  0.967132E-02  0.125E-01    0.14       1.0  T
   4   -399.4230218 -0.989062E-02  0.148E-02    0.14       1.0  T
   5   -399.4231121 -0.902575E-04  0.387E-03    0.14       1.8  T
   6   -399.4231179 -0.584247E-05  0.214E-03    0.14       3.3  T
   7   -399.4231181 -0.209197E-06  0.158E-03    0.14       4.4  T
   8   -399.4231193 -0.120537E-05  0.606E-04    0.14      11.6  T
   9   -399.4231195 -0.204965E-06  0.225E-04    0.14      31.1  T
  10   -399.4231196 -0.119592E-07  0.104E-04    0.14      67.1  T
     SCC iter.                  ...        0 min,  2.066 sec
     gradient                   ...        0 min,  0.481 sec
 * total energy  :  -392.2755456 Eh     change       -0.7109366E-04 Eh
   gradient norm :     0.0028001 Eh/α   predicted    -0.5270972E-04 ( -25.86%)
   displ. norm   :     0.2397812 α      lambda       -0.7647507E-04
   maximum displ.:     0.1077290 α      in ANC's #12, #10, #22, ...

........................................................................
.............................. CYCLE   15 ..............................
........................................................................

 iter      E             dE          RMSdq      gap      omega  full diag
   1   -399.4230428 -0.399423E+03  0.291E-02    0.14       0.0  T
   2   -399.4230338  0.897086E-05  0.174E-02    0.14       1.0  T
   3   -399.4212028  0.183103E-02  0.520E-02    0.14       1.0  T
   4   -399.4227660 -0.156324E-02  0.229E-02    0.14       1.0  T
   5   -399.4230416 -0.275566E-03  0.275E-03    0.14       2.5  T
   6   -399.4230444 -0.279678E-05  0.157E-03    0.14       4.5  T
   7   -399.4230452 -0.773635E-06  0.117E-03    0.14       6.0  T
   8   -399.4230457 -0.554032E-06  0.327E-04    0.14      21.4  T
   9   -399.4230458 -0.395885E-07  0.120E-04    0.14      58.4  T
     SCC iter.                  ...        0 min,  1.840 sec
     gradient                   ...        0 min,  0.470 sec
 * total energy  :  -392.2756002 Eh     change       -0.5460521E-04 Eh
   gradient norm :     0.0024152 Eh/α   predicted    -0.4043643E-04 ( -25.95%)
   displ. norm   :     0.1631503 α      lambda       -0.4872093E-04
   maximum displ.:     0.0763564 α      in ANC's #12, #10, #11, ...

........................................................................
.............................. CYCLE   16 ..............................
........................................................................

 iter      E             dE          RMSdq      gap      omega  full diag
   1   -399.4226582 -0.399423E+03  0.202E-02    0.14       0.0  T
   2   -399.4225647  0.934433E-04  0.167E-02    0.14       1.0  T
   3   -399.4198696  0.269512E-02  0.671E-02    0.15       1.0  T
   4   -399.4226031 -0.273346E-02  0.103E-02    0.14       1.0  T
   5   -399.4226584 -0.553345E-04  0.220E-03    0.14       3.2  T
   6   -399.4226608 -0.240374E-05  0.870E-04    0.14       8.0  T
   7   -399.4226610 -0.199036E-06  0.492E-04    0.14      14.2  T
   8   -399.4226611 -0.755411E-07  0.251E-04    0.14      27.9  T
     SCC iter.                  ...        0 min,  1.663 sec
     gradient                   ...        0 min,  0.485 sec
 * total energy  :  -392.2756350 Eh     change       -0.3475199E-04 Eh
   gradient norm :     0.0022430 Eh/α   predicted    -0.2500981E-04 ( -28.03%)
   displ. norm   :     0.1246674 α      lambda       -0.3289089E-04
   maximum displ.:     0.0561006 α      in ANC's #12, #10, #11, ...

........................................................................
.............................. CYCLE   17 ..............................
........................................................................

 iter      E             dE          RMSdq      gap      omega  full diag
   1   -399.4223943 -0.399422E+03  0.156E-02    0.14       0.0  T
   2   -399.4222596  0.134692E-03  0.169E-02    0.14       1.0  T
   3   -399.4211657  0.109387E-02  0.447E-02    0.15       1.0  T
   4   -399.4223764 -0.121062E-02  0.692E-03    0.14       1.0  T
   5   -399.4223955 -0.191395E-04  0.189E-03    0.14       3.7  T
   6   -399.4223969 -0.142699E-05  0.100E-03    0.14       7.0  T
   7   -399.4223972 -0.248931E-06  0.641E-04    0.14      10.9  T
   8   -399.4223973 -0.138779E-06  0.267E-04    0.14      26.2  T
     SCC iter.                  ...        0 min,  1.642 sec
     gradient                   ...        0 min,  0.484 sec
 * total energy  :  -392.2756587 Eh     change       -0.2372132E-04 Eh
   gradient norm :     0.0018231 Eh/α   predicted    -0.1670306E-04 ( -29.59%)
   displ. norm   :     0.1716882 α      lambda       -0.2547608E-04
   maximum displ.:     0.0696782 α      in ANC's #10, #12, #11, ...

........................................................................
.............................. CYCLE   18 ..............................
........................................................................

 iter      E             dE          RMSdq      gap      omega  full diag
   1   -399.4223154 -0.399422E+03  0.211E-02    0.14       0.0  T
   2   -399.4221156  0.199807E-03  0.214E-02    0.14       1.0  T
   3   -399.4199449  0.217069E-02  0.619E-02    0.15       1.0  T
   4   -399.4222902 -0.234529E-02  0.836E-03    0.14       1.0  T
   5   -399.4223162 -0.259667E-04  0.269E-03    0.14       2.6  T
   6   -399.4223196 -0.344819E-05  0.121E-03    0.14       5.8  T
   7   -399.4223201 -0.472836E-06  0.553E-04    0.14      12.7  T
   8   -399.4223202 -0.722497E-07  0.342E-04    0.14      20.5  T
     SCC iter.                  ...        0 min,  1.734 sec
     gradient                   ...        0 min,  0.477 sec
 * total energy  :  -392.2756811 Eh     change       -0.2240287E-04 Eh
   gradient norm :     0.0015004 Eh/α   predicted    -0.1290801E-04 ( -42.38%)
   displ. norm   :     0.0774927 α      lambda       -0.1438030E-04
   maximum displ.:     0.0304691 α      in ANC's #16, #1, #10, ...

........................................................................
.............................. CYCLE   19 ..............................
........................................................................

 iter      E             dE          RMSdq      gap      omega  full diag
   1   -399.4232371 -0.399423E+03  0.979E-03    0.14       0.0  T
   2   -399.4232242  0.129041E-04  0.712E-03    0.14       1.0  T
   3   -399.4223581  0.866059E-03  0.369E-02    0.14       1.0  T
   4   -399.4232284 -0.870250E-03  0.473E-03    0.14       1.5  T
   5   -399.4232368 -0.836089E-05  0.147E-03    0.14       4.8  T
   6   -399.4232374 -0.627369E-06  0.746E-04    0.14       9.4  T
   7   -399.4232376 -0.225881E-06  0.297E-04    0.14      23.6  T
     SCC iter.                  ...        0 min,  1.452 sec
     gradient                   ...        0 min,  0.476 sec
 * total energy  :  -392.2756983 Eh     change       -0.1716495E-04 Eh
   gradient norm :     0.0014299 Eh/α   predicted    -0.7212344E-05 ( -57.98%)
   displ. norm   :     0.2230549 α      lambda       -0.2864709E-04
   maximum displ.:     0.0811245 α      in ANC's #10, #17, #1, ...

........................................................................
.............................. CYCLE   20 ..............................
........................................................................

 iter      E             dE          RMSdq      gap      omega  full diag
   1   -399.4225435 -0.399423E+03  0.261E-02    0.14       0.0  T
   2   -399.4225259  0.176315E-04  0.157E-02    0.14       1.0  T
   3   -399.4183216  0.420430E-02  0.803E-02    0.14       1.0  T
   4   -399.4225199 -0.419836E-02  0.807E-03    0.14       1.0  T
   5   -399.4225411 -0.211495E-04  0.302E-03    0.14       2.3  T
   6   -399.4225442 -0.307930E-05  0.159E-03    0.14       4.4  T
   7   -399.4225449 -0.705442E-06  0.733E-04    0.14       9.6  T
   8   -399.4225451 -0.216659E-06  0.270E-04    0.14      26.0  T
     SCC iter.                  ...        0 min,  1.672 sec
     gradient                   ...        0 min,  0.463 sec
 * total energy  :  -392.2757189 Eh     change       -0.2066460E-04 Eh
   gradient norm :     0.0025336 Eh/α   predicted    -0.1464177E-04 ( -29.15%)
   displ. norm   :     0.1083868 α      lambda       -0.2403136E-04
   maximum displ.:     0.0405731 α      in ANC's #16, #5, #1, ...
 * RMSD in coord.:     0.2447069 α      energy gain  -0.3587516E-01 Eh

generating ANC from exact Hessian ...
Using Lindh-Hessian (1995)
 Shifting diagonal of input Hessian by   9.904939371305349E-003
 Lowest  eigenvalues of input Hessian
    0.000000    0.000000    0.000000    0.000000    0.000000    0.000000
    0.010000    0.010045    0.010082    0.010203    0.010254    0.010657
    0.010684    0.010772    0.010955    0.011010    0.011782    0.012072
 Highest eigenvalues
    2.156950    2.169894    2.172301    2.185755    2.218347    2.228980
 

........................................................................
.............................. CYCLE   21 ..............................
........................................................................

 iter      E             dE          RMSdq      gap      omega  full diag
   1   -399.4235630 -0.399424E+03  0.131E-02    0.14       0.0  T
   2   -399.4235055  0.575023E-04  0.120E-02    0.14       1.0  T
   3   -399.4223975  0.110803E-02  0.427E-02    0.14       1.0  T
   4   -399.4235379 -0.114045E-02  0.796E-03    0.14       1.0  T
   5   -399.4235634 -0.255197E-04  0.183E-03    0.14       3.8  T
   6   -399.4235641 -0.677052E-06  0.108E-03    0.14       6.5  T
   7   -399.4235646 -0.445514E-06  0.510E-04    0.14      13.7  T
   8   -399.4235646 -0.931446E-07  0.166E-04    0.14      42.1  T
     SCC iter.                  ...        0 min,  1.621 sec
     gradient                   ...        0 min,  0.467 sec
 * total energy  :  -392.2757336 Eh     change       -0.1471260E-04 Eh
   gradient norm :     0.0018627 Eh/α   predicted     0.0000000E+00 (-100.00%)
   displ. norm   :     0.0305618 α      lambda       -0.8344530E-05
   maximum displ.:     0.0105477 α      in ANC's #6, #1, #3, ...

........................................................................
.............................. CYCLE   22 ..............................
........................................................................

 iter      E             dE          RMSdq      gap      omega  full diag
   1   -399.4230917 -0.399423E+03  0.487E-03    0.14       0.0  T
   2   -399.4230834  0.823410E-05  0.464E-03    0.14       1.5  T
   3   -399.4229569  0.126577E-03  0.147E-02    0.14       1.0  T
   4   -399.4230880 -0.131134E-03  0.273E-03    0.14       2.6  T
   5   -399.4230916 -0.360535E-05  0.929E-04    0.14       7.5  T
   6   -399.4230918 -0.220364E-06  0.522E-04    0.14      13.4  T
   7   -399.4230920 -0.123927E-06  0.191E-04    0.14      36.7  T
     SCC iter.                  ...        0 min,  1.438 sec
     gradient                   ...        0 min,  0.464 sec
 * total energy  :  -392.2757450 Eh     change       -0.1131576E-04 Eh
   gradient norm :     0.0007504 Eh/α   predicted    -0.4952421E-05 ( -56.23%)
   displ. norm   :     0.0692076 α      lambda       -0.1043046E-04
   maximum displ.:     0.0262230 α      in ANC's #6, #1, #3, ...

........................................................................
.............................. CYCLE   23 ..............................
........................................................................

 iter      E             dE          RMSdq      gap      omega  full diag
   1   -399.4222877 -0.399422E+03  0.904E-03    0.14       0.0  T
   2   -399.4222833  0.447756E-05  0.589E-03    0.14       1.2  T
   3   -399.4218362  0.447075E-03  0.270E-02    0.14       1.0  T
   4   -399.4222574 -0.421177E-03  0.722E-03    0.14       1.0  T
   5   -399.4222870 -0.296611E-04  0.177E-03    0.14       4.0  T
   6   -399.4222880 -0.950565E-06  0.823E-04    0.14       8.5  T
   7   -399.4222883 -0.293922E-06  0.257E-04    0.14      27.2  T
     SCC iter.                  ...        0 min,  1.467 sec
     gradient                   ...        0 min,  0.461 sec
 * total energy  :  -392.2757560 Eh     change       -0.1099276E-04 Eh
   gradient norm :     0.0009292 Eh/α   predicted    -0.5877590E-05 ( -46.53%)
   displ. norm   :     0.0641243 α      lambda       -0.6347347E-05
   maximum displ.:     0.0259691 α      in ANC's #1, #6, #3, ...

........................................................................
.............................. CYCLE   24 ..............................
........................................................................

 iter      E             dE          RMSdq      gap      omega  full diag
   1   -399.4222101 -0.399422E+03  0.731E-03    0.14       0.0  T
   2   -399.4222093  0.759148E-06  0.434E-03    0.14       1.6  T
   3   -399.4221486  0.607024E-04  0.109E-02    0.14       1.0  T
   4   -399.4221475  0.117752E-05  0.991E-03    0.14       1.0  T
   5   -399.4222100 -0.625906E-04  0.902E-04    0.14       7.8  T
   6   -399.4222102 -0.109292E-06  0.665E-04    0.14      10.5  T
   7   -399.4222104 -0.222664E-06  0.189E-04    0.14      37.1  T
     SCC iter.                  ...        0 min,  1.453 sec
     gradient                   ...        0 min,  0.459 sec
 * total energy  :  -392.2757618 Eh     change       -0.5856330E-05 Eh
   gradient norm :     0.0012360 Eh/α   predicted    -0.3179647E-05 ( -45.71%)
   displ. norm   :     0.0882720 α      lambda       -0.7798459E-05
   maximum displ.:     0.0379614 α      in ANC's #1, #6, #3, ...

........................................................................
.............................. CYCLE   25 ..............................
........................................................................

 iter      E             dE          RMSdq      gap      omega  full diag
   1   -399.4225969 -0.399423E+03  0.892E-03    0.14       0.0  T
   2   -399.4225964  0.521544E-06  0.515E-03    0.14       1.4  T
   3   -399.4225573  0.390982E-04  0.845E-03    0.14       1.0  T
   4   -399.4225454  0.118324E-04  0.907E-03    0.14       1.0  T
   5   -399.4225960 -0.505634E-04  0.158E-03    0.14       4.4  T
   6   -399.4225970 -0.106389E-05  0.535E-04    0.14      13.1  T
   7   -399.4225971 -0.786770E-07  0.189E-04    0.14      37.1  T
   8   -399.4225971 -0.105743E-07  0.905E-05    0.14      77.4  T
     SCC iter.                  ...        0 min,  1.689 sec
     gradient                   ...        0 min,  0.473 sec
 * total energy  :  -392.2757713 Eh     change       -0.9453179E-05 Eh
   gradient norm :     0.0010716 Eh/α   predicted    -0.3984495E-05 ( -57.85%)
   displ. norm   :     0.1466786 α      lambda       -0.1223663E-04
   maximum displ.:     0.0669106 α      in ANC's #1, #3, #6, ...

........................................................................
.............................. CYCLE   26 ..............................
........................................................................

 iter      E             dE          RMSdq      gap      omega  full diag
   1   -399.4228570 -0.399423E+03  0.138E-02    0.14       0.0  T
   2   -399.4228559  0.112561E-05  0.799E-03    0.14       1.0  T
   3   -399.4227229  0.133049E-03  0.149E-02    0.14       1.0  T
   4   -399.4227515 -0.286447E-04  0.132E-02    0.14       1.0  T
   5   -399.4228560 -0.104488E-03  0.186E-03    0.14       3.8  T
   6   -399.4228574 -0.137668E-05  0.667E-04    0.14      10.5  T
   7   -399.4228574  0.732206E-08  0.463E-04    0.14      15.1  T
   8   -399.4228575 -0.141299E-06  0.115E-04    0.14      61.0  T
     SCC iter.                  ...        0 min,  1.642 sec
     gradient                   ...        0 min,  0.445 sec
 * total energy  :  -392.2757858 Eh     change       -0.1449578E-04 Eh
   gradient norm :     0.0007114 Eh/α   predicted    -0.6177857E-05 ( -57.38%)
   displ. norm   :     0.2007429 α      lambda       -0.1407255E-04
   maximum displ.:     0.0949729 α      in ANC's #1, #3, #5, ...

........................................................................
.............................. CYCLE   27 ..............................
........................................................................

 iter      E             dE          RMSdq      gap      omega  full diag
   1   -399.4226231 -0.399423E+03  0.182E-02    0.14       0.0  T
   2   -399.4226135  0.958404E-05  0.112E-02    0.14       1.0  T
   3   -399.4208706  0.174287E-02  0.529E-02    0.14       1.0  T
   4   -399.4225591 -0.168853E-02  0.103E-02    0.14       1.0  T
   5   -399.4226222 -0.630805E-04  0.215E-03    0.14       3.3  T
   6   -399.4226237 -0.146808E-05  0.880E-04    0.14       8.0  T
   7   -399.4226235  0.225870E-06  0.800E-04    0.14       8.8  T
   8   -399.4226239 -0.448208E-06  0.170E-04    0.14      41.3  T
     SCC iter.                  ...        0 min,  1.717 sec
     gradient                   ...        0 min,  0.482 sec
 * total energy  :  -392.2758027 Eh     change       -0.1699263E-04 Eh
   gradient norm :     0.0012179 Eh/α   predicted    -0.7163842E-05 ( -57.84%)
   displ. norm   :     0.2585854 α      lambda       -0.1669557E-04
   maximum displ.:     0.1251819 α      in ANC's #1, #3, #5, ...

........................................................................
.............................. CYCLE   28 ..............................
........................................................................

 iter      E             dE          RMSdq      gap      omega  full diag
   1   -399.4221343 -0.399422E+03  0.230E-02    0.14       0.0  T
   2   -399.4220764  0.579542E-04  0.164E-02    0.14       1.0  T
   3   -399.4178844  0.419193E-02  0.816E-02    0.15       1.0  T
   4   -399.4221011 -0.421663E-02  0.813E-03    0.14       1.0  T
   5   -399.4221327 -0.316136E-04  0.303E-03    0.14       2.3  T
   6   -399.4221359 -0.321719E-05  0.116E-03    0.14       6.0  T
   7   -399.4221355  0.424787E-06  0.108E-03    0.14       6.5  T
   8   -399.4221363 -0.775339E-06  0.298E-04    0.14      23.5  T
   9   -399.4221363 -0.458585E-07  0.103E-04    0.14      68.2  T
     SCC iter.                  ...        0 min,  1.863 sec
     gradient                   ...        0 min,  0.457 sec
 * total energy  :  -392.2758238 Eh     change       -0.2105165E-04 Eh
   gradient norm :     0.0015773 Eh/α   predicted    -0.8596351E-05 ( -59.17%)
   displ. norm   :     0.3464619 α      lambda       -0.2220306E-04
   maximum displ.:     0.1706643 α      in ANC's #1, #3, #5, ...

........................................................................
.............................. CYCLE   29 ..............................
........................................................................

 iter      E             dE          RMSdq      gap      omega  full diag
   1   -399.4214199 -0.399421E+03  0.303E-02    0.14       0.0  T
   2   -399.4212414  0.178500E-03  0.242E-02    0.14       1.0  T
   3   -399.4147945  0.644696E-02  0.102E-01    0.16       1.0  T
   4   -399.4213930 -0.659855E-02  0.850E-03    0.14       1.0  T
   5   -399.4214212 -0.281417E-04  0.299E-03    0.14       2.3  T
   6   -399.4214232 -0.206205E-05  0.187E-03    0.14       3.8  T
   7   -399.4214233 -0.915541E-07  0.136E-03    0.14       5.2  T
   8   -399.4214243 -0.976535E-06  0.566E-04    0.14      12.4  T
   9   -399.4214245 -0.197551E-06  0.157E-04    0.14      44.5  T
     SCC iter.                  ...        0 min,  1.865 sec
     gradient                   ...        0 min,  0.473 sec
 * total energy  :  -392.2758515 Eh     change       -0.2773155E-04 Eh
   gradient norm :     0.0014550 Eh/α   predicted    -0.1170292E-04 ( -57.80%)
   displ. norm   :     0.4177688 α      lambda       -0.2503500E-04
   maximum displ.:     0.2092710 α      in ANC's #1, #3, #5, ...

........................................................................
.............................. CYCLE   30 ..............................
........................................................................

 iter      E             dE          RMSdq      gap      omega  full diag
   1   -399.4210529 -0.399421E+03  0.359E-02    0.14       0.0  T
   2   -399.4207941  0.258826E-03  0.288E-02    0.14       1.0  T
   3   -399.4120536  0.874042E-02  0.119E-01    0.16       1.0  T
   4   -399.4210256 -0.897191E-02  0.945E-03    0.14       1.0  T
   5   -399.4210571 -0.315066E-04  0.268E-03    0.14       2.6  T
   6   -399.4210567  0.358681E-06  0.239E-03    0.14       2.9  T
   7   -399.4210586 -0.191959E-05  0.118E-03    0.14       5.9  T
   8   -399.4210589 -0.225311E-06  0.840E-04    0.14       8.3  T
   9   -399.4210593 -0.435776E-06  0.230E-04    0.14      30.5  T
     SCC iter.                  ...        0 min,  1.845 sec
     gradient                   ...        0 min,  0.469 sec
 * total energy  :  -392.2758819 Eh     change       -0.3032069E-04 Eh
   gradient norm :     0.0009932 Eh/α   predicted    -0.1348907E-04 ( -55.51%)
   displ. norm   :     0.4056537 α      lambda       -0.2187972E-04
   maximum displ.:     0.2072726 α      in ANC's #1, #3, #5, ...

........................................................................
.............................. CYCLE   31 ..............................
........................................................................

 iter      E             dE          RMSdq      gap      omega  full diag
   1   -399.4211869 -0.399421E+03  0.343E-02    0.14       0.0  T
   2   -399.4210107  0.176226E-03  0.257E-02    0.14       1.0  T
   3   -399.4123682  0.864244E-02  0.118E-01    0.16       1.0  T
   4   -399.4211623 -0.879402E-02  0.862E-03    0.14       1.0  T
   5   -399.4211897 -0.274249E-04  0.262E-03    0.14       2.7  T
   6   -399.4211896  0.543233E-07  0.231E-03    0.14       3.0  T
   7   -399.4211908 -0.120092E-05  0.127E-03    0.14       5.5  T
   8   -399.4211914 -0.595785E-06  0.670E-04    0.14      10.5  T
   9   -399.4211917 -0.269693E-06  0.192E-04    0.14      36.5  T
     SCC iter.                  ...        0 min,  1.632 sec
     gradient                   ...        0 min,  0.326 sec
 * total energy  :  -392.2759086 Eh     change       -0.2671300E-04 Eh
   gradient norm :     0.0008713 Eh/α   predicted    -0.1174213E-04 ( -56.04%)
   displ. norm   :     0.3645563 α      lambda       -0.1940310E-04
   maximum displ.:     0.1902820 α      in ANC's #1, #3, #5, ...

........................................................................
.............................. CYCLE   32 ..............................
........................................................................

 iter      E             dE          RMSdq      gap      omega  full diag
   1   -399.4219277 -0.399422E+03  0.305E-02    0.14       0.0  T
   2   -399.4218809  0.467615E-04  0.193E-02    0.14       1.0  T
   3   -399.4154636  0.641726E-02  0.101E-01    0.16       1.0  T
   4   -399.4218955 -0.643189E-02  0.815E-03    0.14       1.0  T
   5   -399.4219258 -0.302994E-04  0.325E-03    0.14       2.2  T
   6   -399.4219279 -0.212004E-05  0.225E-03    0.14       3.1  T
   7   -399.4219296 -0.161705E-05  0.895E-04    0.14       7.8  T
   8   -399.4219299 -0.357119E-06  0.346E-04    0.14      20.2  T
   9   -399.4219300 -0.544998E-07  0.143E-04    0.14      49.0  T
     SCC iter.                  ...        0 min,  1.340 sec
     gradient                   ...        0 min,  0.316 sec
 * total energy  :  -392.2759328 Eh     change       -0.2419463E-04 Eh
   gradient norm :     0.0010386 Eh/α   predicted    -0.1027995E-04 ( -57.51%)
   displ. norm   :     0.3746184 α      lambda       -0.2076312E-04
   maximum displ.:     0.1987360 α      in ANC's #1, #3, #5, ...

........................................................................
.............................. CYCLE   33 ..............................
........................................................................

 iter      E             dE          RMSdq      gap      omega  full diag
   1   -399.4225166 -0.399423E+03  0.314E-02    0.14       0.0  T
   2   -399.4225146  0.192061E-05  0.178E-02    0.14       1.0  T
   3   -399.4218933  0.621302E-03  0.330E-02    0.15       1.0  T
   4   -399.4223257 -0.432342E-03  0.172E-02    0.14       1.0  T
   5   -399.4225121 -0.186445E-03  0.370E-03    0.14       1.9  T
   6   -399.4225166 -0.451545E-05  0.213E-03    0.14       3.3  T
   7   -399.4225181 -0.150575E-05  0.674E-04    0.14      10.4  T
   8   -399.4225183 -0.158036E-06  0.252E-04    0.14      27.8  T
   9   -399.4225183 -0.222034E-07  0.132E-04    0.14      52.9  T
     SCC iter.                  ...        0 min,  1.282 sec
     gradient                   ...        0 min,  0.323 sec
 * total energy  :  -392.2759590 Eh     change       -0.2620700E-04 Eh
   gradient norm :     0.0011109 Eh/α   predicted    -0.1102952E-04 ( -57.91%)
   displ. norm   :     0.4053066 α      lambda       -0.2308943E-04
   maximum displ.:     0.2181718 α      in ANC's #1, #3, #4, ...

........................................................................
.............................. CYCLE   34 ..............................
........................................................................

 iter      E             dE          RMSdq      gap      omega  full diag
   1   -399.4228443 -0.399423E+03  0.343E-02    0.14       0.0  T
   2   -399.4228257  0.185952E-04  0.201E-02    0.14       1.0  T
   3   -399.4177946  0.503111E-02  0.876E-02    0.14       1.0  T
   4   -399.4228060 -0.501137E-02  0.102E-02    0.14       1.0  T
   5   -399.4228418 -0.358207E-04  0.373E-03    0.14       1.9  T
   6   -399.4228446 -0.284931E-05  0.237E-03    0.14       3.0  T
   7   -399.4228464 -0.174934E-05  0.897E-04    0.14       7.8  T
   8   -399.4228467 -0.309528E-06  0.358E-04    0.14      19.6  T
   9   -399.4228467 -0.599412E-07  0.153E-04    0.14      45.8  T
     SCC iter.                  ...        0 min,  1.385 sec
     gradient                   ...        0 min,  0.314 sec
 * total energy  :  -392.2759875 Eh     change       -0.2855367E-04 Eh
   gradient norm :     0.0009762 Eh/α   predicted    -0.1238845E-04 ( -56.61%)
   displ. norm   :     0.3888312 α      lambda       -0.2253306E-04
   maximum displ.:     0.2125526 α      in ANC's #1, #3, #4, ...

........................................................................
.............................. CYCLE   35 ..............................
........................................................................

 iter      E             dE          RMSdq      gap      omega  full diag
   1   -399.4229077 -0.399423E+03  0.332E-02    0.14       0.0  T
   2   -399.4228702  0.375017E-04  0.203E-02    0.14       1.0  T
   3   -399.4152575  0.761266E-02  0.108E-01    0.14       1.0  T
   4   -399.4228776 -0.762006E-02  0.936E-03    0.14       1.0  T
   5   -399.4229053 -0.277524E-04  0.364E-03    0.14       1.9  T
   6   -399.4229081 -0.281158E-05  0.235E-03    0.14       3.0  T
   7   -399.4229098 -0.170344E-05  0.102E-03    0.14       6.8  T
   8   -399.4229103 -0.431443E-06  0.405E-04    0.14      17.3  T
   9   -399.4229104 -0.830755E-07  0.160E-04    0.14      43.6  T
     SCC iter.                  ...        0 min,  1.369 sec
     gradient                   ...        0 min,  0.328 sec
 * total energy  :  -392.2760152 Eh     change       -0.2767153E-04 Eh
   gradient norm :     0.0007858 Eh/α   predicted    -0.1202629E-04 ( -56.54%)
   displ. norm   :     0.3361481 α      lambda       -0.2072000E-04
   maximum displ.:     0.1866096 α      in ANC's #1, #3, #10, ...

........................................................................
.............................. CYCLE   36 ..............................
........................................................................

 iter      E             dE          RMSdq      gap      omega  full diag
   1   -399.4228636 -0.399423E+03  0.290E-02    0.14       0.0  T
   2   -399.4228340  0.296174E-04  0.178E-02    0.14       1.0  T
   3   -399.4169743  0.585965E-02  0.951E-02    0.14       1.0  T
   4   -399.4228331 -0.585876E-02  0.903E-03    0.14       1.0  T
   5   -399.4228614 -0.283260E-04  0.333E-03    0.14       2.1  T
   6   -399.4228642 -0.277813E-05  0.194E-03    0.14       3.6  T
   7   -399.4228654 -0.115124E-05  0.862E-04    0.14       8.1  T
   8   -399.4228657 -0.295702E-06  0.338E-04    0.14      20.7  T
   9   -399.4228657 -0.549516E-07  0.151E-04    0.14      46.4  T
     SCC iter.                  ...        0 min,  1.371 sec
     gradient                   ...        0 min,  0.325 sec
 * total energy  :  -392.2760411 Eh     change       -0.2593790E-04 Eh
   gradient norm :     0.0008270 Eh/α   predicted    -0.1088113E-04 ( -58.05%)
   displ. norm   :     0.3313014 α      lambda       -0.2211078E-04
   maximum displ.:     0.1855784 α      in ANC's #1, #3, #10, ...

........................................................................
.............................. CYCLE   37 ..............................
........................................................................

 iter      E             dE          RMSdq      gap      omega  full diag
   1   -399.4226837 -0.399423E+03  0.287E-02    0.14       0.0  T
   2   -399.4226821  0.165685E-05  0.164E-02    0.14       1.0  T
   3   -399.4221999  0.482218E-03  0.275E-02    0.14       1.0  T
   4   -399.4225058 -0.305941E-03  0.173E-02    0.14       1.0  T
   5   -399.4226818 -0.175963E-03  0.324E-03    0.14       2.2  T
   6   -399.4226834 -0.165629E-05  0.204E-03    0.14       3.4  T
   7   -399.4226851 -0.169937E-05  0.682E-04    0.14      10.3  T
   8   -399.4226853 -0.177166E-06  0.219E-04    0.14      32.0  T
   9   -399.4226853 -0.111078E-07  0.139E-04    0.14      50.4  T
     SCC iter.                  ...        0 min,  1.362 sec
     gradient                   ...        0 min,  0.331 sec
 * total energy  :  -392.2760682 Eh     change       -0.2710427E-04 Eh
   gradient norm :     0.0010256 Eh/α   predicted    -0.1159536E-04 ( -57.22%)
   displ. norm   :     0.3576291 α      lambda       -0.2311732E-04
   maximum displ.:     0.2015501 α      in ANC's #1, #3, #10, ...

........................................................................
.............................. CYCLE   38 ..............................
........................................................................

 iter      E             dE          RMSdq      gap      omega  full diag
   1   -399.4221395 -0.399422E+03  0.313E-02    0.14       0.0  T
   2   -399.4221111  0.283522E-04  0.188E-02    0.14       1.0  T
   3   -399.4167677  0.534339E-02  0.920E-02    0.15       1.0  T
   4   -399.4221058 -0.533802E-02  0.866E-03    0.14       1.0  T
   5   -399.4221351 -0.292982E-04  0.399E-03    0.14       1.8  T
   6   -399.4221394 -0.434428E-05  0.222E-03    0.14       3.2  T
   7   -399.4221416 -0.216968E-05  0.676E-04    0.14      10.4  T
   8   -399.4221417 -0.154599E-06  0.263E-04    0.14      26.6  T
   9   -399.4221417 -0.182524E-07  0.144E-04    0.14      48.6  T
     SCC iter.                  ...        0 min,  1.330 sec
     gradient                   ...        0 min,  0.314 sec
 * total energy  :  -392.2760947 Eh     change       -0.2641878E-04 Eh
   gradient norm :     0.0011657 Eh/α   predicted    -0.1221893E-04 ( -53.75%)
   displ. norm   :     0.3058572 α      lambda       -0.1790915E-04
   maximum displ.:     0.1734148 α      in ANC's #1, #3, #10, ...

........................................................................
.............................. CYCLE   39 ..............................
........................................................................

 iter      E             dE          RMSdq      gap      omega  full diag
   1   -399.4225566 -0.399423E+03  0.270E-02    0.14       0.0  T
   2   -399.4224365  0.120046E-03  0.201E-02    0.14       1.0  T
   3   -399.4166974  0.573917E-02  0.961E-02    0.16       1.0  T
   4   -399.4225549 -0.585756E-02  0.436E-03    0.14       1.6  T
   5   -399.4225586 -0.369827E-05  0.200E-03    0.14       3.5  T
   6   -399.4225585  0.172647E-06  0.174E-03    0.14       4.0  T
   7   -399.4225594 -0.920836E-06  0.794E-04    0.14       8.8  T
   8   -399.4225596 -0.224728E-06  0.381E-04    0.14      18.4  T
     SCC iter.                  ...        0 min,  1.208 sec
     gradient                   ...        0 min,  0.332 sec
 * total energy  :  -392.2761134 Eh     change       -0.1879539E-04 Eh
   gradient norm :     0.0009888 Eh/α   predicted    -0.9328482E-05 ( -50.37%)
   displ. norm   :     0.2105221 α      lambda       -0.1139663E-04
   maximum displ.:     0.1208094 α      in ANC's #1, #3, #10, ...

........................................................................
.............................. CYCLE   40 ..............................
........................................................................

 iter      E             dE          RMSdq      gap      omega  full diag
   1   -399.4226960 -0.399423E+03  0.188E-02    0.14       0.0  T
   2   -399.4225693  0.126729E-03  0.172E-02    0.14       1.0  T
   3   -399.4203555  0.221381E-02  0.610E-02    0.15       1.0  T
   4   -399.4226936 -0.233807E-02  0.371E-03    0.14       1.9  T
   5   -399.4226967 -0.314681E-05  0.185E-03    0.14       3.8  T
   6   -399.4226976 -0.882349E-06  0.131E-03    0.14       5.3  T
   7   -399.4226985 -0.962917E-06  0.413E-04    0.14      17.0  T
   8   -399.4226986 -0.342134E-07  0.281E-04    0.14      24.9  T
     SCC iter.                  ...        0 min,  1.141 sec
     gradient                   ...        0 min,  0.298 sec
 * total energy  :  -392.2761258 Eh     change       -0.1236356E-04 Eh
   gradient norm :     0.0007490 Eh/α   predicted    -0.5812471E-05 ( -52.99%)
   displ. norm   :     0.1531100 α      lambda       -0.1007671E-04
   maximum displ.:     0.0864798 α      in ANC's #1, #3, #7, ...

........................................................................
.............................. CYCLE   41 ..............................
........................................................................

 iter      E             dE          RMSdq      gap      omega  full diag
   1   -399.4234392 -0.399423E+03  0.147E-02    0.14       0.0  T
   2   -399.4233155  0.123727E-03  0.158E-02    0.14       1.0  T
   3   -399.4223232  0.992284E-03  0.424E-02    0.15       1.0  T
   4   -399.4234342 -0.111101E-02  0.413E-03    0.14       1.7  T
   5   -399.4234390 -0.481552E-05  0.199E-03    0.14       3.5  T
   6   -399.4234410 -0.201622E-05  0.108E-03    0.14       6.5  T
   7   -399.4234413 -0.255305E-06  0.673E-04    0.14      10.4  T
   8   -399.4234415 -0.248967E-06  0.146E-04    0.14      47.9  T
     SCC iter.                  ...        0 min,  1.233 sec
     gradient                   ...        0 min,  0.360 sec
 * total energy  :  -392.2761369 Eh     change       -0.1107207E-04 Eh
   gradient norm :     0.0006093 Eh/α   predicted    -0.5095584E-05 ( -53.98%)
   displ. norm   :     0.1421277 α      lambda       -0.9496966E-05
   maximum displ.:     0.0771442 α      in ANC's #1, #3, #14, ...

........................................................................
.............................. CYCLE   42 ..............................
........................................................................

 iter      E             dE          RMSdq      gap      omega  full diag
   1   -399.4237022 -0.399424E+03  0.142E-02    0.14       0.0  T
   2   -399.4236245  0.776610E-04  0.134E-02    0.14       1.0  T
   3   -399.4224589  0.116567E-02  0.444E-02    0.15       1.0  T
   4   -399.4236935 -0.123462E-02  0.487E-03    0.14       1.4  T
   5   -399.4237013 -0.781468E-05  0.207E-03    0.14       3.4  T
   6   -399.4237036 -0.231555E-05  0.856E-04    0.14       8.2  T
   7   -399.4237037 -0.576887E-07  0.600E-04    0.14      11.7  T
   8   -399.4237039 -0.199871E-06  0.142E-04    0.14      49.5  T
     SCC iter.                  ...        0 min,  1.232 sec
     gradient                   ...        0 min,  0.326 sec
 * total energy  :  -392.2761473 Eh     change       -0.1041526E-04 Eh
   gradient norm :     0.0008235 Eh/α   predicted    -0.4793818E-05 ( -53.97%)
   displ. norm   :     0.1379689 α      lambda       -0.9091347E-05
   maximum displ.:     0.0693280 α      in ANC's #1, #3, #14, ...
 * RMSD in coord.:     0.3577391 α      energy gain  -0.4283700E-03 Eh

generating ANC from exact Hessian ...
Using Lindh-Hessian (1995)
 Shifting diagonal of input Hessian by   9.901362844006893E-003
 Lowest  eigenvalues of input Hessian
    0.000000    0.000000    0.000000    0.000000    0.000000    0.000000
    0.010000    0.010043    0.010069    0.010201    0.010260    0.010631
    0.010701    0.010768    0.010944    0.011014    0.011740    0.012055
 Highest eigenvalues
    2.156774    2.169540    2.171968    2.184954    2.217216    2.227765
 

........................................................................
.............................. CYCLE   43 ..............................
........................................................................

 iter      E             dE          RMSdq      gap      omega  full diag
   1   -399.4237670 -0.399424E+03  0.141E-02    0.14       0.0  T
   2   -399.4237627  0.423317E-05  0.854E-03    0.14       1.0  T
   3   -399.4228549  0.907880E-03  0.370E-02    0.15       1.0  T
   4   -399.4237495 -0.894615E-03  0.641E-03    0.14       1.1  T
   5   -399.4237658 -0.162933E-04  0.173E-03    0.14       4.1  T
   6   -399.4237673 -0.155520E-05  0.699E-04    0.14      10.0  T
   7   -399.4237674 -0.671915E-07  0.486E-04    0.14      14.4  T
   8   -399.4237675 -0.110152E-06  0.121E-04    0.14      57.9  T
     SCC iter.                  ...        0 min,  1.239 sec
     gradient                   ...        0 min,  0.310 sec
 * total energy  :  -392.2761568 Eh     change       -0.9535980E-05 Eh
   gradient norm :     0.0009204 Eh/α   predicted     0.0000000E+00 (-100.00%)
   displ. norm   :     0.0201208 α      lambda       -0.3662457E-05
   maximum displ.:     0.0072222 α      in ANC's #6, #15, #3, ...

........................................................................
.............................. CYCLE   44 ..............................
........................................................................

 iter      E             dE          RMSdq      gap      omega  full diag
   1   -399.4236951 -0.399424E+03  0.342E-03    0.14       0.0  T
   2   -399.4236619  0.331876E-04  0.747E-03    0.14       1.0  T
   3   -399.4236754 -0.135122E-04  0.589E-03    0.14       1.2  T
   4   -399.4236942 -0.187692E-04  0.160E-03    0.14       4.4  T
   5   -399.4236955 -0.135739E-05  0.487E-04    0.14      14.4  T
   6   -399.4236956 -0.606507E-07  0.286E-04    0.14      24.5  T
   7   -399.4236956 -0.313983E-07  0.140E-04    0.14      50.1  T
     SCC iter.                  ...        0 min,  1.040 sec
     gradient                   ...        0 min,  0.325 sec
 * total energy  :  -392.2761614 Eh     change       -0.4531772E-05 Eh
   gradient norm :     0.0004596 Eh/α   predicted    -0.1918979E-05 ( -57.65%)
   displ. norm   :     0.0581774 α      lambda       -0.5636031E-05
   maximum displ.:     0.0235842 α      in ANC's #6, #3, #15, ...

   *** GEOMETRY OPTIMIZATION CONVERGED AFTER 44 ITERATIONS ***

------------------------------------------------------------------------
 total energy gain   :        -0.0363176 Eh      -22.7896 kcal/mol
 total RMSD          :         0.4930460 a0        0.2609 Å
 total power (kW/mol):        -2.1670872 (step)   -0.9884 (real)
------------------------------------------------------------------------

 ANCopt (total)                0 d,  0 h,  1 min, 36.471 sec
 optimizer setup                ...        0 min,  0.002 sec (  0.002%)
 model hessian                  ...        0 min,  0.568 sec (  0.589%)
 ANC generation                 ...        0 min,  0.244 sec (  0.253%)
 coordinate transformation      ...        0 min,  0.012 sec (  0.012%)
 single point calculation       ...        1 min, 35.493 sec ( 98.986%)
 optimization log               ...        0 min,  0.096 sec (  0.100%)
 hessian update                 ...        0 min,  0.006 sec (  0.006%)
 rational function              ...        0 min,  0.038 sec (  0.039%)

================
 final structure:
================
204
 xtb: 6.7.1pre (5071a88)
C          -10.98604961131399       -6.93375492587969        1.58641169015105
C          -10.47707406855639       -8.21992510113165        1.61754783407174
C           -9.11807821161336       -8.39914202495705        1.55016354174242
C           -8.23842547290682       -7.31228722607232        1.45189865573623
C          -10.13357728852563       -5.84831545655467        1.50511529422553
C           -8.73221615553179       -5.98298569840559        1.43603647330239
C           -7.83084298071117       -4.86196879384002        1.33498579237509
C          -10.12966000995424       -1.91849450517932        0.77169993537803
C           -9.67886362523431       -3.18599380984106        1.12257782713662
C           -8.32123524140689       -3.53219944730374        1.14045886174880
C           -7.39555216649254       -2.47216851961059        0.94067077443053
C           -9.69923719239382        0.37146096731025       -0.01025226001665
C           -9.24351090898176       -0.88990900583802        0.52666814099746
C           -7.86661622057639       -1.15047618138568        0.76258254457585
C           -6.95283548242019       -0.09004831650213        0.71238652754946
C           -9.44583251174716        2.49009864162022       -1.26580220379432
C           -9.02942879355450        1.18319475983935       -0.85908143641149
C           -6.58000901230330        2.14925174895078       -1.09670618444952
C           -8.56295816242127        3.46824953694691       -1.58702095090036
C           -7.13791448277222        3.39885269123411       -1.30431264356223
C           -6.33055818959390        4.56590148449492       -1.13062688438975
C           -8.68711677407854        7.42075067405079       -1.73017459267361
C           -8.17371871962299        6.15835484616249       -1.69468831850693
C           -6.84278232686569        5.88550233327138       -1.27680146235134
C           -6.01219645558332        7.00728313111310       -1.02383731666963
C           -8.46222372518353        9.82070493939413       -1.31660789912665
C           -7.91239888550504        8.53425646227101       -1.35207037920111
C           -6.55054109840362        8.32387254111506       -1.02734810808516
C           -5.74626959734398        9.43905061975408       -0.68997970406142
C           -7.67546609006484       10.89112850820804       -0.96143508090544
C           -6.33743974174789       10.70341539844191       -0.65734882348663
C           -6.81536016476081       -7.53367489077064        1.46788223455024
C           -6.26232049134574       -8.80656684030225        1.23006405177968
C           -4.91800898464354       -9.02009542979324        1.00478510646057
C           -3.91306071085664       -8.11368509176193        1.27631439169165
C           -6.43845645357252       -5.07840654648895        1.43645880959575
C           -6.01022481988106       -6.40167824455622        1.62536315515204
C           -3.34367819381521       -5.36418492696334        1.74272469504958
C           -5.99681630631840       -2.70737703097814        0.93432429984898
C           -5.47741054606251       -4.00633749043515        1.22572096089246
C           -4.09204013056404       -4.18274480952539        1.18027765545476
C           -3.22186117459846       -3.14092851543711        0.78099722983942
C           -5.62117688546127       -0.32169862322492        0.43988630946386
C           -5.12455991110550       -1.64019628324699        0.61578363801745
C           -3.73547826261116       -1.85310114421494        0.52569002953615
C           -2.86441833123646       -0.76120454499382        0.28046167904288
C           -5.27776247825779        1.96465218933702       -0.56144749804839
C           -4.77384486617739        0.73589442525564       -0.03713579158592
C           -3.38803111647059        0.53786909582892        0.02745565256895
C           -2.50902338396968        1.63166724171835       -0.16504342283467
C           -4.95650865655354        4.39022531496878       -0.82753766983571
C           -4.42340600177596        3.09657224299305       -0.58503036747180
C           -3.03276501422031        2.92398717347791       -0.36920835163737
C           -2.15717847839657        4.04019543741393       -0.41774093921256
C           -4.62461085248560        6.82184711099858       -0.79378155997143
C           -4.09770495060963        5.51897684029106       -0.72856426409959
C           -2.69903686003197        5.33558930757728       -0.55513744123012
C           -1.83108798950129        6.45644054789225       -0.60250289561374
C           -4.34449512728987        9.23602601291787       -0.44182871635567
C           -3.77220633401676        7.95274520324102       -0.59768113504690
C           -2.36675297686074        7.78402001964308       -0.54581869578377
C           -1.53104457515927        8.91135451341692       -0.27972063477071
C           -3.50683290926578       10.28940925940407       -0.05194023395533
C           -2.15744565905413       10.12718282152596        0.05352170657120
C           -2.54354579100555       -8.23304499068296        0.94400996139273
C           -2.01933891953066       -9.51231169389544        0.73184013081893
C           -0.76349423063839       -9.71383739299352        0.22496516916205
C            0.07393614761170       -8.64387673961427       -0.10717514200664
C           -2.11280505815120       -5.77803226213472        0.97547257971656
C           -1.69219347325135       -7.09648556439118        0.74810790746174
C           -0.36414664769867       -7.31735901347189        0.24531319551115
C            0.50806201153456       -6.21967259459784        0.17420465539481
C           -1.82024614571641       -3.35976881821305        0.63990729921491
C           -1.30044674728239       -4.68926774875201        0.64089073540796
C            0.05848852465003       -4.91170121442196        0.30907237400270
C            0.94949469285684       -3.80531374149176        0.16294907408958
C           -1.47608198473927       -0.97123433668515        0.24441635196384
C           -0.96014707351651       -2.28618553550252        0.37010351007461
C            0.44153646708902       -2.50522282290129        0.20384454352781
C            1.31858529878790       -1.39776798082789        0.05829473696613
C           -1.11161701546513        1.42780258107052       -0.09282319611141
C           -0.59561398295329        0.12595410873143        0.05996079475026
C            0.80133483924477       -0.08548382153643        0.02847883134332
C            1.67959863138294        1.02068799668381       -0.05420437985591
C           -0.75809212882229        3.83903619919952       -0.31694566906706
C           -0.23399830604289        2.53453884205004       -0.18339333616868
C            1.16168396802213        2.33067708321213       -0.13186944865641
C            2.04075644645869        3.44499311480252       -0.12999417197468
C           -0.45934977983820        6.19055255218232       -0.65182849916387
C            0.12892674612307        4.94329829801430       -0.43203642852875
C            1.53823063554917        4.74706337109676       -0.27927415749444
C            2.43487109292130        5.85060224519109       -0.09802776874988
[...]
     7   6 C       10   6 C                                       1.4305985
     9   6 C       10   6 C                                       1.4011899
    10   6 C       11   6 C                                       1.4214325
     8   6 C       13   6 C                                       1.3795975
    11   6 C       14   6 C                                       1.4143860
    13   6 C       14   6 C                                       1.4210525
    14   6 C       15   6 C                                       1.4007221
    12   6 C       17   6 C                                       1.3520600
    16   6 C       17   6 C                                       1.4306684
    16   6 C       19   6 C                                       1.3562552
    18   6 C       20   6 C                                       1.3841466
    20   6 C       21   6 C                                       1.4296832
    22   6 C       23   6 C                                       1.3632609
    21   6 C       24   6 C                                       1.4230556
    23   6 C       24   6 C                                       1.4214324
    24   6 C       25   6 C                                       1.4185402
    22   6 C       27   6 C                                       1.4082067
    26   6 C       27   6 C                                       1.3994695
    25   6 C       28   6 C                                       1.4224048
    27   6 C       28   6 C                                       1.4157553
    28   6 C       29   6 C                                       1.4157304
    26   6 C       30   6 C                                       1.3751154
    29   6 C       31   6 C                                       1.3961252
    30   6 C       31   6 C                                       1.3849258
    32   6 C       33   6 C                                       1.4080713
    33   6 C       34   6 C                                       1.3796807
    34   6 C       35   6 C                                       1.3803004
     7   6 C       36   6 C                                       1.4127571
    32   6 C       37   6 C                                       1.3980200
    36   6 C       37   6 C                                       1.4036080
    11   6 C       39   6 C                                       1.4183884
    39   6 C       40   6 C                                       1.4289832
    40   6 C       41   6 C                                       1.3972960
    41   6 C       42   6 C                                       1.4149268
    15   6 C       43   6 C                                       1.3788521
    39   6 C       44   6 C                                       1.4146287
    43   6 C       44   6 C                                       1.4198608
    42   6 C       45   6 C                                       1.4097815
    44   6 C       45   6 C                                       1.4081880
    45   6 C       46   6 C                                       1.4181399
    18   6 C       47   6 C                                       1.4200089
    47   6 C       48   6 C                                       1.4278241
    46   6 C       49   6 C                                       1.4232973
    48   6 C       49   6 C                                       1.4013801
    49   6 C       50   6 C                                       1.4163704
    21   6 C       51   6 C                                       1.4180048
    47   6 C       52   6 C                                       1.4183527
    51   6 C       52   6 C                                       1.4200517
    50   6 C       53   6 C                                       1.4092834
    52   6 C       53   6 C                                       1.4178320
    53   6 C       54   6 C                                       1.4194818
    25   6 C       55   6 C                                       1.4186988
    51   6 C       56   6 C                                       1.4217665
    55   6 C       56   6 C                                       1.4068953
    54   6 C       57   6 C                                       1.4108628
    56   6 C       57   6 C                                       1.4212602
    57   6 C       58   6 C                                       1.4184099
    55   6 C       60   6 C                                       1.4296782
    59   6 C       60   6 C                                       1.4137236
    58   6 C       61   6 C                                       1.4326960
    60   6 C       61   6 C                                       1.4164948
    61   6 C       62   6 C                                       1.4283207
    59   6 C       63   6 C                                       1.4011808
    62   6 C       64   6 C                                       1.4077172
    63   6 C       64   6 C                                       1.3631896
    35   6 C       65   6 C                                       1.4143000
    65   6 C       66   6 C                                       1.3986896
    66   6 C       67   6 C                                       1.3691899
    67   6 C       68   6 C                                       1.3987219
    65   6 C       70   6 C                                       1.4335083
    69   6 C       70   6 C                                       1.4024722
    71   6 C       72   6 C                                       1.4038234
    42   6 C       73   6 C                                       1.4255955
    69   6 C       74   6 C                                       1.3990281
    73   6 C       74   6 C                                       1.4275014
    72   6 C       75   6 C                                       1.3896385
    74   6 C       75   6 C                                       1.4164341
    75   6 C       76   6 C                                       1.4280538
    46   6 C       77   6 C                                       1.4045960
    73   6 C       78   6 C                                       1.4018366
    77   6 C       78   6 C                                       1.4181266
    76   6 C       79   6 C                                       1.3963992
    78   6 C       79   6 C                                       1.4284035
    79   6 C       80   6 C                                       1.4201606
    50   6 C       81   6 C                                       1.4140444
    77   6 C       82   6 C                                       1.4188272
    81   6 C       82   6 C                                       1.4086916
    80   6 C       83   6 C                                       1.4108604
    82   6 C       83   6 C                                       1.4132104
    83   6 C       84   6 C                                       1.4148499
    54   6 C       85   6 C                                       1.4170631
    81   6 C       86   6 C                                       1.4153738
    85   6 C       86   6 C                                       1.4121701
    84   6 C       87   6 C                                       1.4107938
    86   6 C       87   6 C                                       1.4114332
    87   6 C       88   6 C                                       1.4193212
    58   6 C       89   6 C                                       1.3981400
    85   6 C       90   6 C                                       1.4210713
    89   6 C       90   6 C                                       1.3964317
    88   6 C       91   6 C                                       1.4036396
    90   6 C       91   6 C                                       1.4310773
    91   6 C       92   6 C                                       1.4333921
    62   6 C       93   6 C                                       1.4110929
    92   6 C       94   6 C                                       1.3870060
    94   6 C       95   6 C                                       1.4007379
    93   6 C       96   6 C                                       1.3894493
    95   6 C       97   6 C                                       1.4186598
    96   6 C       97   6 C                                       1.3738234
    68   6 C       98   6 C                                       1.4216559
    98   6 C       99   6 C                                       1.3813299
    99   6 C      100   6 C                                       1.3867343
   100   6 C      101   6 C                                       1.4089258
    72   6 C      102   6 C                                       1.4844272
   101   6 C      103   6 C                                       1.3940998
   103   6 C      104   6 C                                       1.4005923
    76   6 C      105   6 C                                       1.4276107
   102   6 C      106   6 C                                       1.4832442
   105   6 C      106   6 C                                       1.3904069
   104   6 C      107   6 C                                       1.4341044
   106   6 C      107   6 C                                       1.4059142
   107   6 C      108   6 C                                       1.4236333
    80   6 C      109   6 C                                       1.4130402
   105   6 C      110   6 C                                       1.4169327
   109   6 C      110   6 C                                       1.4112940
   108   6 C      111   6 C                                       1.4213888
   110   6 C      111   6 C                                       1.4138157
   111   6 C      112   6 C                                       1.4168706
    84   6 C      113   6 C                                       1.4139873
   109   6 C      114   6 C                                       1.4150477
   113   6 C      114   6 C                                       1.4098919
   112   6 C      115   6 C                                       1.4143762
   114   6 C      115   6 C                                       1.4140295
   115   6 C      116   6 C                                       1.4200237
    88   6 C      117   6 C                                       1.4195144
   113   6 C      118   6 C                                       1.4149998
   117   6 C      118   6 C                                       1.4088524
   116   6 C      119   6 C                                       1.4114075
   118   6 C      119   6 C                                       1.4155244
   119   6 C      120   6 C                                       1.4201984
    92   6 C      121   6 C                                       1.4235400
   117   6 C      122   6 C                                       1.4153361
   121   6 C      122   6 C                                       1.4124671
   120   6 C      123   6 C                                       1.4201021
   122   6 C      123   6 C                                       1.4133637
   123   6 C      124   6 C                                       1.4162706
    95   6 C      125   6 C                                       1.4101688
   121   6 C      126   6 C                                       1.4285690
   125   6 C      126   6 C                                       1.4058250
   124   6 C      127   6 C                                       1.4068728
   126   6 C      127   6 C                                       1.4315271
   128   6 C      129   6 C                                       1.3570463
   130   6 C      131   6 C                                       1.3937562
   131   6 C      132   6 C                                       1.3850640
   132   6 C      133   6 C                                       1.3736252
   104   6 C      134   6 C                                       1.4211254
   130   6 C      135   6 C                                       1.4198990
   134   6 C      135   6 C                                       1.4277528
   133   6 C      136   6 C                                       1.4000764
   135   6 C      136   6 C                                       1.4169489
   136   6 C      137   6 C                                       1.4060653
   108   6 C      138   6 C                                       1.4178930
   134   6 C      139   6 C                                       1.4207893
   138   6 C      139   6 C                                       1.4292095
   137   6 C      140   6 C                                       1.3644042
   139   6 C      140   6 C                                       1.4211893
   112   6 C      141   6 C                                       1.4160860
   138   6 C      142   6 C                                       1.4339027
   141   6 C      142   6 C                                       1.4228483
   142   6 C      143   6 C                                       1.4128748
   143   6 C      144   6 C                                       1.3714125
   116   6 C      145   6 C                                       1.4143616
   141   6 C      146   6 C                                       1.4214344
   145   6 C      146   6 C                                       1.4196148
   144   6 C      147   6 C                                       1.3945030
   146   6 C      147   6 C                                       1.4119426
   147   6 C      148   6 C                                       1.4016436
   120   6 C      149   6 C                                       1.4146328
   145   6 C      150   6 C                                       1.4234854
   149   6 C      150   6 C                                       1.4224382
   148   6 C      151   6 C                                       1.3650618
   150   6 C      151   6 C                                       1.4184615
   124   6 C      152   6 C                                       1.4312890
   149   6 C      153   6 C                                       1.4333544
   152   6 C      153   6 C                                       1.4082023
   153   6 C      154   6 C                                       1.4212148
   154   6 C      155   6 C                                       1.3650736
   152   6 C      157   6 C                                       1.4207490
   156   6 C      157   6 C                                       1.4116648
   155   6 C      158   6 C                                       1.4055447
   157   6 C      158   6 C                                       1.4157859
   158   6 C      159   6 C                                       1.4025759
   156   6 C      160   6 C                                       1.3883834
   159   6 C      161   6 C                                       1.3710784
   160   6 C      161   6 C                                       1.3908673
     1   6 C      162   1 H                                       1.0793561
     2   6 C      163   1 H                                       1.0788525
     3   6 C      164   1 H                                       1.0764834
     8   6 C      165   1 H                                       1.0800920
    12   6 C      166   1 H                                       1.0839812
    16   6 C      167   1 H                                       1.0805811
    22   6 C      168   1 H                                       1.0799021
    26   6 C      169   1 H                                       1.0796791
    33   6 C      170   1 H                                       1.0752398 (min)
    34   6 C      171   1 H                                       1.0798869
    66   6 C      172   1 H                                       1.0780613
    67   6 C      173   1 H                                       1.0773068
    99   6 C      174   1 H                                       1.0800061
   100   6 C      175   1 H                                       1.0760806
   131   6 C      176   1 H                                       1.0773208
   132   6 C      177   1 H                                       1.0800044
   133   6 C      178   1 H                                       1.0796242
   137   6 C      179   1 H                                       1.0798868
   144   6 C      180   1 H                                       1.0795548
   148   6 C      181   1 H                                       1.0794066
   155   6 C      182   1 H                                       1.0794117
   159   6 C      183   1 H                                       1.0795204
   161   6 C      184   1 H                                       1.0798672
    30   6 C      185   1 H                                       1.0802646
    31   6 C      186   1 H                                       1.0775349
    63   6 C      187   1 H                                       1.0773825
    64   6 C      188   1 H                                       1.0775547
    96   6 C      189   1 H                                       1.0798313
    97   6 C      190   1 H                                       1.0777624
   129   6 C      191   1 H                                       1.0760176
   160   6 C      192   1 H                                       1.0783073
   129   6 C      193  16 S                                       1.7063619
    89   6 C      194  16 S                                       1.7725774
    93   6 C      194  16 S                                       1.7823216
    94   6 C      194  16 S                                       1.7749092
    19   6 C      195  16 S                                       1.7468880
   151   6 C      197  16 S                                       1.7510473
   154   6 C      197  16 S                                       1.7494081
   140   6 C      198  16 S                                       1.7481182
   143   6 C      198  16 S                                       1.7456187
    98   6 C      199  16 S                                       1.7834256
   102   6 C      199  16 S                                       1.8390968 (max)
   103   6 C      199  16 S                                       1.7831701
    35   6 C      200  16 S                                       1.7768318
    37   6 C      200  16 S                                       1.7713292
    38   6 C      200  16 S                                       1.8244023
     5   6 C      201  16 S                                       1.7506052
     9   6 C      201  16 S                                       1.7477429
    15   6 C      202   1 H                                       1.0788677
   102   6 C      203   1 H                                       1.0998086
    38   6 C      204   1 H                                       1.1057122

 * 3 distinct bonds (by element types)

   Z      Z             #   av. dist./Å        max./Å        min./Å
   1 H    6 C          34     1.0802691     1.1057122     1.0752398
   6 C    6 C         201     1.4093987     1.4844272     1.3520600
   6 C   16 S          17     1.7678738     1.8390968     1.7063619


optimized geometry written to: xtbopt.xyz


           -------------------------------------------------
          | TOTAL ENERGY             -392.276161371147 Eh   |
          | GRADIENT NORM               0.000458224334 Eh/α |
          | HOMO-LUMO GAP               0.142872750493 eV   |
           -------------------------------------------------

------------------------------------------------------------------------
 * finished run on 2025/12/08 at 00:55:54.159     
------------------------------------------------------------------------
 total:
 * wall-time:     0 d,  0 h,  1 min, 43.764 sec
 *  cpu-time:     0 d,  0 h,  6 min, 47.500 sec
 * ratio c/w:     3.927 speedup
 SCF:
 * wall-time:     0 d,  0 h,  0 min,  6.251 sec
 *  cpu-time:     0 d,  0 h,  0 min, 24.516 sec
 * ratio c/w:     3.922 speedup
 ANC optimizer:
 * wall-time:     0 d,  0 h,  1 min, 37.384 sec
 *  cpu-time:     0 d,  0 h,  6 min, 22.469 sec
 * ratio c/w:     3.927 speedup

normal termination of xtb
