204
 energy: -392.239843772169 gnorm: 0.063030556600 xtb: 6.7.1pre (5071a88)
C          -11.03076500000000       -7.05962400000000        1.19631400000000
C          -10.49362600000000       -8.34088800000000        1.34036500000000
C           -9.13107600000000       -8.49184000000000        1.49332600000000
C           -8.26158400000000       -7.37673100000000        1.50162400000000
C          -10.19812200000000       -5.94743300000000        1.19586900000000
C           -8.78151000000000       -6.05524500000000        1.31680600000000
C           -7.89007700000000       -4.90448300000000        1.21961800000000
C          -10.19842400000000       -1.98728700000000        0.38749500000000
C           -9.75826500000000       -3.25692500000000        0.78983600000000
C           -8.39087000000000       -3.57764700000000        0.92829600000000
C           -7.46389100000000       -2.49991500000000        0.75772500000000
C           -9.76904400000000        0.33619000000000       -0.36067700000000
C           -9.31146300000000       -0.93392000000000        0.20560500000000
C           -7.93990900000000       -1.17575100000000        0.53339500000000
C           -7.02402500000000       -0.11054300000000        0.51542100000000
C           -9.52422400000000        2.55262400000000       -1.47096700000000
C           -9.09185500000000        1.20172500000000       -1.17061500000000
C           -6.61579700000000        2.20126600000000       -1.30095900000000
C           -8.63382200000000        3.55615100000000       -1.71459500000000
C           -7.18434400000000        3.46440200000000       -1.43754800000000
C           -6.38066600000000        4.63949200000000       -1.18128300000000
C           -8.80487400000000        7.51214600000000       -1.48964000000000
C           -8.26903400000000        6.25945300000000       -1.59944200000000
C           -6.90602700000000        5.97333500000000       -1.23265700000000
C           -6.07240900000000        7.08890400000000       -0.91472100000000
C           -8.58770700000000        9.89512300000000       -0.91094600000000
C           -8.01979100000000        8.61723300000000       -1.06310800000000
C           -6.63001800000000        8.40910100000000       -0.81690000000000
C           -5.81552600000000        9.52031100000000       -0.45300100000000
C           -7.79118300000000       10.96208000000000       -0.52221000000000
C           -6.42612200000000       10.77875200000000       -0.30184000000000
C           -6.83808800000000       -7.56040200000000        1.73713000000000
C           -6.25590900000000       -8.85705600000000        1.88725700000000
C           -4.90444800000000       -9.11445100000000        1.66644800000000
C           -3.89982300000000       -8.15061000000000        1.62049700000000
C           -6.49401600000000       -5.09990000000000        1.38144700000000
C           -6.05728000000000       -6.40023400000000        1.71894300000000
C           -3.37213800000000       -5.33423300000000        1.78241500000000
C           -6.05235500000000       -2.71821300000000        0.81284100000000
C           -5.52757000000000       -4.01458700000000        1.14648000000000
C           -4.13288900000000       -4.18030900000000        1.15232700000000
C           -3.25526300000000       -3.13597200000000        0.74735100000000
C           -5.67920800000000       -0.31893400000000        0.30178000000000
C           -5.17100800000000       -1.64020800000000        0.51218000000000
C           -3.77272400000000       -1.84803000000000        0.46259100000000
C           -2.89626000000000       -0.74989700000000        0.20413400000000
C           -5.31685900000000        1.99495200000000       -0.71256500000000
C           -4.82060400000000        0.75287300000000       -0.17234000000000
C           -3.42591800000000        0.55865600000000       -0.06707800000000
C           -2.53574700000000        1.65805800000000       -0.24362800000000
C           -4.99568300000000        4.45301600000000       -0.87546400000000
C           -4.45746300000000        3.13833000000000       -0.67894600000000
C           -3.06080400000000        2.96075000000000       -0.43852500000000
C           -2.17874300000000        4.08794200000000       -0.45159200000000
C           -4.66949400000000        6.89874700000000       -0.71353900000000
C           -4.13434500000000        5.58725600000000       -0.71624800000000
C           -2.72264700000000        5.39524500000000       -0.54701700000000
C           -1.84905100000000        6.52714700000000       -0.53940300000000
C           -4.38756800000000        9.32046000000000       -0.28766000000000
C           -3.80984900000000        8.03808400000000       -0.49011800000000
C           -2.38879200000000        7.86888500000000       -0.45377200000000
C           -1.54225400000000        9.00534500000000       -0.19017600000000
C           -3.53167500000000       10.38803100000000        0.06069500000000
C           -2.17178700000000       10.23564600000000        0.12896100000000
C           -2.54576600000000       -8.26720200000000        1.18512000000000
C           -2.01244900000000       -9.55683700000000        1.00604500000000
C           -0.76132200000000       -9.77868900000000        0.47128100000000
C            0.08429000000000       -8.72776400000000        0.08006100000000
C           -2.12903400000000       -5.79241900000000        1.02593800000000
C           -1.70155500000000       -7.13282700000000        0.87307200000000
C           -0.36235200000000       -7.37146300000000        0.35306700000000
C            0.49598700000000       -6.25558800000000        0.18421700000000
C           -1.84399200000000       -3.36516700000000        0.61251100000000
C           -1.32093600000000       -4.71024500000000        0.64352500000000
C            0.04318200000000       -4.94104600000000        0.28733800000000
C            0.93747000000000       -3.82504600000000        0.08601600000000
C           -1.50169800000000       -0.96575500000000        0.17836900000000
C           -0.98129200000000       -2.29089100000000        0.32094400000000
C            0.43172200000000       -2.51907000000000        0.13094300000000
C            1.31383800000000       -1.39965600000000       -0.02665700000000
C           -1.12771500000000        1.44862500000000       -0.15344400000000
C           -0.61166600000000        0.13888400000000       -0.00997800000000
C            0.79582300000000       -0.07814500000000       -0.04168000000000
C            1.68193200000000        1.03699400000000       -0.11124800000000
C           -0.76877600000000        3.87874800000000       -0.33833700000000
C           -0.24133900000000        2.56385500000000       -0.22819100000000
C            1.16273700000000        2.35901800000000       -0.16508000000000
C            2.05168200000000        3.48116300000000       -0.14062200000000
C           -0.47207500000000        6.25510300000000       -0.56901100000000
C            0.12435600000000        4.99246600000000       -0.40231700000000
C            1.54509300000000        4.79409600000000       -0.25005800000000
C            2.45312900000000        5.90578800000000       -0.04648100000000
C           -0.12104100000000        8.95555000000000       -0.22448600000000
C            2.05727000000000        7.23240000000000       -0.18155200000000
C            2.80359500000000        8.36281800000000        0.20063100000000
C            0.84882500000000        9.90189400000000        0.13186400000000
C            2.21561800000000        9.67718400000000        0.20043200000000
C            1.31450800000000       -9.04781900000000       -0.59685100000000
C            1.94437000000000      -10.26121800000000       -0.83395300000000
C            3.26076300000000      -10.41567500000000       -1.29806000000000
C            4.22024500000000       -9.37057800000000       -1.31817700000000
C            1.95783000000000       -6.48914100000000       -0.03786100000000
C            3.84222300000000       -8.02794200000000       -1.16357700000000
C            4.68708500000000       -6.91221100000000       -0.98240000000000
C            2.33910500000000       -4.04228600000000       -0.18631000000000
C            2.85074000000000       -5.32933800000000       -0.34940800000000
C            4.20392900000000       -5.57470500000000       -0.70362600000000
C            5.12770200000000       -4.47187100000000       -0.72534700000000
C            2.71254400000000       -1.60915300000000       -0.17067000000000
C            3.22891300000000       -2.92917500000000       -0.29283900000000
C            4.62005000000000       -3.14779700000000       -0.49588900000000
C            5.50933100000000       -2.02893900000000       -0.44775000000000
C            3.08776800000000        0.82464100000000       -0.11058500000000
C            3.60188000000000       -0.49514800000000       -0.18252000000000
C            5.00641600000000       -0.71259400000000       -0.25880600000000
C            5.89353000000000        0.40680400000000       -0.13403400000000
C            3.45515200000000        3.25598300000000        0.03145000000000
C            3.97370200000000        1.94049600000000       -0.01731700000000
C            5.38229700000000        1.72085200000000        0.03441000000000
C            6.27077100000000        2.81944800000000        0.27274200000000
C            3.81590900000000        5.67753200000000        0.33459800000000
C            4.33390300000000        4.35398500000000        0.28603200000000
C            5.72303600000000        4.12630500000000        0.48329100000000
C            6.55649700000000        5.20809400000000        0.90496800000000
C            4.11227000000000        8.09429300000000        0.67796500000000
C            4.66325200000000        6.78328600000000        0.70405000000000
C            6.02792900000000        6.50396600000000        1.09097100000000
C            6.88470300000000        7.54889900000000        1.64457100000000
C            6.51351100000000        8.85704500000000        1.68437400000000
C            5.65760000000000       -9.61253400000000       -1.37921800000000
C            6.18368500000000      -10.90898800000000       -1.49633300000000
C            7.55700500000000      -11.13289000000000       -1.59248400000000
C            8.43771400000000      -10.06301900000000       -1.57584800000000
C            6.09176900000000       -7.14034000000000       -1.14337800000000
C            6.55273000000000       -8.49592000000000       -1.33062800000000
C            7.95226600000000       -8.74752400000000       -1.45009900000000
C            8.84022000000000       -7.64045800000000       -1.45686800000000
C            6.52367800000000       -4.68777500000000       -0.94633100000000
C            6.99620500000000       -6.03531300000000       -1.14730000000000
C            8.38511000000000       -6.35450000000000       -1.35849300000000
C            6.91232600000000       -2.23796400000000       -0.59189700000000
C            7.41794100000000       -3.54658800000000       -0.87786500000000
C            8.82594700000000       -3.65764000000000       -1.06034800000000
C            9.68165100000000       -2.59256700000000       -0.87525400000000
C            7.29898400000000        0.19965800000000       -0.18306100000000
C            7.79326800000000       -1.11675000000000       -0.44830800000000
C            9.19290100000000       -1.31673300000000       -0.56071400000000
C           10.07300500000000       -0.22924700000000       -0.35904200000000
C            7.67988000000000        2.60765300000000        0.31042100000000
C            8.19425400000000        1.30428500000000        0.01682400000000
C            9.59930200000000        1.02499700000000       -0.08151200000000
C            7.96427000000000        4.94469700000000        1.12161100000000
C            8.52648100000000        3.70937200000000        0.73467700000000
C            9.95177100000000        3.56964500000000        0.86178700000000
C           10.71990000000000        4.48258300000000        1.53265300000000
C            8.22468900000000        7.19406400000000        2.13866200000000
C            8.77890100000000        5.94611800000000        1.74939600000000
C           10.14900300000000        5.67733600000000        2.04054900000000
C           10.90788600000000        6.59991900000000        2.79179100000000
C            8.98688200000000        8.05462100000000        2.93307400000000
C           10.31769300000000        7.75918600000000        3.25880400000000
H          -12.10304900000000       -6.92691100000000        1.08274400000000
H          -11.14578900000000       -9.20881300000000        1.33171600000000
H           -8.73135400000000       -9.49017500000000        1.60543300000000
H          -11.25434000000000       -1.84151600000000        0.17394100000000
H          -10.78949500000000        0.62871500000000       -0.10748000000000
H          -10.58949200000000        2.77535700000000       -1.45813900000000
H           -9.84758200000000        7.68071900000000       -1.74496100000000
H           -9.64834300000000       10.03126900000000       -1.10267800000000
H           -6.90423600000000       -9.71774100000000        1.95937100000000
H           -4.63258600000000      -10.14245900000000        1.44213100000000
H           -2.61036600000000      -10.41923000000000        1.27664800000000
H           -0.44139200000000      -10.80485700000000        0.32862300000000
H            1.41509600000000      -11.17206900000000       -0.56543200000000
H            3.59183200000000      -11.43009300000000       -1.47437000000000
H            5.51899300000000      -11.76377300000000       -1.51353300000000
H            7.93090700000000      -12.14860600000000       -1.68380100000000
H            9.50905000000000      -10.22357800000000       -1.65940500000000
H            9.90344500000000       -7.83025300000000       -1.57882600000000
H           10.75327100000000       -2.73305100000000       -0.98785100000000
H           11.14307700000000       -0.40469800000000       -0.42910500000000
H           11.78442200000000        4.30966500000000        1.66379200000000
H           11.94854800000000        6.37624500000000        3.00917400000000
H           10.88343300000000        8.45408900000000        3.87245300000000
H           -8.22455300000000       11.95042100000000       -0.39810200000000
H           -5.83646100000000       11.64200400000000       -0.01884100000000
H           -3.94137900000000       11.36826100000000        0.27192300000000
H           -1.56334800000000       11.09432800000000        0.38813400000000
H            0.50235100000000       10.89464400000000        0.40822900000000
H            2.84060700000000       10.52858600000000        0.43746400000000
H            7.18957300000000        9.62638800000000        2.03478900000000
H            8.55478200000000        8.97036900000000        3.32053800000000
S            5.01063900000000        9.52401000000000        1.19148600000000
S            0.57629400000000        7.57870600000000       -1.10953000000000
S           -9.29813600000000        5.04774700000000       -2.36966800000000
S           -7.53840300000000        0.82139800000000       -1.98698900000000
S           10.82514900000000        2.28652700000000        0.02894500000000
S            9.60675100000000       -5.12015900000000       -1.64249400000000
S            2.11288500000000       -7.68293900000000       -1.41529500000000
S           -4.44261300000000       -6.66799300000000        2.43145000000000
S          -11.05273600000000       -4.40453000000000        1.11320200000000
H           -7.40466300000000        0.89579900000000        0.59654200000000
H            2.37407500000000       -7.05853800000000        0.80718800000000
H           -2.98836600000000       -4.93466900000000        2.73235600000000
204
 energy: -392.258523243346 gnorm: 0.031860031570 xtb: 6.7.1pre (5071a88)
C          -11.00848250412368       -7.04785991851266        1.19961366982169
C          -10.47867615166795       -8.32316284546929        1.33691482869821
C           -9.12206826506937       -8.47192036371428        1.48894435763894
C           -8.25052963319815       -7.36510792983605        1.49443165467090
C          -10.17376267215926       -5.94328392902584        1.20097970219132
C           -8.76419074518561       -6.04721136504874        1.31284804409921
C           -7.87727007784766       -4.90202908709035        1.20923947262879
C          -10.17874749044441       -1.99271562258136        0.38305032321743
C           -9.73567393020555       -3.25405542340848        0.78929187191005
C           -8.37473614072208       -3.57825531758928        0.92354655958792
C           -7.45191418873610       -2.50271689568703        0.74726039819913
C           -9.75366873071521        0.33373673705051       -0.34441503377934
C           -9.29847436446730       -0.94124215467264        0.19482791415883
C           -7.92882005539915       -1.18349597089507        0.51219016498260
C           -7.01956052582948       -0.11487568252038        0.48646488236216
C           -9.49226835050111        2.54264462599673       -1.45967714333955
C           -9.07133037678539        1.20300822631909       -1.13229191269255
C           -6.60229054965038        2.20752482226897       -1.26560910272353
C           -8.60493739472660        3.54210160918739       -1.70962973918873
C           -7.16891957938456        3.46498638649039       -1.41792428092962
C           -6.36851450183619        4.63667141624729       -1.17166467267736
C           -8.77991122055817        7.50440469476809       -1.48793854260559
C           -8.24119828856426        6.25602786946390       -1.59699241506491
C           -6.88891560379738        5.96708528805009       -1.22817052542292
C           -6.06005914743971        7.08101041588847       -0.91307690829729
C           -8.56815458634452        9.87893045715866       -0.90876746704937
C           -8.00139074735638        8.60478461445829       -1.05724836587750
C           -6.61640958272253        8.39594078800964       -0.81604240167287
C           -5.80560684189673        9.50498387978793       -0.45656431974576
C           -7.77675925928023       10.94027205268442       -0.52469059539173
C           -6.41863017313666       10.75715149979680       -0.30714054748556
C           -6.83186131539485       -7.54547884575191        1.72643935989762
C           -6.24314778586856       -8.83378616792642        1.86693095241882
C           -4.89968851580213       -9.09467450997684        1.65244558774353
C           -3.89439359736398       -8.13282659920140        1.60731578343839
C           -6.48304982486196       -5.09235916214578        1.37530018871654
C           -6.04984391717989       -6.38928662048358        1.71251008384476
C           -3.36491587845107       -5.32513692732892        1.76691716674424
C           -6.04388767932708       -2.71698169074566        0.80538151590733
C           -5.51972593761774       -4.01017605351941        1.14415692931287
C           -4.12698109713211       -4.17211075063590        1.14594300205160
C           -3.24981790583756       -3.13166745772268        0.73699008367212
C           -5.67332626111650       -0.32294898213936        0.27511895923561
C           -5.16557512856292       -1.64059966137722        0.49946418021604
C           -3.76757703146860       -1.84552112335064        0.45258354385590
C           -2.89221408893476       -0.74798775722276        0.20127463154954
C           -5.30560995477796        1.99861334868642       -0.69805605204554
C           -4.81226322892297        0.75372877113296       -0.17372724832387
C           -3.42029875369410        0.55797448427418       -0.06855806840138
C           -2.53209346592239        1.65720555455652       -0.24218839383510
C           -4.98762771629816        4.44894299744313       -0.87072478801132
C           -4.44989546113214        3.13872234081540       -0.67274306783792
C           -3.05599381643257        2.95901278877554       -0.43717297433328
C           -2.17676346370675        4.08413223237313       -0.44423680695333
C           -4.66116834786228        6.89036593126855       -0.71334691187727
C           -4.12909373506217        5.58069430667249       -0.71411694110242
C           -2.72241615664383        5.38892781756461       -0.54072339438987
C           -1.85119597328328        6.51763023534037       -0.53572853950795
C           -4.38180290534614        9.30530478395818       -0.29236674001423
C           -3.80363363059625        8.02429202194011       -0.48689870069825
C           -2.38733048690809        7.85535906025356       -0.45144303449766
C           -1.54174569750548        8.98893990956995       -0.19235685332444
C           -3.52781993495713       10.36749124325069        0.05502843270725
C           -2.17237408254898       10.21304020036277        0.12599969860157
C           -2.54374134316762       -8.25067154934213        1.17708836794553
C           -2.00955049988669       -9.53673082282289        0.99809617883677
C           -0.76093836346446       -9.75744237166790        0.46963123616532
C            0.08382533456393       -8.70960025295302        0.07920304803564
C           -2.12310655668767       -5.78268450668448        1.01937625391140
C           -1.69875727912971       -7.11925373493304        0.86810405289499
C           -0.36389036913339       -7.35814049975053        0.35222163477791
C            0.49698372384419       -6.24766655443353        0.19140662799319
C           -1.84034592101207       -3.36000290166265        0.60314261605397
C           -1.31668686597473       -4.70056993194151        0.63487869604814
C            0.04540843509857       -4.93188565789851        0.28539609694035
C            0.93894277829230       -3.81930743323206        0.08828668129038
C           -1.49810370547571       -0.96354597132690        0.17561672570408
C           -0.97848313082221       -2.28685101731157        0.31217847608735
C            0.43173345486905       -2.51349019171778        0.12847554960481
C            1.31270776108112       -1.39699010871453       -0.02700486542375
C           -1.12657694012935        1.44796198993511       -0.15527603407575
C           -0.60993167297217        0.13930113976613       -0.00960374454544
C            0.79530209531899       -0.07641123381126       -0.04195453157078
C            1.67990681696892        1.03745036698627       -0.10967078656496
C           -0.76999962752889        3.87482909578851       -0.33100528616268
C           -0.24202778232910        2.56188649535007       -0.22353762337331
C            1.16108341918546        2.35754078952617       -0.16325233714917
C            2.04807025569065        3.47816390825282       -0.13251116868186
C           -0.47531562101421        6.24492298766557       -0.56822435238195
C            0.12167282698836        4.98667446516839       -0.39409801050304
C            1.54103341646012        4.78895748804467       -0.24124403492644
C            2.45055114363387        5.89494773779658       -0.04435310329197
C           -0.12398352029167        8.94084677840499       -0.23302261777704
C            2.05201834464247        7.21775628132048       -0.18861376060240
C            2.79651847460597        8.34141667666956        0.20413771077678
C            0.84675555082043        9.87767816920402        0.13329427784124
C            2.20651681991593        9.64549227101950        0.21057013908072
C            1.31263888225589       -9.02459384291983       -0.59071749184013
C            1.94618825516316      -10.23530926964179       -0.82144606445765
C            3.25583475031220      -10.38525676433300       -1.28148109460432
C            4.21829475731935       -9.34928968306581       -1.30811372421978
C            1.95762370972062       -6.48595214763486       -0.03593194495010
C            3.83842564666217       -8.01059503817346       -1.16150454547019
C            4.68282083801153       -6.90016569983331       -0.98081499813010
C            2.33718816910059       -4.03616440243199       -0.18321142307606
C            2.85184701954877       -5.32408818590614       -0.33735326922102
C            4.20035767048252       -5.56760657183422       -0.69728044096788
C            5.11928284414532       -4.46656153564394       -0.72095309263510
C            2.70994053375108       -1.60698890046032       -0.17060317876525
C            3.22495607819712       -2.92528232719929       -0.29302279053793
C            4.61417887086208       -3.14535569799581       -0.49347360205768
C            5.50050493820837       -2.02806485741034       -0.44562352054842
C            3.08480763561586        0.82498467262331       -0.10948598790876
C            3.59795685111364       -0.49421174998195       -0.18191354985276
C            5.00006409867633       -0.71180287142791       -0.25646682797542
C            5.88397460175256        0.40608654797419       -0.13305853696752
C            3.45034867955856        3.25415302107749        0.03420239133156
C            3.96896736002010        1.93902482740096       -0.01579081124904
C            5.37497010088994        1.71935747219999        0.03591342345185
C            6.26123633687869        2.81536941060850        0.27409142895350
C            3.81156245106443        5.66937171710380        0.33750935433807
C            4.32894873776542        4.34845807494000        0.28743478657884
C            5.71687656483824        4.12007958582314        0.48175685748688
C            6.54862655698038        5.19885557506274        0.90198289889107
C            4.10296561797879        8.07279927676880        0.67973215742894
C            4.65803906523705        6.77080950789121        0.70458517948743
C            6.02027028954595        6.49329321557122        1.08704320921874
C            6.87549390825095        7.53135164420057        1.63980415578245
C            6.50568638051473        8.83699744474741        1.67892511804955
C            5.65064306532940       -9.59500906142145       -1.37008836073730
C            6.17889443920165      -10.88518136208268       -1.49163556157530
C            7.54495317095160      -11.10987075487127       -1.58912098744995
C            8.41954935486216      -10.04648620460132       -1.57256094648247
C            6.08297758473223       -7.13074477759955       -1.13833048315339
C            6.54040103323886       -8.48175593792556       -1.32424417606701
C            7.93383365231913       -8.73581847576205       -1.44533583297954
C            8.81587544563395       -7.63192572402936       -1.45793054653954
C            6.51191196100059       -4.68264681083691       -0.93999439540071
C            6.98234447801934       -6.02652000456299       -1.14196063393583
C            8.35966609936950       -6.34852867448306       -1.35988353089057
C            6.89990242726103       -2.23662895230631       -0.58920878248765
C            7.40020812023025       -3.54381222906392       -0.87433687459747
C            8.80241089451218       -3.65049329657015       -1.05939743888969
C            9.65798912475840       -2.59013580481211       -0.87299397815815
C            7.28679774415917        0.19813552147022       -0.18122677649415
C            7.77702330825623       -1.11671364505864       -0.44428155202900
C            9.17341270158225       -1.31679998073727       -0.55349829494752
C           10.04815297107807       -0.22938998962004       -0.35943359344346
C            7.66627844032701        2.60260341524579        0.31471302653274
C            8.17651868462888        1.30135320126436        0.01891355012982
C            9.57215304753307        1.02230189948826       -0.08629385289276
C            7.94972091907746        4.93615444180275        1.12018568127163
C            8.50810169890441        3.70047276728216        0.73592378133035
C            9.92701480925505        3.57153862697960        0.85678892375632
C           10.69509064001926        4.48320171300518        1.52497484280176
C            8.21394008681301        7.18245628511201        2.12536635881206
C            8.76211899971308        5.93490587192276        1.74344185116517
C           10.12681485056925        5.66991502103603        2.03666454217005
C           10.88471753807796        6.59111128324167        2.78201420804763
C            8.97625884497927        8.03911094007160        2.91691045512895
C           10.29816265023775        7.74320992126350        3.24714726076407
H          -12.07652936729157       -6.91086128355237        1.08987058041656
H          -11.13098097410337       -9.18668430915485        1.33093999291222
H           -8.73019513435731       -9.46910672529208        1.60608310134688
H          -11.23433167910822       -1.85263268272497        0.18365552411447
H          -10.77403788727976        0.61730763722409       -0.09860102707140
H          -10.55431863722464        2.76272257384564       -1.47472602201012
H           -9.81829252936173        7.67014077620253       -1.74883693290707
H           -9.62496581704140       10.01734042734308       -1.09937321065988
H           -6.88675262303062       -9.69361171548437        1.95193152907876
H           -4.63322235871287      -10.12262136828839        1.43935030630048
H           -2.60320429233166      -10.39674945279249        1.27268727739224
H           -0.44010978876933      -10.78021689172435        0.33080049414355
H            1.42234862019824      -11.14731546100020       -0.55989160902748
H            3.58246490224626      -11.39759057644335       -1.46298173911043
H            5.52146703245994      -11.74113705222326       -1.51354251650355
H            7.91810279766546      -12.12257196851727       -1.68154257027273
H            9.48671396888973      -10.20888603940490       -1.65684077197496