204
 energy: -392.276161371147 gnorm: 0.000458224334 xtb: 6.7.1pre (5071a88)
C          -10.98604961131399       -6.93375492587969        1.58641169015105
C          -10.47707406855639       -8.21992510113165        1.61754783407174
C           -9.11807821161336       -8.39914202495705        1.55016354174242
C           -8.23842547290682       -7.31228722607232        1.45189865573623
C          -10.13357728852563       -5.84831545655467        1.50511529422553
C           -8.73221615553179       -5.98298569840559        1.43603647330239
C           -7.83084298071117       -4.86196879384002        1.33498579237509
C          -10.12966000995424       -1.91849450517932        0.77169993537803
C           -9.67886362523431       -3.18599380984106        1.12257782713662
C           -8.32123524140689       -3.53219944730374        1.14045886174880
C           -7.39555216649254       -2.47216851961059        0.94067077443053
C           -9.69923719239382        0.37146096731025       -0.01025226001665
C           -9.24351090898176       -0.88990900583802        0.52666814099746
C           -7.86661622057639       -1.15047618138568        0.76258254457585
C           -6.95283548242019       -0.09004831650213        0.71238652754946
C           -9.44583251174716        2.49009864162022       -1.26580220379432
C           -9.02942879355450        1.18319475983935       -0.85908143641149
C           -6.58000901230330        2.14925174895078       -1.09670618444952
C           -8.56295816242127        3.46824953694691       -1.58702095090036
C           -7.13791448277222        3.39885269123411       -1.30431264356223
C           -6.33055818959390        4.56590148449492       -1.13062688438975
C           -8.68711677407854        7.42075067405079       -1.73017459267361
C           -8.17371871962299        6.15835484616249       -1.69468831850693
C           -6.84278232686569        5.88550233327138       -1.27680146235134
C           -6.01219645558332        7.00728313111310       -1.02383731666963
C           -8.46222372518353        9.82070493939413       -1.31660789912665
C           -7.91239888550504        8.53425646227101       -1.35207037920111
C           -6.55054109840362        8.32387254111506       -1.02734810808516
C           -5.74626959734398        9.43905061975408       -0.68997970406142
C           -7.67546609006484       10.89112850820804       -0.96143508090544
C           -6.33743974174789       10.70341539844191       -0.65734882348663
C           -6.81536016476081       -7.53367489077064        1.46788223455024
C           -6.26232049134574       -8.80656684030225        1.23006405177968
C           -4.91800898464354       -9.02009542979324        1.00478510646057
C           -3.91306071085664       -8.11368509176193        1.27631439169165
C           -6.43845645357252       -5.07840654648895        1.43645880959575
C           -6.01022481988106       -6.40167824455622        1.62536315515204
C           -3.34367819381521       -5.36418492696334        1.74272469504958
C           -5.99681630631840       -2.70737703097814        0.93432429984898
C           -5.47741054606251       -4.00633749043515        1.22572096089246
C           -4.09204013056404       -4.18274480952539        1.18027765545476
C           -3.22186117459846       -3.14092851543711        0.78099722983942
C           -5.62117688546127       -0.32169862322492        0.43988630946386
C           -5.12455991110550       -1.64019628324699        0.61578363801745
C           -3.73547826261116       -1.85310114421494        0.52569002953615
C           -2.86441833123646       -0.76120454499382        0.28046167904288
C           -5.27776247825779        1.96465218933702       -0.56144749804839
C           -4.77384486617739        0.73589442525564       -0.03713579158592
C           -3.38803111647059        0.53786909582892        0.02745565256895
C           -2.50902338396968        1.63166724171835       -0.16504342283467
C           -4.95650865655354        4.39022531496878       -0.82753766983571
C           -4.42340600177596        3.09657224299305       -0.58503036747180
C           -3.03276501422031        2.92398717347791       -0.36920835163737
C           -2.15717847839657        4.04019543741393       -0.41774093921256
C           -4.62461085248560        6.82184711099858       -0.79378155997143
C           -4.09770495060963        5.51897684029106       -0.72856426409959
C           -2.69903686003197        5.33558930757728       -0.55513744123012
C           -1.83108798950129        6.45644054789225       -0.60250289561374
C           -4.34449512728987        9.23602601291787       -0.44182871635567
C           -3.77220633401676        7.95274520324102       -0.59768113504690
C           -2.36675297686074        7.78402001964308       -0.54581869578377
C           -1.53104457515927        8.91135451341692       -0.27972063477071
C           -3.50683290926578       10.28940925940407       -0.05194023395533
C           -2.15744565905413       10.12718282152596        0.05352170657120
C           -2.54354579100555       -8.23304499068296        0.94400996139273
C           -2.01933891953066       -9.51231169389544        0.73184013081893
C           -0.76349423063839       -9.71383739299352        0.22496516916205
C            0.07393614761170       -8.64387673961427       -0.10717514200664
C           -2.11280505815120       -5.77803226213472        0.97547257971656
C           -1.69219347325135       -7.09648556439118        0.74810790746174
C           -0.36414664769867       -7.31735901347189        0.24531319551115
C            0.50806201153456       -6.21967259459784        0.17420465539481
C           -1.82024614571641       -3.35976881821305        0.63990729921491
C           -1.30044674728239       -4.68926774875201        0.64089073540796
C            0.05848852465003       -4.91170121442196        0.30907237400270
C            0.94949469285684       -3.80531374149176        0.16294907408958
C           -1.47608198473927       -0.97123433668515        0.24441635196384
C           -0.96014707351651       -2.28618553550252        0.37010351007461
C            0.44153646708902       -2.50522282290129        0.20384454352781
C            1.31858529878790       -1.39776798082789        0.05829473696613
C           -1.11161701546513        1.42780258107052       -0.09282319611141
C           -0.59561398295329        0.12595410873143        0.05996079475026
C            0.80133483924477       -0.08548382153643        0.02847883134332
C            1.67959863138294        1.02068799668381       -0.05420437985591
C           -0.75809212882229        3.83903619919952       -0.31694566906706
C           -0.23399830604289        2.53453884205004       -0.18339333616868
C            1.16168396802213        2.33067708321213       -0.13186944865641
C            2.04075644645869        3.44499311480252       -0.12999417197468
C           -0.45934977983820        6.19055255218232       -0.65182849916387
C            0.12892674612307        4.94329829801430       -0.43203642852875
C            1.53823063554917        4.74706337109676       -0.27927415749444
C            2.43487109292130        5.85060224519109       -0.09802776874988
C           -0.12135361195832        8.86184415004769       -0.31848902437068
C            2.03320234131065        7.16674684839419       -0.27184065763644
C            2.75349345456821        8.27543661003665        0.19081904717944
C            0.80944666905550        9.77985264449489        0.15208526642960
C            2.16135756925409        9.56253806924739        0.26389629211762
C            1.28483894224966       -8.90822361191994       -0.80355168212333
C            1.91061692683237      -10.11153828372004       -1.06529146546654
C            3.20706708229052      -10.24771463460088       -1.53826570318163
C            4.16554089761006       -9.21505405917870       -1.53485466015785
C            1.95348922041292       -6.46564174605137       -0.05766380723959
C            3.79700218617864       -7.89112543891165       -1.30053439281335
C            4.65688997436700       -6.83460363912766       -0.97493788985440
C            2.34024211890712       -4.01873881281605       -0.07859472208480
C            2.85054136728122       -5.30046868751542       -0.25178267681504
C            4.19424982893260       -5.53148022079558       -0.59482157992554
C            5.11812848722912       -4.45061065824376       -0.52481743493976
C            2.71058407295414       -1.60632073675804       -0.06631436838360
C            3.22649911470666       -2.91639204009048       -0.16272560526346
C            4.61411256261113       -3.13759017866880       -0.31916954413555
C            5.49628963085823       -2.02966117765400       -0.27699438052389
C            3.07789639538081        0.81069782170745       -0.04897600891508
C            3.59365756438967       -0.50086459484698       -0.08884032950411
C            4.99023643464381       -0.71581682926729       -0.14215044381489
C            5.86574265521225        0.39820725413065       -0.04777754282973
C            3.43271068511327        3.22826721879115        0.04468885050473
C            3.95393287104410        1.91955206471263        0.02331811191736
C            5.35210515544283        1.70644403433333        0.08169722607547
C            6.22790142842258        2.80395011348847        0.29482749276839
C            3.77852111056798        5.63419415144133        0.31939050331801
C            4.29850341834147        4.32131698789587        0.28721918098108
C            5.68013201866264        4.10004963106508        0.48656745467837
C            6.50174005548581        5.17775385928530        0.89807190799156
C            4.04404887078526        8.01650715976570        0.69678155569380
C            4.60995853072292        6.72964899005046        0.70604213384233
C            5.96194033405552        6.46221157047484        1.09320069803100
C            6.79434466408869        7.49573165990072        1.65850281125089
C            6.40191749641677        8.79230202147035        1.73900398482362
C            5.58544156999855       -9.47243765858838       -1.61669232923400
C            6.08572049659742      -10.73138256347609       -1.94431203277395
C            7.44639952056960      -10.97217099090667       -2.03905034132050
C            8.34100253536691       -9.95726130420701       -1.80137500521634
C            6.05313064757581       -7.08297018868277       -1.06671545168533
C            6.49132852953675       -8.40292277969841       -1.38949321835022
C            7.87889724662110       -8.67526422776422       -1.48019643693547
C            8.78061509321036       -7.62602805838755       -1.22914323437816
C            6.51213961421010       -4.68421535208742       -0.63698689909215
C            6.97178057724401       -6.01883992086301       -0.86092176068669
C            8.34791720906408       -6.36678662181931       -0.93134782184634
C            6.89301944657284       -2.24525364999909       -0.36624123322125
C            7.40120508600685       -3.56513607088980       -0.52165859924209
C            8.80758448472740       -3.69769681503380       -0.54885290445543
C            9.65288480048252       -2.61963750066157       -0.48539205716620
C            7.26471107842522        0.19327306854759       -0.08394104538663
C            7.76096812954054       -1.12370602218139       -0.26995376162461
C            9.15641598674226       -1.32359268200669       -0.34965358344486
C           10.01925219790607       -0.22261002453304       -0.26046069000096
C            7.62755674600965        2.60121721291650        0.32723080791488
C            8.14465200395106        1.30214428438431        0.06578826005469
C            9.53301253075696        1.03536808812126       -0.04961621970769
C            7.89799867832267        4.93210959164109        1.09481695463500
C            8.46322536446832        3.70113627248254        0.70977562236769
C            9.87839783195246        3.59690275595493        0.78898115048734
C           10.65078446917300        4.53633532497930        1.40890922400456
C            8.13701836762790        7.16238266247516        2.11322135869333
C            8.70094865422234        5.93614170244663        1.69956326923579
C           10.07538441302055        5.70128966178984        1.94496131133280
C           10.82905160880183        6.62349884272007        2.68572763519261
C            8.89400815200776        8.01685216831615        2.90344685539738
C           10.22625732967063        7.74441122827998        3.19567880934646
H          -12.04947671147638       -6.75584965198683        1.63623117456262
H          -11.14098569109428       -9.06634268736440        1.69953008768883
H           -8.72744135676606       -9.40058165904731        1.60793800220032
H          -11.19262649500613       -1.76424634317791        0.65808536278671
H          -10.70052721439965        0.67750203068084        0.27041138455067
H          -10.50386284479799        2.70601793335715       -1.30587776683877
H           -9.70681840875671        7.57055616104256       -2.05259561607623
H           -9.50345921376217        9.95429541519398       -1.56897467172664
H           -6.92445696567230       -9.62310203341409        1.00426339741699
H           -4.63761824535224       -9.93239154955458        0.49956016976338
H           -2.63127498193377      -10.36958164944041        0.96170627637590
H           -0.43393551282595      -10.72419749793625        0.04846238225305
H            1.39485202372544      -11.02309736028428       -0.80173963012859
H            3.54055665390709      -11.25371081536805       -1.72456046456637
H            5.41024429561882      -11.54600031273499       -2.14617743249395
H            7.79672388509652      -11.96057708637356       -2.29738256227717
H            9.40531500432349      -10.12879442563900       -1.85971588613870
H            9.84179966628038       -7.82155896663360       -1.27169047876056
H           10.71965511949590       -2.78124222240245       -0.52177097276181
H           11.08438751929117       -0.37701365398637       -0.34270782020208
H           11.71679949272151        4.38480534401780        1.48493551998287
H           11.87453052739889        6.42186768749362        2.86372433858291
H           10.78516747014106        8.43455177292716        3.81003905566094
H           -8.09445059867455       11.88626665114917       -0.92791629122415
H           -5.75107582897144       11.57148703797608       -0.40493986164947
H           -3.92080401352817       11.25935875127808        0.16846545456812
H           -1.55160900904258       10.97017019808990        0.34241295220313
H            0.43889208024201       10.72926106473685        0.50894430474039
H            2.77621899205102       10.38204746236091        0.59844283394948
H            7.05128294587616        9.56381010861023        2.11438839733190
H            8.45804296219005        8.91135585075963        3.31883093734925
S            4.90106570479726        9.44076965035543        1.25053301672637
S            0.58012551614798        7.50302124037709       -1.23402011645226
S           -9.26112970411537        4.91166396678458       -2.28036683320518
S           -7.50158084129562        0.73385745701943       -1.66747615134573
S           10.75695863741003        2.28466712753493        0.03625495983164
S            9.63878212793390       -5.23130677566880       -0.61469334495415
S            2.07684733104128       -7.50576815555321       -1.56935039314025
S           -4.40524808725944       -6.74211571328735        2.29301479517384
S          -10.95874264353450       -4.30457239986380        1.52914440846853
H           -7.30874968996115        0.91579812337386        0.87224050840848
H            2.35643184125982       -7.12924528112163        0.72133957263921
H           -2.96168608082434       -5.01822947515793        2.72098648430907
