      -----------------------------------------------------------      
     |                   =====================                   |     
     |                           x T B                           |     
     |                   =====================                   |     
     |                         S. Grimme                         |     
     |          Mulliken Center for Theoretical Chemistry        |     
     |                    University of Bonn                     |     
      -----------------------------------------------------------      

   * xtb version 6.7.1pre (5071a88) compiled by 'Marcel@Raven' on 2024-07-23

   xtb is free software: you can redistribute it and/or modify it under
   the terms of the GNU Lesser General Public License as published by
   the Free Software Foundation, either version 3 of the License, or
   (at your option) any later version.
   
   xtb is distributed in the hope that it will be useful,
   but WITHOUT ANY WARRANTY; without even the implied warranty of
   MERCHANTABILITY or FITNESS FOR A PARTICULAR PURPOSE.  See the
   GNU Lesser General Public License for more details.
   
   Cite this work as:
   * C. Bannwarth, E. Caldeweyher, S. Ehlert, A. Hansen, P. Pracht,
     J. Seibert, S. Spicher, S. Grimme, WIREs Comput. Mol. Sci., 2020, 11,
     e01493. DOI: 10.1002/wcms.1493
   
   for GFN2-xTB:
   * C. Bannwarth, S. Ehlert and S. Grimme., J. Chem. Theory Comput., 2019,
     15, 1652-1671. DOI: 10.1021/acs.jctc.8b01176
   for GFN1-xTB:
   * S. Grimme, C. Bannwarth, P. Shushkov, J. Chem. Theory Comput., 2017,
     13, 1989-2009. DOI: 10.1021/acs.jctc.7b00118
   for GFN0-xTB:
   * P. Pracht, E. Caldeweyher, S. Ehlert, S. Grimme, ChemRxiv, 2019, preprint.
     DOI: 10.26434/chemrxiv.8326202.v1
   for GFN-FF:
   * S. Spicher and S. Grimme, Angew. Chem. Int. Ed., 2020, 59, 15665-15673.
     DOI: 10.1002/anie.202004239
   
   for ALPB and GBSA implicit solvation:
   * S. Ehlert, M. Stahn, S. Spicher, S. Grimme, J. Chem. Theory Comput.,
     2021, 17, 4250-4261. DOI: 10.1021/acs.jctc.1c00471
   
   for ddCOSMO and CPCM-X implicit solvation:
   * M. Stahn, S. Ehlert, S. Grimme, J. Phys. Chem. A,
     2023, XX, XXXX-XXXX. DOI: 10.1021/acs.jpca.3c04382
   
   for DFT-D4:
   * E. Caldeweyher, C. Bannwarth and S. Grimme, J. Chem. Phys., 2017,
     147, 034112. DOI: 10.1063/1.4993215
   * E. Caldeweyher, S. Ehlert, A. Hansen, H. Neugebauer, S. Spicher,
     C. Bannwarth and S. Grimme, J. Chem. Phys., 2019, 150, 154122.
     DOI: 10.1063/1.5090222
   * E. Caldeweyher, J.-M. Mewes, S. Ehlert and S. Grimme, Phys. Chem. Chem. Phys.
     2020, 22, 8499-8512. DOI: 10.1039/D0CP00502A
   
   for sTDA-xTB:
   * S. Grimme and C. Bannwarth, J. Chem. Phys., 2016, 145, 054103.
     DOI: 10.1063/1.4959605
   
   in the mass-spec context:
   * V. Asgeirsson, C. Bauer and S. Grimme, Chem. Sci., 2017, 8, 4879.
     DOI: 10.1039/c7sc00601b
   * J. Koopman and S. Grimme, ACS Omega 2019, 4, 12, 15120-15133.
     DOI: 10.1021/acsomega.9b02011
   
   for metadynamics refer to:
   * S. Grimme, J. Chem. Theory Comput., 2019, 155, 2847-2862
     DOI: 10.1021/acs.jctc.9b00143
   
   for SPH calculations refer to:
   * S. Spicher and S. Grimme, J. Chem. Theory Comput., 2021, 17, 1701-1714
     DOI: 10.1021/acs.jctc.0c01306
   
   for ONIOM refer to:
   * C. Plett, A. Katbashev, S. Ehlert, S. Grimme, M. Bursch,
     Phys. Chem. Chem. Phys., 2023, 25, 17860-17868. DOI: 10.1039/D3CP02178E
   
   for DIPRO refer to:
   * J. Kohn, N. Gildemeister, S. Grimme, D. Fazzi, A. Hansen,
     J. Chem. Phys., 2023, just accepted.
   
   for PTB refer to:
   * S. Grimme, M. Mueller, A. Hansen, J. Chem. Phys., 2023, 158, 124111.
     DOI: 10.1063/5.0137838
   
   with help from (in alphabetical order)
   P. Atkinson, C. Bannwarth, F. Bohle, G. Brandenburg, E. Caldeweyher
   M. Checinski, S. Dohm, S. Ehlert, S. Ehrlich, I. Gerasimov, C. Hölzer
   A. Katbashev, J. Kohn, J. Koopman, C. Lavigne, S. Lehtola, F. März, M. Müller,
   F. Musil, H. Neugebauer, J. Pisarek, C. Plett, P. Pracht, F. Pultar,
   J. Seibert, P. Shushkov, S. Spicher, M. Stahn, M. Steiner, T. Strunk,
   J. Stückrath, T. Rose, and J. Unsleber
   
 * started run on 2025/12/08 at 00:34:35.697     
   ID    Z sym.   atoms
    1    6 C      1-50
    2    1 H      51-66
    3    8 O      67-70

           -------------------------------------------------
          |                Calculation Setup                |
           -------------------------------------------------

          program call               : xtb "C:\Users\LENOVO GAMING\Documents\GitHub\molecular-conductivity-sim\results\1nm-4Odoped-5percent\xtbopt.xyz" --sp
          coordinate file            : C:\Users\LENOVO GAMING\Documents\GitHub\molecular-conductivity-sim\results\1nm-4Odoped-5percent\xtbopt.xyz
          omp threads                :                    16


           -------------------------------------------------
          |                 G F N 2 - x T B                 |
           -------------------------------------------------

        Reference                      10.1021/acs.jctc.8b01176
      * Hamiltonian:
        H0-scaling (s, p, d)           1.850000    2.230000    2.230000
        zeta-weighting                 0.500000
      * Dispersion:
        s8                             2.700000
        a1                             0.520000
        a2                             5.000000
        s9                             5.000000
      * Repulsion:
        kExp                           1.500000    1.000000
        rExp                           1.000000
      * Coulomb:
        alpha                          2.000000
        third order                    shell-resolved
        anisotropic                    true
        a3                             3.000000
        a5                             4.000000
        cn-shift                       1.200000
        cn-exp                         4.000000
        max-rad                        5.000000

q/qsh data taken from xtbrestart
CAMM data taken from xtbrestart

          ...................................................
          :                      SETUP                      :
          :.................................................:
          :  # basis functions                 232          :
          :  # atomic orbitals                 232          :
          :  # shells                          124          :
          :  # electrons                       240          :
          :  max. iterations                   250          :
          :  Hamiltonian                  GFN2-xTB          :
          :  restarted?                       true          :
          :  GBSA solvation                  false          :
          :  PC potential                    false          :
          :  electronic temp.          300.0000000     K    :
          :  accuracy                    1.0000000          :
          :  -> integral cutoff          0.2500000E+02      :
          :  -> integral neglect         0.1000000E-07      :
          :  -> SCF convergence          0.1000000E-05 Eh   :
          :  -> wf. convergence          0.1000000E-03 e    :
          :  Broyden damping             0.4000000          :
          :  net charge                          0          :
          :  unpaired electrons                  0          :
          ...................................................

 iter      E             dE          RMSdq      gap      omega  full diag
   1   -134.1055098 -0.134106E+03  0.779E-06    1.02       0.0  T
   2   -134.1055098  0.349587E-11  0.921E-06    1.02    1297.7  T
   3   -134.1055098 -0.716227E-11  0.240E-06    1.02    4990.4  T

   *** convergence criteria satisfied after 3 iterations ***

         #    Occupation            Energy/Eh            Energy/eV
      -------------------------------------------------------------
         1        2.0000           -0.7422865             -20.1986
       ...           ...                  ...                  ...
       114        2.0000           -0.3944067             -10.7324
       115        2.0000           -0.3928593             -10.6902
       116        2.0000           -0.3850900             -10.4788
       117        2.0000           -0.3723279             -10.1316
       118        2.0000           -0.3672898              -9.9945
       119        2.0000           -0.3539955              -9.6327
       120        2.0000           -0.3212592              -8.7419 (HOMO)
       121                         -0.2836052              -7.7173 (LUMO)
       122                         -0.2713440              -7.3836
       123                         -0.2627112              -7.1487
       124                         -0.2565651              -6.9815
       125                         -0.2494367              -6.7875
       ...                                ...                  ...
       232                          0.7751973              21.0942
      -------------------------------------------------------------
                  HL-Gap            0.0376540 Eh            1.0246 eV
             Fermi-level           -0.3024322 Eh           -8.2296 eV

 SCC (total)                   0 d,  0 h,  0 min,  0.084 sec
 SCC setup                      ...        0 min,  0.001 sec (  1.190%)
 Dispersion                     ...        0 min,  0.002 sec (  2.381%)
 classical contributions        ...        0 min,  0.000 sec (  0.000%)
 integral evaluation            ...        0 min,  0.009 sec ( 10.714%)
 iterations                     ...        0 min,  0.048 sec ( 57.143%)
 molecular gradient             ...        0 min,  0.021 sec ( 25.000%)
 printout                       ...        0 min,  0.002 sec (  2.381%)

         :::::::::::::::::::::::::::::::::::::::::::::::::::::
         ::                     SUMMARY                     ::
         :::::::::::::::::::::::::::::::::::::::::::::::::::::
         :: total energy            -131.801193711582 Eh    ::
         :: gradient norm              0.000256019710 Eh/a0 ::
         :: HOMO-LUMO gap              1.024616573488 eV    ::
         ::.................................................::
         :: SCC energy              -134.107450436230 Eh    ::
         :: -> isotropic ES            0.042189339428 Eh    ::
         :: -> anisotropic ES          0.008716159447 Eh    ::
         :: -> anisotropic XC          0.035556107749 Eh    ::
         :: -> dispersion             -0.131015233006 Eh    ::
         :: repulsion energy           2.306256724648 Eh    ::
         :: add. restraining           0.000000000000 Eh    ::
         :: total charge              -0.000000000000 e     ::
         :::::::::::::::::::::::::::::::::::::::::::::::::::::

           -------------------------------------------------
          |                Property Printout                |
           -------------------------------------------------

    * Orbital Energies and Occupations

         #    Occupation            Energy/Eh            Energy/eV
      -------------------------------------------------------------
         1        2.0000           -0.7422865             -20.1986
       ...           ...                  ...                  ...
       108        2.0000           -0.4138902             -11.2625
       109        2.0000           -0.4122437             -11.2177
       110        2.0000           -0.4095029             -11.1431
       111        2.0000           -0.4033313             -10.9752
       112        2.0000           -0.4017513             -10.9322
       113        2.0000           -0.3970595             -10.8045
       114        2.0000           -0.3944067             -10.7324
       115        2.0000           -0.3928593             -10.6902
       116        2.0000           -0.3850900             -10.4788
       117        2.0000           -0.3723279             -10.1316
       118        2.0000           -0.3672898              -9.9945
       119        2.0000           -0.3539955              -9.6327
       120        2.0000           -0.3212592              -8.7419 (HOMO)
       121                         -0.2836052              -7.7173 (LUMO)
       122                         -0.2713440              -7.3836
       123                         -0.2627112              -7.1487
       124                         -0.2565651              -6.9815
       125                         -0.2494367              -6.7875
       126                         -0.2416671              -6.5761
       127                         -0.2335773              -6.3560
       128                         -0.2238950              -6.0925
       129                         -0.2219087              -6.0384
       130                         -0.2175355              -5.9194
       131                         -0.2125322              -5.7833
       ...                                ...                  ...
       232                          0.7751973              21.0942
      -------------------------------------------------------------
                  HL-Gap            0.0376540 Eh            1.0246 eV
             Fermi-level           -0.3024322 Eh           -8.2296 eV

     #   Z          covCN         q      C6AA      α(0)
     1   6 C        2.904    -0.066    29.637     8.926
     2   6 C        2.911    -0.035    28.876     8.812
     3   6 C        2.813     0.101    25.747     8.314
     4   6 C        2.885     0.121    25.350     8.254
     5   6 C        2.985     0.019    27.575     8.614
     6   6 C        2.814     0.096    25.861     8.332
     7   6 C        2.912    -0.038    28.946     8.822
     8   6 C        2.913    -0.035    28.864     8.810
     9   6 C        2.981     0.007    27.851     8.657
    10   6 C        2.884     0.132    25.112     8.216
    11   6 C        2.995    -0.014    28.340     8.733
    12   6 C        2.975     0.001    27.992     8.679
    13   6 C        2.976    -0.017    28.437     8.747
    14   6 C        2.989     0.002    27.971     8.675
    15   6 C        2.992    -0.002    28.072     8.691
    16   6 C        2.914    -0.063    29.573     8.917
    17   6 C        2.980     0.012    27.733     8.638
    18   6 C        2.918    -0.047    29.174     8.857
    19   6 C        2.992    -0.016    28.394     8.741
    20   6 C        2.980     0.017    27.617     8.620
    21   6 C        2.991    -0.005    28.141     8.702
    22   6 C        2.992    -0.004    28.110     8.697
    23   6 C        2.993    -0.002    28.059     8.689
    24   6 C        2.914    -0.073    29.828     8.956
    25   6 C        2.887     0.123    25.299     8.246
    26   6 C        2.991    -0.020    28.494     8.756
    27   6 C        2.814     0.098    25.816     8.325
    28   6 C        2.991    -0.004    28.121     8.699
    29   6 C        2.992     0.000    28.012     8.682
    30   6 C        2.903    -0.065    29.619     8.924
    31   6 C        2.875     0.138    24.982     8.194
    32   6 C        2.998     0.003    27.942     8.671
    33   6 C        2.991     0.004    27.932     8.669
    34   6 C        2.979    -0.014    28.359     8.735
    35   6 C        2.975    -0.003    28.103     8.696
    36   6 C        2.992    -0.013    28.325     8.730
    37   6 C        2.878     0.136    25.023     8.201
    38   6 C        2.916    -0.075    29.882     8.964
    39   6 C        2.977     0.004    27.941     8.671
    40   6 C        2.915    -0.037    28.919     8.818
    41   6 C        2.992    -0.000    28.030     8.685
    42   6 C        2.990    -0.000    28.027     8.684
    43   6 C        2.993    -0.007    28.180     8.708
    44   6 C        2.918    -0.031    28.780     8.797
    45   6 C        2.918    -0.058    29.451     8.899
    46   6 C        2.997    -0.004    28.115     8.698
    47   6 C        2.903    -0.066    29.639     8.927
    48   6 C        2.993    -0.003    28.102     8.696
    49   6 C        2.989    -0.008    28.202     8.711
    50   6 C        2.990    -0.014    28.348     8.734
    51   1 H        0.926     0.048     2.345     2.395
    52   1 H        0.926     0.041     2.441     2.443
    53   1 H        0.926     0.045     2.388     2.417
    54   1 H        0.926     0.036     2.501     2.473
    55   1 H        0.926     0.048     2.341     2.393
    56   1 H        0.926     0.052     2.297     2.370
    57   1 H        0.926     0.034     2.529     2.487
    58   1 H        0.926     0.037     2.496     2.470
    59   1 H        0.926     0.038     2.478     2.462
    60   1 H        0.926     0.055     2.253     2.347
    61   1 H        0.926     0.050     2.322     2.383
    62   1 H        0.926     0.030     2.583     2.513
    63   1 H        0.926     0.043     2.408     2.427
    64   1 H        0.926     0.044     2.397     2.421
    65   1 H        0.926     0.031     2.575     2.509
    66   1 H        0.926     0.044     2.391     2.418
    67   8 O        1.709    -0.214    17.551     5.656
    68   8 O        1.709    -0.205    17.419     5.635
    69   8 O        1.708    -0.203    17.373     5.628
    70   8 O        1.709    -0.228    17.780     5.693

 Mol. C6AA /au·bohr⁶  :      93501.828151
 Mol. C8AA /au·bohr⁸  :    2504483.977340
 Mol. α(0) /au        :        495.158074


Wiberg/Mayer (AO) data.
largest (>0.10) Wiberg bond orders for each atom

 ---------------------------------------------------------------------------
     #   Z sym  total        # sym  WBO       # sym  WBO       # sym  WBO
 ---------------------------------------------------------------------------
     1   6 C    3.966 --     3 C    1.705     5 C    1.138    51 H    0.967
     2   6 C    3.957 --     7 C    1.649    13 C    1.198    59 H    0.968
     3   6 C    3.911 --     1 C    1.705    69 O    1.108    60 H    0.958
     4   6 C    3.842 --    13 C    1.340    19 C    1.261    69 O    1.029
     5   6 C    3.937 --    24 C    1.406    19 C    1.238     1 C    1.138
     6   6 C    3.884 --    30 C    1.704    67 O    1.093    61 H    0.960
     7   6 C    3.969 --     2 C    1.649    35 C    1.203    62 H    0.963
     8   6 C    3.957 --    40 C    1.593    34 C    1.240    52 H    0.968
     9   6 C    3.917 --    35 C    1.330    36 C    1.243    30 C    1.148
    10   6 C    3.891 --    38 C    1.464    36 C    1.230    67 O    1.031
    11   6 C    3.976 --    39 C    1.270    37 C    1.259    32 C    1.215
    12   6 C    3.960 --    33 C    1.304    40 C    1.255    39 C    1.187
    13   6 C    3.971 --     4 C    1.340    41 C    1.211     2 C    1.198
    14   6 C    3.971 --    41 C    1.273    42 C    1.256    35 C    1.219
    15   6 C    3.976 --    36 C    1.262    42 C    1.248    43 C    1.243
    16   6 C    3.959 --    37 C    1.428    44 C    1.366    53 H    0.968
    17   6 C    3.954 --    38 C    1.283    43 C    1.263    45 C    1.249
    18   6 C    3.973 --    44 C    1.509    39 C    1.312    54 H    0.963
    19   6 C    3.980 --     4 C    1.261    46 C    1.247     5 C    1.238
    20   6 C    3.964 --    45 C    1.505    50 C    1.175    47 C    1.130
    21   6 C    3.979 --    41 C    1.261    46 C    1.257    48 C    1.231
    22   6 C    3.961 --    48 C    1.298    42 C    1.241    49 C    1.204
    23   6 C    3.970 --    49 C    1.279    50 C    1.238    43 C    1.233
    24   6 C    3.969 --     5 C    1.406    31 C    1.345    55 H    0.966
    25   6 C    3.858 --    50 C    1.329    34 C    1.273    68 O    1.038
    26   6 C    3.980 --    31 C    1.300    46 C    1.245    32 C    1.186
    27   6 C    3.912 --    47 C    1.718    68 O    1.097    56 H    0.959
    28   6 C    3.981 --    32 C    1.330    48 C    1.210    33 C    1.207
    29   6 C    3.974 --    49 C    1.262    33 C    1.245    34 C    1.242
    30   6 C    3.976 --     6 C    1.704     9 C    1.148    63 H    0.961
    31   6 C    3.877 --    24 C    1.345    26 C    1.300    70 O    1.060
    32   6 C    3.959 --    28 C    1.330    11 C    1.215    26 C    1.186
    33   6 C    3.984 --    12 C    1.304    29 C    1.245    28 C    1.207
    34   6 C    3.970 --    25 C    1.273    29 C    1.242     8 C    1.240
    35   6 C    3.973 --     9 C    1.330    14 C    1.219     7 C    1.203
    36   6 C    3.965 --    15 C    1.262     9 C    1.243    10 C    1.230
    37   6 C    3.917 --    16 C    1.428    11 C    1.259    70 O    1.041
    38   6 C    3.948 --    10 C    1.464    17 C    1.283    64 H    0.966
    39   6 C    3.965 --    18 C    1.312    11 C    1.270    12 C    1.187
    40   6 C    3.973 --     8 C    1.593    12 C    1.255    57 H    0.962
    41   6 C    3.966 --    14 C    1.273    21 C    1.261    13 C    1.211
    42   6 C    3.979 --    14 C    1.256    15 C    1.248    22 C    1.241
    43   6 C    3.981 --    17 C    1.263    15 C    1.243    23 C    1.233
    44   6 C    3.972 --    18 C    1.509    16 C    1.366    58 H    0.971
    45   6 C    3.968 --    20 C    1.505    17 C    1.249    65 H    0.967
    46   6 C    3.975 --    21 C    1.257    19 C    1.247    26 C    1.245
    47   6 C    3.970 --    27 C    1.718    20 C    1.130    66 H    0.967
    48   6 C    3.963 --    22 C    1.298    21 C    1.231    28 C    1.210
    49   6 C    3.982 --    23 C    1.279    29 C    1.262    22 C    1.204
    50   6 C    3.975 --    25 C    1.329    23 C    1.238    20 C    1.175
    51   1 H    0.997 --     1 C    0.967
    52   1 H    0.997 --     8 C    0.968
    53   1 H    0.997 --    16 C    0.968
    54   1 H    0.998 --    18 C    0.963
    55   1 H    0.996 --    24 C    0.966
    56   1 H    0.996 --    27 C    0.959
    57   1 H    0.998 --    40 C    0.962
    58   1 H    0.998 --    44 C    0.971
    59   1 H    0.997 --     2 C    0.968
    60   1 H    0.996 --     3 C    0.958
    61   1 H    0.996 --     6 C    0.960
    62   1 H    0.998 --     7 C    0.963
    63   1 H    0.998 --    30 C    0.961
    64   1 H    0.997 --    38 C    0.966
    65   1 H    0.998 --    45 C    0.967
    66   1 H    0.998 --    47 C    0.967
    67   8 O    2.348 --     6 C    1.093    10 C    1.031
    68   8 O    2.363 --    27 C    1.097    25 C    1.038
    69   8 O    2.363 --     3 C    1.108     4 C    1.029
    70   8 O    2.339 --    31 C    1.060    37 C    1.041
 ---------------------------------------------------------------------------

Topologies differ in total number of bonds
Writing topology from bond orders to xtbtopo.mol

molecular dipole:
                 x           y           z       tot (Debye)
 q only:       -0.040       0.275       0.000
   full:       -0.050       0.386       0.000       0.989
molecular quadrupole (traceless):
                xx          xy          yy          xz          yz          zz
 q only:        3.578     -12.677      10.749      -0.001       0.000     -14.328
  q+dip:       16.257     -13.571      19.342      -0.001      -0.000     -35.599
   full:        6.474     -14.620      11.262      -0.001      -0.000     -17.736


           -------------------------------------------------
          | TOTAL ENERGY             -131.801193711582 Eh   |
          | GRADIENT NORM               0.000256019710 Eh/α |
          | HOMO-LUMO GAP               1.024616573488 eV   |
           -------------------------------------------------

------------------------------------------------------------------------
 * finished run on 2025/12/08 at 00:34:35.825     
------------------------------------------------------------------------
 total:
 * wall-time:     0 d,  0 h,  0 min,  0.125 sec
 *  cpu-time:     0 d,  0 h,  0 min,  1.469 sec
 * ratio c/w:    11.750 speedup
 SCF:
 * wall-time:     0 d,  0 h,  0 min,  0.084 sec
 *  cpu-time:     0 d,  0 h,  0 min,  0.922 sec
 * ratio c/w:    10.975 speedup

normal termination of xtb
