70
 energy: -131.793450918577 gnorm: 0.047510670693 xtb: 6.7.1pre (5071a88)
C           -5.65480700000000        3.67668100000000        0.00042800000000
C           -0.72774500000000        4.93608500000000       -0.00010800000000
C           -4.92326100000000        4.80604200000000        0.00044000000000
C           -2.86108400000000        3.64481400000000        0.00014200000000
C           -4.99579700000000        2.38619500000000        0.00030400000000
C            4.99813800000000        4.80465700000000       -0.00033300000000
C            0.63339400000000        4.94597000000000       -0.00029100000000
C            0.72438900000000       -4.94117300000000        0.00006100000000
C            2.82025200000000        3.72518600000000       -0.00034800000000
C            4.94557300000000        2.44506900000000        0.00019700000000
C           -3.53344200000000       -2.47685900000000       -0.00018100000000
C           -1.40972400000000       -3.73818400000000       -0.00008400000000
C           -1.46640000000000        3.70216100000000        0.00003700000000
C            0.69842000000000        2.48079500000000       -0.00016700000000
C            2.83260600000000        1.24245000000000       -0.00007700000000
C           -5.70896400000000       -3.57736700000000       -0.00029600000000
C            4.97852100000000        0.01813600000000        0.00004700000000
C           -3.66263700000000       -4.90540700000000       -0.00025300000000
C           -3.57077900000000        2.41964700000000        0.00013500000000
C            5.01026900000000       -2.43072300000000        0.00017400000000
C           -1.41474500000000        1.22285700000000       -0.00001900000000
C            0.70696500000000        0.00145900000000       -0.00009300000000
C            2.84012800000000       -1.22532400000000        0.00000800000000
C           -5.66455800000000        1.15861700000000        0.00024600000000
C            2.86696400000000       -3.66069300000000        0.00016800000000
C           -3.53001900000000       -0.02846700000000       -0.00001200000000
C            4.90432300000000       -4.85427400000000        0.00029000000000
C           -1.40580400000000       -1.25700000000000       -0.00009000000000
C            0.73191900000000       -2.48382800000000       -0.00000500000000
C            3.65815100000000        4.91080700000000       -0.00032900000000
C           -4.92895500000000       -0.03144200000000        0.00007900000000
C           -2.80243000000000       -1.25771600000000       -0.00011500000000
C           -0.70053500000000       -2.50714000000000       -0.00005200000000
C            1.45614400000000       -3.71603800000000        0.00007400000000
C            1.41414200000000        3.73293800000000       -0.00034100000000
C            3.52454600000000        2.48206900000000       -0.00004200000000
C           -4.95011700000000       -2.42407800000000       -0.00015000000000
C            5.65552800000000        1.26273100000000        0.00028700000000
C           -2.86168100000000       -3.73488800000000       -0.00019200000000
C           -0.64538500000000       -4.94601000000000       -0.00002800000000
C           -0.72576000000000        2.46651700000000       -0.00000800000000
C            1.40741800000000        1.24335700000000       -0.00012600000000
C            3.55479700000000        0.01291100000000       -0.00005700000000
C           -5.04392500000000       -4.81926000000000       -0.00034700000000
C            5.67999300000000       -1.22857400000000        0.00012300000000
C           -2.83445000000000        1.20815300000000        0.00001900000000
C            5.64703900000000       -3.73449400000000        0.00025800000000
C           -0.69765000000000       -0.01015900000000       -0.00007600000000
C            1.42696800000000       -1.24033500000000       -0.00003000000000
C            3.56750400000000       -2.45076400000000        0.00012400000000
H           -6.73663100000000        3.74800200000000        0.00055400000000
H            1.27016300000000       -5.87814700000000        0.00011700000000
H           -6.79185000000000       -3.51387700000000       -0.00038700000000
H           -3.20055100000000       -5.88569400000000       -0.00022500000000
H           -6.74888000000000        1.11652500000000        0.00029400000000
H            5.29737500000000       -5.86290200000000        0.00035200000000
H           -1.15654200000000       -5.90217700000000       -0.00006600000000
H           -5.63576600000000       -5.72997500000000       -0.00047900000000
H           -1.27755600000000        5.87108700000000       -0.00010500000000
H           -5.33044700000000        5.80904700000000        0.00062300000000
H            5.68546100000000        5.64105000000000       -0.00058000000000
H            1.14430100000000        5.90271000000000       -0.00045300000000
H            3.23290600000000        5.90622900000000       -0.00012500000000
H            6.74057300000000        1.29637200000000        0.00045400000000
H            6.76694000000000       -1.21702600000000        0.00014100000000
H            6.72831100000000       -3.81942800000000        0.00029600000000
O            5.67369900000000        3.61698500000000       -0.00014000000000
O            3.53690300000000       -4.86423500000000        0.00024100000000
O           -3.55822400000000        4.83565400000000        0.00032800000000
O           -5.62343500000000       -1.21570800000000       -0.00002300000000
70
 energy: -131.799800524761 gnorm: 0.023156033204 xtb: 6.7.1pre (5071a88)
C           -5.63438278568096        3.66118064324725        0.00044011895245
C           -0.72256552349778        4.90808403722710       -0.00012763952873
C           -4.90339879126060        4.78601849464066        0.00045797260919
C           -2.85392226099816        3.63600316477464        0.00015681119888
C           -4.97730766774141        2.37543256560730        0.00027184246493
C            4.98306360038210        4.77978058832379       -0.00028808130419
C            0.63169151202429        4.91882627886611       -0.00029373907257
C            0.71762128359298       -4.91385795264056        0.00005537896639
C            2.81092558709757        3.70727270530527       -0.00021508827205
C            4.93265073474807        2.43823137141003        0.00000832382240
C           -3.52257127647987       -2.46883259755128       -0.00014293990965
C           -1.40710702115651       -3.72022076924120       -0.00009330405934
C           -1.45919987512553        3.68297963704750        0.00000710594479
C            0.69750061739563        2.46991895506208       -0.00015015841658
C            2.82380776752266        1.23685263970155       -0.00007140709614
C           -5.68605440958879       -3.56815387547614       -0.00030077021675
C            4.95978916579631        0.01708694350076        0.00013504936375
C           -3.65123913524406       -4.88119222435930       -0.00025331190969
C           -3.55742411287418        2.41118247723566        0.00015295271164
C            4.99009644877005       -2.41795215249351        0.00016928587171
C           -1.40903311294888        1.21848762012793       -0.00003377501442
C            0.70686644516711        0.00164422239824       -0.00008075845320
C            2.83105311981202       -1.21966407071839        0.00001248139287
C           -5.64452986230101        1.15586425792418        0.00021798788777
C            2.85858633169344       -3.65162242526982        0.00014660423469
C           -3.51914203514785       -0.02727471454255       -0.00001061761984
C            4.88548714985624       -4.83200075278011        0.00028431873187
C           -1.39882821621710       -1.25148514467572       -0.00008412546436
C            0.72698659227441       -2.47161582273818       -0.00000736614218
C            3.64670684024205        4.88708657231032       -0.00027838710791
C           -4.91746441892849       -0.03539656055361        0.00005886135616
C           -2.79241375025686       -1.25316444568833       -0.00009118097115
C           -0.69803295368028       -2.49567752424061       -0.00006712803698
C            1.44908382849490       -3.69725811506337        0.00006960100982
C            1.40855408284051        3.71454518132051       -0.00023814949812
C            3.51476143338592        2.47038258113553       -0.00009644059953
C           -4.93536388464291       -2.41251500903726       -0.00015960162503
C            5.63466388274918        1.25581029090112        0.00020134323601
C           -2.85148859712243       -3.71872958511340       -0.00016464405174
C           -0.64520771490732       -4.92001980519587       -0.00003660601420
C           -0.72035404789339        2.45552721570895       -0.00006113880450
C            1.40509797541238        1.23838948871532       -0.00011388604438
C            3.54291282055466        0.01243525677874        0.00000843998265
C           -5.02421126883055       -4.79970979499542       -0.00035048940608
C            5.65767853338890       -1.22138256924308        0.00015840516052
C           -2.82321804542567        1.20398920419064        0.00003127733293
C            5.62672219579885       -3.71633841587770        0.00025353653483
C           -0.69449388859275       -0.01017561115993       -0.00007119213875
C            1.42201832540728       -1.23517620704512       -0.00003316679173
C            3.55396710117045       -2.44061301732593        0.00011264997120
H           -6.71204915122218        3.72567493566779        0.00054641478426
H            1.26477994636223       -5.84617635419560        0.00011108873814
H           -6.76430852588288       -3.51108286958116       -0.00035615083724
H           -3.19253609625134       -5.85821575125941       -0.00025222535761
H           -6.72407167861353        1.11777004467153        0.00029923402182
H            5.28406063644547       -5.83635176530992        0.00034888821605
H           -1.15472778781375       -5.87272197609265       -0.00005551725543
H           -5.61391058834045       -5.70718896730206       -0.00045317122975
H           -1.27464052133105        5.83774962665997       -0.00009525121079
H           -5.31582568461455        5.78475047193726        0.00058199817833
H            5.66537642147804        5.61760286673863       -0.00044719947915
H            1.14253250726378        5.87138470531867       -0.00043438312964
H            3.21823492630432        5.87639924011696       -0.00027146343134
H            6.71499444859788        1.28708093817353        0.00036782369394
H            6.74013119477955       -1.20955684473026        0.00017084638533
H            6.70404116757626       -3.79396131566538        0.00029817324810
O            5.66083744339830        3.60420961201488       -0.00015827254010
O            3.52793377060650       -4.85117252433680        0.00023412758381
O           -3.54869800761079        4.82464229930709        0.00031594258142
O           -5.61130614016644       -1.21322060256782       -0.00003815812784
70
 energy: -131.801143095629 gnorm: 0.006472582377 xtb: 6.7.1pre (5071a88)
C           -5.61944559856329        3.65191406058531        0.00042215114088
C           -0.71992343324294        4.89174753234221       -0.00011047199815
C           -4.88553144531829        4.77381917582117        0.00043494940837
C           -2.84798337477023        3.63131046614523        0.00015165436212
C           -4.96393692582832        2.36849362883219        0.00026131505152
C            4.97203187012424        4.76258290783122       -0.00027058906982
C            0.63202887125156        4.90334917979840       -0.00024134186344
C            0.71368053938135       -4.89810595940978        0.00004663383013
C            2.80434924598731        3.69469391746082       -0.00020717920533
C            4.92484241809024        2.43436307640730       -0.00003991555549
C           -3.51550072336068       -2.46204575407433       -0.00012417258695
C           -1.40481665902741       -3.70823144641068       -0.00009130499861
C           -1.45340973190042        3.67023119537909        0.00000121519760
C            0.69642280667903        2.46261986790845       -0.00012786715764
C            2.81721260294159        1.23251488438211       -0.00006139359591
C           -5.67026206198611       -3.56179759594319       -0.00028067228216
C            4.94698108525320        0.01602402112969        0.00012249785701
C           -3.63855883301721       -4.86711440849254       -0.00025835725761
C           -3.54690731339732        2.40663279651861        0.00015100496215
C            4.97510260936274       -2.41013972239529        0.00018488739004
C           -1.40557249699435        1.21486673458492       -0.00003628156462
C            0.70617694070758        0.00184618239685       -0.00006819522789
C            2.82358108017334       -1.21658189935061        0.00003514921975
C           -5.63145873247626        1.15401776584959        0.00020491464589
C            2.85158196803543       -3.64725258583655        0.00013104974127
C           -3.51250015024222       -0.02564764146289       -0.00000587854046
C            4.86878518353090       -4.81817758699752        0.00027264612006
C           -1.39440465174843       -1.24691851963381       -0.00007546393065
C            0.72327491973273       -2.46331434459883       -0.00001562644066
C            3.63674788767759        4.87194004980364       -0.00027828682859
C           -4.91056020563989       -0.03908155328487        0.00004712509406
C           -2.78605983042803       -1.24854140591115       -0.00007327330008
C           -0.69634625194056       -2.48730713919139       -0.00006685855859
C            1.44371762066324       -3.68519004495912        0.00005529488569
C            1.40404771736295        3.70259529817331       -0.00020964927928
C            3.50825127290523        2.46198085511095       -0.00011422319282
C           -4.92589589241815       -2.40237374723747       -0.00015097818773
C            5.62131753338186        1.25100927428240        0.00013183619009
C           -2.84326006680359       -3.70690783841948       -0.00016048756749
C           -0.64634731247922       -4.90503388399884       -0.00003724820423
C           -0.71719788093328        2.44781922290770       -0.00006192931934
C            1.40298236657667        1.23478965136366       -0.00009383858052
C            3.53389847214798        0.01110317783504        0.00002892645438
C           -5.00878035757937       -4.78875671253357       -0.00033596360141
C            5.64333727447405       -1.21668146386592        0.00019129205264
C           -2.81553576658355        1.20135530520655        0.00003290514438
C            5.61205513343115       -3.70505101360593        0.00024886241885
C           -0.69296514657097       -0.01019259969366       -0.00006890258822
C            1.41734255399889       -1.23129456915352       -0.00002386883405
C            3.54308164038013       -2.43481694593026        0.00011797838154
H           -6.69479098446967        3.70906410125767        0.00054304438436
H            1.26392768898931       -5.82658190767579        0.00010425696538
H           -6.74644317748313       -3.50751203133171       -0.00033321563352
H           -3.17805504552296       -5.84140029331950       -0.00028254009754
H           -6.70885074294292        1.11904452367675        0.00027706577986
H            5.27354642736703       -5.81934506605622        0.00034323711128
H           -1.15699417624300       -5.85478163441956       -0.00005255895258
H           -5.59630276445812       -5.69490912777748       -0.00044109934386
H           -1.27608556746938        5.81687661364647       -0.00012912203681
H           -5.30402467021982        5.76942367197533        0.00057150234246
H            5.64858591974620        5.60397994860869       -0.00035230719276
H            1.14472465329689        5.85257012477123       -0.00038398864257
H            3.20282809700976        5.85624249227561       -0.00034410768605
H            6.69943725720974        1.27918751225820        0.00024592696475
H            6.72334170008511       -1.20445390187643        0.00023256320575
H            6.68720991652531       -3.77421811961018        0.00029357260438
O            5.65165872931195        3.59650342173786       -0.00014254293876
O            3.51935241670297       -4.84374138035139        0.00022107491652
O           -3.53933335414692        4.81866326148775        0.00029648918518
O           -5.60321609428919       -1.21107705494249       -0.00004332116615
70
 energy: -131.801183285702 gnorm: 0.002830198745 xtb: 6.7.1pre (5071a88)
C           -5.61760830956450        3.65217518478411        0.00041722205865
C           -0.71978619044025        4.89174452260479       -0.00011808266213
C           -4.88213547623231        4.77352965670348        0.00042743696201
C           -2.84680699765513        3.63158751231546        0.00014233957928
C           -4.96239371449956        2.36843660814239        0.00025117282440
C            4.97046122843953        4.76134345801371       -0.00025126456842
C            0.63253601905874        4.90350203679349       -0.00023277989687
C            0.71352548080493       -4.89810078880418        0.00004004677062
C            2.80381902845992        3.69345150670582       -0.00019737263022
C            4.92476753301402        2.43428052208656       -0.00005181836790
C           -3.51514152471085       -2.46101337767718       -0.00011744791565
C           -1.40436111059726       -3.70750599058905       -0.00009245636250
C           -1.45224043644738        3.66944721499794       -0.00000438925848
C            0.69623545281418        2.46207420772966       -0.00011838289642
C            2.81667099083387        1.23192037020751       -0.00005939175087
C           -5.66849007436122       -3.56165890183315       -0.00026815535499
C            4.94602974662619        0.01563169929393        0.00011532008054
C           -3.63593781887746       -4.86682574771856       -0.00026081430147
C           -3.54534942956556        2.40703947806269        0.00014434648603
C            4.97321146913893       -2.41021785664276        0.00018883072152
C           -1.40548987327992        1.21429153018350       -0.00003263585975
C            0.70596989628998        0.00193915493600       -0.00006097682124
C            2.82257764690760       -1.21676281339756        0.00003936622317
C           -5.63054999816428        1.15422649521505        0.00019360487332
C            2.85028379129826       -3.64771686769578        0.00012705527326
C           -3.51247815228078       -0.02508495641261       -0.00000203787662
C            4.86577785633789       -4.81770357956816        0.00027212111946
C           -1.39430228599982       -1.24635566339170       -0.00007061913112
C            0.72282454968724       -2.46267349397193       -0.00001401673438
C            3.63495483512571        4.87128834001530       -0.00027626070804
C           -4.91057254333638       -0.03973442608490        0.00004672172131
C           -2.78588697969035       -1.24758054671068       -0.00006727982889
C           -0.69626204090244       -2.48653324999337       -0.00006567335693
C            1.44290396694950       -3.68454955640299        0.00005084792971
C            1.40336035678234        3.70194291430093       -0.00018979438362
C            3.50795499114954        2.46106387292200       -0.00011104077947
C           -4.92541265866648       -2.40089989372834       -0.00014278770866
C            5.62066868517667        1.25052261791758        0.00009614224685
C           -2.84222827956562       -3.70562982347452       -0.00015689919625
C           -0.64664495317194       -4.90504339301205       -0.00004041519776
C           -0.71707175639095        2.44710983191432       -0.00005829580896
C            1.40278152438405        1.23445932709192       -0.00008713625320
C            3.53294633702922        0.01046407051205        0.00002949918607
C           -5.00658815537914       -4.78882146953864       -0.00033108095640
C            5.64243320628801       -1.21682938171433        0.00019422333146
C           -2.81500658585112        1.20134443902698        0.00003257140240
C            5.61037480018598       -3.70498174363857        0.00025820672956
C           -0.69305092415317       -0.01023928314318       -0.00006246103551
C            1.41651305534748       -1.23082391197295       -0.00001804643685
C            3.54148707243071       -2.43494164705907        0.00011834289465
H           -6.69287279861364        3.70726325875796        0.00053303925922
H            1.26509906355700       -5.82572880428779        0.00009605809153
H           -6.74482481908724       -3.50711404970891       -0.00031139394778
H           -3.17372066069756       -5.84034485403165       -0.00029774363266
H           -6.70815710752233        1.12005576081208        0.00026247497644
H            5.27284577759198       -5.81815454211254        0.00032977611082
H           -1.15802684158998       -5.85424304731791       -0.00004856225504
H           -5.59343911722997       -5.69527051537566       -0.00042934067464
H           -1.27755894243568        5.81581566876033       -0.00012092693542
H           -5.30300568327167        5.76840176406977        0.00054937209744
H            5.64467492345796        5.60479204710027       -0.00032176987958
H            1.14600794000952        5.85215551529713       -0.00034379303563
H            3.19880950478464        5.85444310021439       -0.00036306335028
H            6.69898032461863        1.27731363287035        0.00018025566522
H            6.72239454431472       -1.20471743378449        0.00024779918056
H            6.68547323568114       -3.77141121162724        0.00030078921198
O            5.65047214390813        3.59652360132064       -0.00013311330302
O            3.51757507024904       -4.84376276879559        0.00021343757153
O           -3.53720597575654        4.81889675324201        0.00028093575028
O           -5.60260683274477       -1.21090308370417       -0.00004183527569
70
 energy: -131.801192961514 gnorm: 0.000732717671 xtb: 6.7.1pre (5071a88)
C           -5.61711317750504        3.65307706894395        0.00039844814418
C           -0.71968871771450        4.89249972392682       -0.00010580178234
C           -4.88053922204474        4.77398868251230        0.00040329239223
C           -2.84629145699178        3.63208724006621        0.00012977424273
C           -4.96201493154130        2.36885922258989        0.00023933167502
C            4.96997380014069        4.76132242943108       -0.00023726718484
C            0.63282534728185        4.90432312913661       -0.00020659666221
C            0.71352666785824       -4.89884860692406        0.00003434345624
C            2.80386911508858        3.69317838137486       -0.00019210696153
C            4.92527782297775        2.43444324223298       -0.00005679168149
C           -3.51527849060892       -2.46074470305271       -0.00011146249065
C           -1.40421342637085       -3.70769517796918       -0.00009187883591
C           -1.45159256202102        3.66950298023709       -0.00000592855141
C            0.69622365548813        2.46209857849055       -0.00010823479862
C            2.81677001323162        1.23173398400792       -0.00005613170467
C           -5.66798840288190       -3.56203343043188       -0.00024921186803
C            4.94611681629442        0.01535648440672        0.00009887899952
C           -3.63515046597265       -4.86727607207445       -0.00026217361545
C           -3.54480796048235        2.40765779521671        0.00013541786299
C            4.97267320159262       -2.41075405422505        0.00019217947528
C           -1.40563171050543        1.21405222430682       -0.00002805397127
C            0.70595579647160        0.00201307888619       -0.00005342157486
C            2.82241262549430       -1.21707244146520        0.00004239589416
C           -5.63052213069775        1.15466038814533        0.00018363570953
C            2.84976333564752       -3.64831925977058        0.00012250445529
C           -3.51289185717173       -0.02471949267140        0.00000129021006
C            4.86451050951862       -4.81811248251632        0.00026598021109
C           -1.39447255831537       -1.24630795043353       -0.00006415616338
C            0.72271160365393       -2.46265071135709       -0.00001175785235
C            3.63431327528775        4.87167314099357       -0.00027293850538
C           -4.91106803274187       -0.04001467710335        0.00004600884673
C           -2.78613027644440       -1.24719780762291       -0.00006068455656
C           -0.69632463033612       -2.48653252912137       -0.00006226750774
C            1.44259732927612       -3.68465962691768        0.00004686596101
C            1.40310789223766        3.70208529564418       -0.00017589128740
C            3.50817877134446        2.46084208944780       -0.00010604820730
C           -4.92564331316436       -2.40045565315226       -0.00013212352501
C            5.62094889845387        1.25044299290204        0.00006321107238
C           -2.84205863730854       -3.70541095980688       -0.00015565539525
C           -0.64669264802264       -4.90581258617514       -0.00004173196388
C           -0.71712127349551        2.44700712881913       -0.00005246099360
C            1.40288365204718        1.23446325762889       -0.00007878942977
C            3.53288564889831        0.01004827603302        0.00002697057948
C           -5.00603088095120       -4.78934451925983       -0.00031965915922
C            5.64251564438642       -1.21728966851582        0.00019089460538
C           -2.81508707734407        1.20151334659957        0.00003202632026
C            5.61004505840968       -3.70571933100956        0.00026340329987
C           -0.69315256421769       -0.01031938642898       -0.00005500042073
C            1.41624664359563       -1.23069467962126       -0.00001235615423
C            3.54104096914400       -2.43531436364946        0.00011798578296
H           -6.69238212249676        3.70686815777447        0.00051893127863
H            1.26608790148466       -5.82590143066701        0.00008573910510
H           -6.74450163181689       -3.50716497008942       -0.00028474437345
H           -3.17191206244505       -5.84029420062210       -0.00031179565463
H           -6.70834760198052        1.12119370761639        0.00024590284550
H            5.27352136671846       -5.81799700480086        0.00032105816686
H           -1.15840022584425       -5.85478915682104       -0.00004882638710
H           -5.59253002047881       -5.69604846859769       -0.00041799933703
H           -1.27861466301898        5.81585672972055       -0.00011512381280
H           -5.30347509742260        5.76824089418005        0.00052743558525
H            5.64222704628230        5.60653366029070       -0.00029687694078
H            1.14666244666711        5.85273232573603       -0.00030360049092
H            3.19663220719081        5.85404688833786       -0.00036631266555
H            6.69947278093822        1.27602195493624        0.00011998993289
H            6.72251733726748       -1.20545650292016        0.00025142470337
H            6.68516106868968       -3.77024038478631        0.00031298029509
O            5.65008806485318        3.59707195205882       -0.00012259373025
O            3.51693648287995       -4.84416182194339        0.00020294657207
O           -3.53625928293481        4.81941594275539        0.00025848050226
O           -5.60256468350235       -1.21095926286282       -0.00003727198580
70
 energy: -131.801193711313 gnorm: 0.000256497309 xtb: 6.7.1pre (5071a88)
C           -5.61731539157411        3.65350667710278        0.00037996436159
C           -0.71958723620787        4.89275666356450       -0.00009602113177
C           -4.88048368011791        4.77424905455737        0.00038153958510
C           -2.84630782580432        3.63224513891429        0.00012087629873
C           -4.96218391122162        2.36907724618806        0.00022635703784
C            4.97016018334258        4.76149383754747       -0.00022895806059
C            0.63286741757318        4.90455741415741       -0.00018814446498
C            0.71348571588688       -4.89915153609159        0.00002924743898
C            2.80405399272628        3.69326432458452       -0.00018205641089
C            4.92560452287368        2.43451320591968       -0.00006045374633
C           -3.51541566174873       -2.46088560875301       -0.00010609094035
C           -1.40430306783818       -3.70794682913235       -0.00009072436582
C           -1.45150595842554        3.66964747168601       -0.00000462436127
C            0.69630536730390        2.46221429420559       -0.00009870224620
C            2.81697121657606        1.23177125088635       -0.00005351519887
C           -5.66818577118651       -3.56221771906040       -0.00023294126230
C            4.94637932509431        0.01530793970900        0.00008563295967
C           -3.63553545078591       -4.86750403659006       -0.00026069478674
C           -3.54490240406772        2.40787100917965        0.00012779062906
C            4.97285973145330       -2.41096463003229        0.00018890866215
C           -1.40570832139440        1.21405173681566       -0.00002386909065
C            0.70601985117515        0.00201056610022       -0.00004857278160
C            2.82261064537756       -1.21719151771813        0.00004247630102
C           -5.63066148660180        1.15489687649110        0.00017444793058
C            2.84982844770516       -3.64849686994028        0.00011790477966
C           -3.51310511839068       -0.02464402676234        0.00000411526443
C            4.86461071697287       -4.81836014945355        0.00026338818633
C           -1.39458289810157       -1.24645822296479       -0.00005909994876