70
 energy: -131.801193711577 gnorm: 0.000255920137 xtb: 6.7.1pre (5071a88)
C           -5.61731539157411        3.65350667710278        0.00037996436159
C           -0.71958723620787        4.89275666356450       -0.00009602113177
C           -4.88048368011791        4.77424905455737        0.00038153958510
C           -2.84630782580432        3.63224513891429        0.00012087629873
C           -4.96218391122162        2.36907724618806        0.00022635703784
C            4.97016018334258        4.76149383754747       -0.00022895806059
C            0.63286741757318        4.90455741415741       -0.00018814446498
C            0.71348571588688       -4.89915153609159        0.00002924743898
C            2.80405399272628        3.69326432458452       -0.00018205641089
C            4.92560452287368        2.43451320591968       -0.00006045374633
C           -3.51541566174873       -2.46088560875301       -0.00010609094035
C           -1.40430306783818       -3.70794682913235       -0.00009072436582
C           -1.45150595842554        3.66964747168601       -0.00000462436127
C            0.69630536730390        2.46221429420559       -0.00009870224620
C            2.81697121657606        1.23177125088635       -0.00005351519887
C           -5.66818577118651       -3.56221771906040       -0.00023294126230
C            4.94637932509431        0.01530793970900        0.00008563295967
C           -3.63553545078591       -4.86750403659006       -0.00026069478674
C           -3.54490240406772        2.40787100917965        0.00012779062906
C            4.97285973145330       -2.41096463003229        0.00018890866215
C           -1.40570832139440        1.21405173681566       -0.00002386909065
C            0.70601985117515        0.00201056610022       -0.00004857278160
C            2.82261064537756       -1.21719151771813        0.00004247630102
C           -5.63066148660180        1.15489687649110        0.00017444793058
C            2.84982844770516       -3.64849686994028        0.00011790477966
C           -3.51310511839068       -0.02464402676234        0.00000411526443
C            4.86461071697287       -4.81836014945355        0.00026338818633
C           -1.39458289810157       -1.24645822296479       -0.00005909994876
C            0.72276760647864       -2.46279629594117       -0.00000990733339
C            3.63448555585036        4.87197756467363       -0.00026341759390
C           -4.91132433961759       -0.03996667460851        0.00004614981005
C           -2.78628065074222       -1.24724960663094       -0.00005558039940
C           -0.69641054462499       -2.48675706835497       -0.00005900283063
C            1.44265142054652       -3.68482545559030        0.00004399873360
C            1.40318591887194        3.70222830530948       -0.00016226361237
C            3.50836707564567        2.46092304151750       -0.00010194295131
C           -4.92590299011772       -2.40058425832808       -0.00012271469894
C            5.62123598098582        1.25053448111626        0.00004396521200
C           -2.84226737786567       -3.70561161367973       -0.00015307715965
C           -0.64665082443718       -4.90613174888789       -0.00004427928477
C           -0.71715901328194        2.44709699857299       -0.00004632675413
C            1.40302292709228        1.23453226568043       -0.00007262538321
C            3.53311299266093        0.00998055844133        0.00002435368005
C           -5.00637760056622       -4.78949810993351       -0.00030949205131
C            5.64271811292373       -1.21746503710669        0.00017912426047
C           -2.81524105069014        1.20160286884486        0.00003223306145
C            5.61035708749738       -3.70610482055050        0.00026657384049
C           -0.69315332421902       -0.01037087633522       -0.00004939520486
C            1.41632724934323       -1.23076609970271       -0.00000923702732
C            3.54125539331339       -2.43543469184247        0.00011552056718
H           -6.69257926866920        3.70705495696149        0.00049732879837
H            1.26633542927244       -5.82603978837748        0.00007739089307
H           -6.74474613146298       -3.50721371179164       -0.00026012187814
H           -3.17219152919948       -5.84043370688421       -0.00031753076871
H           -6.70852828234085        1.12176714131336        0.00023321798509
H            5.27441979846560       -5.81798546106845        0.00031528035613
H           -1.15833839941602       -5.85514284042783       -0.00005169827246
H           -5.59288787902047       -5.69624603985566       -0.00040459643736
H           -1.27881509685367        5.81592585119513       -0.00009795845045
H           -5.30430902032894        5.76819124661376        0.00049711223038
H            5.64164370262593        5.60736947723278       -0.00028645482862
H            1.14666477248857        5.85299742893956       -0.00026872397693
H            3.19644620399151        5.85413434910035       -0.00035655324510
H            6.69980065339028        1.27559164066089        0.00008704625327
H            6.72274094392061       -1.20584366994902        0.00023873722749
H            6.68547539566672       -3.77011049318025        0.00032184032703
O            5.65019942007053        3.59735742857886       -0.00011746405288
O            3.51716922095979       -4.84431683590864        0.00019356297411
O           -3.53633406869668        4.81962247704399        0.00023802290792
O           -5.60267142050494       -1.21100773797165       -0.00003127556034
