      -----------------------------------------------------------      
     |                   =====================                   |     
     |                           x T B                           |     
     |                   =====================                   |     
     |                         S. Grimme                         |     
     |          Mulliken Center for Theoretical Chemistry        |     
     |                    University of Bonn                     |     
      -----------------------------------------------------------      

   * xtb version 6.7.1pre (5071a88) compiled by 'Marcel@Raven' on 2024-07-23

   xtb is free software: you can redistribute it and/or modify it under
   the terms of the GNU Lesser General Public License as published by
   the Free Software Foundation, either version 3 of the License, or
   (at your option) any later version.
   
   xtb is distributed in the hope that it will be useful,
   but WITHOUT ANY WARRANTY; without even the implied warranty of
   MERCHANTABILITY or FITNESS FOR A PARTICULAR PURPOSE.  See the
   GNU Lesser General Public License for more details.
   
   Cite this work as:
   * C. Bannwarth, E. Caldeweyher, S. Ehlert, A. Hansen, P. Pracht,
     J. Seibert, S. Spicher, S. Grimme, WIREs Comput. Mol. Sci., 2020, 11,
     e01493. DOI: 10.1002/wcms.1493
   
   for GFN2-xTB:
   * C. Bannwarth, S. Ehlert and S. Grimme., J. Chem. Theory Comput., 2019,
     15, 1652-1671. DOI: 10.1021/acs.jctc.8b01176
   for GFN1-xTB:
   * S. Grimme, C. Bannwarth, P. Shushkov, J. Chem. Theory Comput., 2017,
     13, 1989-2009. DOI: 10.1021/acs.jctc.7b00118
   for GFN0-xTB:
   * P. Pracht, E. Caldeweyher, S. Ehlert, S. Grimme, ChemRxiv, 2019, preprint.
     DOI: 10.26434/chemrxiv.8326202.v1
   for GFN-FF:
   * S. Spicher and S. Grimme, Angew. Chem. Int. Ed., 2020, 59, 15665-15673.
     DOI: 10.1002/anie.202004239
   
   for ALPB and GBSA implicit solvation:
   * S. Ehlert, M. Stahn, S. Spicher, S. Grimme, J. Chem. Theory Comput.,
     2021, 17, 4250-4261. DOI: 10.1021/acs.jctc.1c00471
   
   for ddCOSMO and CPCM-X implicit solvation:
   * M. Stahn, S. Ehlert, S. Grimme, J. Phys. Chem. A,
     2023, XX, XXXX-XXXX. DOI: 10.1021/acs.jpca.3c04382
   
   for DFT-D4:
   * E. Caldeweyher, C. Bannwarth and S. Grimme, J. Chem. Phys., 2017,
     147, 034112. DOI: 10.1063/1.4993215
   * E. Caldeweyher, S. Ehlert, A. Hansen, H. Neugebauer, S. Spicher,
     C. Bannwarth and S. Grimme, J. Chem. Phys., 2019, 150, 154122.
     DOI: 10.1063/1.5090222
   * E. Caldeweyher, J.-M. Mewes, S. Ehlert and S. Grimme, Phys. Chem. Chem. Phys.
     2020, 22, 8499-8512. DOI: 10.1039/D0CP00502A
   
   for sTDA-xTB:
   * S. Grimme and C. Bannwarth, J. Chem. Phys., 2016, 145, 054103.
     DOI: 10.1063/1.4959605
   
   in the mass-spec context:
   * V. Asgeirsson, C. Bauer and S. Grimme, Chem. Sci., 2017, 8, 4879.
     DOI: 10.1039/c7sc00601b
   * J. Koopman and S. Grimme, ACS Omega 2019, 4, 12, 15120-15133.
     DOI: 10.1021/acsomega.9b02011
   
   for metadynamics refer to:
   * S. Grimme, J. Chem. Theory Comput., 2019, 155, 2847-2862
     DOI: 10.1021/acs.jctc.9b00143
   
   for SPH calculations refer to:
   * S. Spicher and S. Grimme, J. Chem. Theory Comput., 2021, 17, 1701-1714
     DOI: 10.1021/acs.jctc.0c01306
   
   for ONIOM refer to:
   * C. Plett, A. Katbashev, S. Ehlert, S. Grimme, M. Bursch,
     Phys. Chem. Chem. Phys., 2023, 25, 17860-17868. DOI: 10.1039/D3CP02178E
   
   for DIPRO refer to:
   * J. Kohn, N. Gildemeister, S. Grimme, D. Fazzi, A. Hansen,
     J. Chem. Phys., 2023, just accepted.
   
   for PTB refer to:
   * S. Grimme, M. Mueller, A. Hansen, J. Chem. Phys., 2023, 158, 124111.
     DOI: 10.1063/5.0137838
   
   with help from (in alphabetical order)
   P. Atkinson, C. Bannwarth, F. Bohle, G. Brandenburg, E. Caldeweyher
   M. Checinski, S. Dohm, S. Ehlert, S. Ehrlich, I. Gerasimov, C. Hölzer
   A. Katbashev, J. Kohn, J. Koopman, C. Lavigne, S. Lehtola, F. März, M. Müller,
   F. Musil, H. Neugebauer, J. Pisarek, C. Plett, P. Pracht, F. Pultar,
   J. Seibert, P. Shushkov, S. Spicher, M. Stahn, M. Steiner, T. Strunk,
   J. Stückrath, T. Rose, and J. Unsleber
   
 * started run on 2025/12/08 at 00:34:51.800     
   ID    Z sym.   atoms
    1    6 C      1-49
    2    1 H      50-66, 70, 73
    3   15 P      67-69, 71, 72

           -------------------------------------------------
          |                Calculation Setup                |
           -------------------------------------------------

          program call               : xtb "C:\Users\LENOVO GAMING\Documents\GitHub\molecular-conductivity-sim\dataset\1nm-5Pdoped-7percent.xyz" --opt --parallel 4
          coordinate file            : C:\Users\LENOVO GAMING\Documents\GitHub\molecular-conductivity-sim\dataset\1nm-5Pdoped-7percent.xyz
          omp threads                :                     4


           -------------------------------------------------
          |                 G F N 2 - x T B                 |
           -------------------------------------------------

        Reference                      10.1021/acs.jctc.8b01176
      * Hamiltonian:
        H0-scaling (s, p, d)           1.850000    2.230000    2.230000
        zeta-weighting                 0.500000
      * Dispersion:
        s8                             2.700000
        a1                             0.520000
        a2                             5.000000
        s9                             5.000000
      * Repulsion:
        kExp                           1.500000    1.000000
        rExp                           1.000000
      * Coulomb:
        alpha                          2.000000
        third order                    shell-resolved
        anisotropic                    true
        a3                             3.000000
        a5                             4.000000
        cn-shift                       1.200000
        cn-exp                         4.000000
        max-rad                        5.000000


          ...................................................
          :                      SETUP                      :
          :.................................................:
          :  # basis functions                 265          :
          :  # atomic orbitals                 260          :
          :  # shells                          132          :
          :  # electrons                       240          :
          :  max. iterations                   250          :
          :  Hamiltonian                  GFN2-xTB          :
          :  restarted?                      false          :
          :  GBSA solvation                  false          :
          :  PC potential                    false          :
          :  electronic temp.          300.0000000     K    :
          :  accuracy                    1.0000000          :
          :  -> integral cutoff          0.2500000E+02      :
          :  -> integral neglect         0.1000000E-07      :
          :  -> SCF convergence          0.1000000E-05 Eh   :
          :  -> wf. convergence          0.1000000E-03 e    :
          :  Broyden damping             0.4000000          :
          :  net charge                          0          :
          :  unpaired electrons                  0          :
          ...................................................

 iter      E             dE          RMSdq      gap      omega  full diag
   1   -129.3667102 -0.129367E+03  0.518E+00    0.38       0.0  T
   2   -129.2502732  0.116437E+00  0.343E+00    0.57       1.0  T
   3   -127.9482619  0.130201E+01  0.331E+00    0.19       1.0  T
   4   -129.3279140 -0.137965E+01  0.904E-01    0.33       1.0  T
   5   -129.3291711 -0.125705E-02  0.123E+00    0.61       1.0  T
   6   -129.3793837 -0.502126E-01  0.927E-01    0.47       1.0  T
   7   -129.4183230 -0.389393E-01  0.531E-01    0.35       1.0  T
   8   -129.4347801 -0.164571E-01  0.225E-01    0.30       1.0  T
   9   -129.4386735 -0.389342E-02  0.632E-02    0.30       1.0  T
  10   -129.4385553  0.118245E-03  0.762E-02    0.31       1.0  T
  11   -129.4388869 -0.331593E-03  0.124E-02    0.30       1.0  T
  12   -129.4388946 -0.770698E-05  0.492E-03    0.30       2.4  T
  13   -129.4388952 -0.580345E-06  0.293E-03    0.30       4.0  T
  14   -129.4388956 -0.449558E-06  0.987E-04    0.30      11.9  T
  15   -129.4388957 -0.396359E-07  0.786E-04    0.30      14.9  T

   *** convergence criteria satisfied after 15 iterations ***

         #    Occupation            Energy/Eh            Energy/eV
      -------------------------------------------------------------
         1        2.0000           -0.6850182             -18.6403
       ...           ...                  ...                  ...
       114        2.0000           -0.3910397             -10.6407
       115        2.0000           -0.3873926             -10.5415
       116        2.0000           -0.3835208             -10.4361
       117        2.0000           -0.3735838             -10.1657
       118        2.0000           -0.3717172             -10.1149
       119        2.0000           -0.3586557              -9.7595
       120        1.9944           -0.3307015              -8.9988 (HOMO)
       121        0.0056           -0.3195297              -8.6948 (LUMO)
       122                         -0.2961878              -8.0597
       123                         -0.2774157              -7.5489
       124                         -0.2687581              -7.3133
       125                         -0.2625961              -7.1456
       ...                                ...                  ...
       260                          0.9629749              26.2039
      -------------------------------------------------------------
                  HL-Gap            0.0111718 Eh            0.3040 eV
             Fermi-level           -0.3251156 Eh           -8.8468 eV

 SCC (total)                   0 d,  0 h,  0 min,  0.350 sec
 SCC setup                      ...        0 min,  0.001 sec (  0.286%)
 Dispersion                     ...        0 min,  0.003 sec (  0.857%)
 classical contributions        ...        0 min,  0.000 sec (  0.000%)
 integral evaluation            ...        0 min,  0.018 sec (  5.143%)
 iterations                     ...        0 min,  0.266 sec ( 76.000%)
 molecular gradient             ...        0 min,  0.060 sec ( 17.143%)
 printout                       ...        0 min,  0.001 sec (  0.286%)

         :::::::::::::::::::::::::::::::::::::::::::::::::::::
         ::                     SUMMARY                     ::
         :::::::::::::::::::::::::::::::::::::::::::::::::::::
         :: total energy            -127.313552409408 Eh    ::
         :: gradient norm              0.045022420810 Eh/a0 ::
         :: HOMO-LUMO gap              0.303999053665 eV    ::
         ::.................................................::
         :: SCC energy              -129.440204847109 Eh    ::
         :: -> isotropic ES            0.003683090371 Eh    ::
         :: -> anisotropic ES          0.004336073000 Eh    ::
         :: -> anisotropic XC          0.056415274934 Eh    ::
         :: -> dispersion             -0.149130520534 Eh    ::
         :: repulsion energy           2.126652437701 Eh    ::
         :: add. restraining           0.000000000000 Eh    ::
         :: total charge              -0.000000000000 e     ::
         :::::::::::::::::::::::::::::::::::::::::::::::::::::

      ----------------------------------------------------------- 
     |                   =====================                   |
     |                        A N C O P T                        |
     |                   =====================                   |
     |               Approximate Normal Coordinate               |
     |                Rational Function Optimizer                |
      ----------------------------------------------------------- 
      ----------------------------------------------------------- 
     |                   =====================                   |
     |                        A N C O P T                        |
     |                   =====================                   |
     |               Approximate Normal Coordinate               |
     |                Rational Function Optimizer                |
      ----------------------------------------------------------- 

          ...................................................
          :                      SETUP                      :
          :.................................................:
          :   optimization level            normal          :
          :   max. optcycles                   219          :
          :   ANC micro-cycles                  20          :
          :   degrees of freedom               213          :
          :.................................................:
          :   RF solver                   davidson          :
          :   write xtbopt.log                true          :
          :   linear?                        false          :
          :   energy convergence         0.5000000E-05 Eh   :
          :   grad. convergence          0.1000000E-02 Eh/α :
          :   maxmium RF displ.          1.0000000          :
          :   Hlow (freq-cutoff)         0.1000000E-01      :
          :   Hmax (freq-cutoff)         5.0000000          :
          :   S6 in model hess.         20.0000000          :
          ...................................................

generating ANC from exact Hessian ...
Using Lindh-Hessian (1995)
 Shifting diagonal of input Hessian by   9.694542729602091E-003
 Lowest  eigenvalues of input Hessian
    0.000000    0.000000    0.000000    0.000000    0.000000    0.000000
    0.010000    0.010352    0.010484    0.010893    0.011036    0.012506
    0.012744    0.013057    0.014150    0.014678    0.015071    0.015509
 Highest eigenvalues
    1.954854    1.970293    1.977472    1.996949    2.018507    2.056544
 

........................................................................
.............................. CYCLE    1 ..............................
........................................................................

 iter      E             dE          RMSdq      gap      omega  full diag
   1   -129.4388957 -0.129439E+03  0.280E-04    0.30       0.0  T
   2   -129.4388956  0.639886E-07  0.836E-04    0.30      14.0  T
   3   -129.4388957 -0.563480E-07  0.374E-04    0.30      31.3  T
     SCC iter.                  ...        0 min,  0.051 sec
     gradient                   ...        0 min,  0.058 sec
 * total energy  :  -127.3135524 Eh     change       -0.2574515E-07 Eh
   gradient norm :     0.0450220 Eh/α   predicted     0.0000000E+00 (-100.00%)
   displ. norm   :     0.4943963 α      lambda       -0.1490111E-01
   maximum displ.:     0.2313579 α      in ANC's #37, #39, #34, ...

........................................................................
.............................. CYCLE    2 ..............................
........................................................................

 iter      E             dE          RMSdq      gap      omega  full diag
   1   -129.5307475 -0.129531E+03  0.234E-01    0.29       0.0  T
   2   -129.5304591  0.288429E-03  0.142E-01    0.30       1.0  T
   3   -129.5063909  0.240682E-01  0.516E-01    0.30       1.0  T
   4   -129.5306254 -0.242345E-01  0.448E-02    0.29       1.0  T
   5   -129.5307686 -0.143183E-03  0.255E-02    0.29       1.0  T
   6   -129.5308175 -0.488686E-04  0.108E-02    0.29       1.1  T
   7   -129.5308265 -0.902011E-05  0.291E-03    0.29       4.0  T
   8   -129.5308270 -0.499745E-06  0.158E-03    0.29       7.4  T
   9   -129.5308271 -0.893678E-07  0.689E-04    0.29      17.0  T
  10   -129.5308271 -0.152397E-07  0.287E-04    0.29      40.8  T
     SCC iter.                  ...        0 min,  0.177 sec
     gradient                   ...        0 min,  0.058 sec
 * total energy  :  -127.3240553 Eh     change       -0.1050289E-01 Eh
   gradient norm :     0.0218873 Eh/α   predicted    -0.9271867E-02 ( -11.72%)
   displ. norm   :     0.4064791 α      lambda       -0.5510122E-02
   maximum displ.:     0.1835107 α      in ANC's #37, #39, #23, ...

........................................................................
.............................. CYCLE    3 ..............................
........................................................................

 iter      E             dE          RMSdq      gap      omega  full diag
   1   -129.6015881 -0.129602E+03  0.166E-01    0.28       0.0  T
   2   -129.5917246  0.986348E-02  0.324E-01    0.31       1.0  T
   3   -129.5959482 -0.422359E-02  0.277E-01    0.28       1.0  T
   4   -129.6018794 -0.593114E-02  0.320E-02    0.28       1.0  T
   5   -129.6019570 -0.776636E-04  0.121E-02    0.28       1.0  T
   6   -129.6019639 -0.683740E-05  0.588E-03    0.28       2.0  T
   7   -129.6019642 -0.283857E-06  0.439E-03    0.28       2.7  T
   8   -129.6019652 -0.104490E-05  0.213E-03    0.28       5.5  T
   9   -129.6019656 -0.345405E-06  0.767E-04    0.28      15.3  T
  10   -129.6019656 -0.236050E-07  0.237E-04    0.28      49.4  T
     SCC iter.                  ...        0 min,  0.179 sec
     gradient                   ...        0 min,  0.058 sec
 * total energy  :  -127.3272088 Eh     change       -0.3153436E-02 Eh
   gradient norm :     0.0084618 Eh/α   predicted    -0.3211612E-02 (   1.84%)
   displ. norm   :     0.1592522 α      lambda       -0.5529874E-03
   maximum displ.:     0.0544739 α      in ANC's #23, #3, #22, ...

........................................................................
.............................. CYCLE    4 ..............................
........................................................................

 iter      E             dE          RMSdq      gap      omega  full diag
   1   -129.6108343 -0.129611E+03  0.694E-02    0.28       0.0  T
   2   -129.6088680  0.196631E-02  0.147E-01    0.29       1.0  T
   3   -129.6100969 -0.122891E-02  0.100E-01    0.28       1.0  T
   4   -129.6108852 -0.788296E-03  0.121E-02    0.28       1.0  T
   5   -129.6108973 -0.120910E-04  0.478E-03    0.28       2.4  T
   6   -129.6108985 -0.123993E-05  0.222E-03    0.28       5.3  T
   7   -129.6108988 -0.273518E-06  0.111E-03    0.28      10.6  T
   8   -129.6108989 -0.858043E-07  0.528E-04    0.28      22.2  T
   9   -129.6108989 -0.155801E-07  0.245E-04    0.28      47.7  T
     SCC iter.                  ...        0 min,  0.211 sec
     gradient                   ...        0 min,  0.046 sec
 * total energy  :  -127.3275406 Eh     change       -0.3318382E-03 Eh
   gradient norm :     0.0041305 Eh/α   predicted    -0.2835482E-03 ( -14.55%)
   displ. norm   :     0.1115334 α      lambda       -0.1556229E-03
   maximum displ.:     0.0644772 α      in ANC's #3, #12, #11, ...

........................................................................
.............................. CYCLE    5 ..............................
........................................................................

 iter      E             dE          RMSdq      gap      omega  full diag
   1   -129.6111283 -0.129611E+03  0.487E-02    0.28       0.0  T
   2   -129.6094266  0.170170E-02  0.135E-01    0.28       1.0  T
   3   -129.6109226 -0.149597E-02  0.583E-02    0.28       1.0  T
   4   -129.6111746 -0.252034E-03  0.730E-03    0.28       1.6  T
   5   -129.6111790 -0.438841E-05  0.209E-03    0.28       5.6  T
   6   -129.6111792 -0.242419E-06  0.915E-04    0.28      12.8  T
   7   -129.6111793 -0.398839E-07  0.488E-04    0.28      24.0  T
     SCC iter.                  ...        0 min,  0.134 sec
     gradient                   ...        0 min,  0.050 sec
 * total energy  :  -127.3276485 Eh     change       -0.1078969E-03 Eh
   gradient norm :     0.0020215 Eh/α   predicted    -0.7881736E-04 ( -26.95%)
   displ. norm   :     0.1221669 α      lambda       -0.9226243E-04
   maximum displ.:     0.0825467 α      in ANC's #3, #1, #11, ...

........................................................................
.............................. CYCLE    6 ..............................
........................................................................

 iter      E             dE          RMSdq      gap      omega  full diag
   1   -129.6091347 -0.129609E+03  0.434E-02    0.28       0.0  T
   2   -129.6079962  0.113850E-02  0.111E-01    0.28       1.0  T
   3   -129.6089990 -0.100287E-02  0.477E-02    0.28       1.0  T
   4   -129.6091632 -0.164200E-03  0.717E-03    0.28       1.6  T
   5   -129.6091679 -0.470722E-05  0.173E-03    0.28       6.8  T
   6   -129.6091681 -0.189487E-06  0.787E-04    0.28      14.9  T
   7   -129.6091682 -0.415405E-07  0.421E-04    0.28      27.8  T
     SCC iter.                  ...        0 min,  0.118 sec
     gradient                   ...        0 min,  0.056 sec
 * total energy  :  -127.3277148 Eh     change       -0.6627750E-04 Eh
   gradient norm :     0.0019830 Eh/α   predicted    -0.4681973E-04 ( -29.36%)
   displ. norm   :     0.1718278 α      lambda       -0.5864925E-04
   maximum displ.:     0.1210514 α      in ANC's #3, #1, #11, ...

........................................................................
.............................. CYCLE    7 ..............................
........................................................................

 iter      E             dE          RMSdq      gap      omega  full diag
   1   -129.6070261 -0.129607E+03  0.505E-02    0.28       0.0  T
   2   -129.6062522  0.773814E-03  0.947E-02    0.28       1.0  T
   3   -129.6067523 -0.500074E-03  0.610E-02    0.28       1.0  T
   4   -129.6070416 -0.289297E-03  0.851E-03    0.28       1.4  T
   5   -129.6070489 -0.728331E-05  0.166E-03    0.28       7.1  T
   6   -129.6070491 -0.175285E-06  0.629E-04    0.28      18.6  T
   7   -129.6070491 -0.187889E-07  0.348E-04    0.28      33.7  T
     SCC iter.                  ...        0 min,  0.127 sec
     gradient                   ...        0 min,  0.055 sec
 * total energy  :  -127.3277762 Eh     change       -0.6140106E-04 Eh
   gradient norm :     0.0023618 Eh/α   predicted    -0.2971330E-04 ( -51.61%)
   displ. norm   :     0.0847212 α      lambda       -0.4018749E-04
   maximum displ.:     0.0616730 α      in ANC's #3, #1, #11, ...

........................................................................
.............................. CYCLE    8 ..............................
........................................................................

 iter      E             dE          RMSdq      gap      omega  full diag
   1   -129.6077327 -0.129608E+03  0.211E-02    0.28       0.0  T
   2   -129.6077293  0.334934E-05  0.139E-02    0.28       1.0  T
   3   -129.6074170  0.312318E-03  0.570E-02    0.28       1.0  T
   4   -129.6077320 -0.315029E-03  0.320E-03    0.28       3.7  T
   5   -129.6077329 -0.877069E-06  0.862E-04    0.28      13.6  T
   6   -129.6077330 -0.490944E-07  0.302E-04    0.28      38.7  T
     SCC iter.                  ...        0 min,  0.111 sec
     gradient                   ...        0 min,  0.057 sec
 * total energy  :  -127.3278111 Eh     change       -0.3495671E-04 Eh
   gradient norm :     0.0017093 Eh/α   predicted    -0.2024236E-04 ( -42.09%)
   displ. norm   :     0.1933746 α      lambda       -0.5496395E-04
   maximum displ.:     0.1367348 α      in ANC's #3, #1, #4, ...

........................................................................
.............................. CYCLE    9 ..............................
........................................................................

 iter      E             dE          RMSdq      gap      omega  full diag
   1   -129.6091340 -0.129609E+03  0.458E-02    0.28       0.0  T
   2   -129.6090917  0.422644E-04  0.324E-02    0.28       1.0  T
   3   -129.6076044  0.148736E-02  0.128E-01    0.29       1.0  T
   4   -129.6091339 -0.152954E-02  0.507E-03    0.28       2.3  T
   5   -129.6091357 -0.180004E-05  0.189E-03    0.28       6.2  T
   6   -129.6091359 -0.229103E-06  0.751E-04    0.28      15.6  T
   7   -129.6091360 -0.379364E-07  0.403E-04    0.28      29.1  T
     SCC iter.                  ...        0 min,  0.123 sec
     gradient                   ...        0 min,  0.054 sec
 * total energy  :  -127.3278705 Eh     change       -0.5934315E-04 Eh
   gradient norm :     0.0015454 Eh/α   predicted    -0.2794188E-04 ( -52.91%)
   displ. norm   :     0.1636093 α      lambda       -0.3259609E-04
   maximum displ.:     0.1159087 α      in ANC's #3, #1, #4, ...

........................................................................
.............................. CYCLE   10 ..............................
........................................................................

 iter      E             dE          RMSdq      gap      omega  full diag
   1   -129.6098329 -0.129610E+03  0.348E-02    0.28       0.0  T
   2   -129.6098310  0.194429E-05  0.210E-02    0.28       1.0  T
   3   -129.6094271  0.403911E-03  0.646E-02    0.28       1.0  T
   4   -129.6098304 -0.403350E-03  0.554E-03    0.28       2.1  T
   5   -129.6098333 -0.283901E-05  0.146E-03    0.28       8.0  T
   6   -129.6098334 -0.166168E-06  0.641E-04    0.28      18.3  T
   7   -129.6098335 -0.314510E-07  0.287E-04    0.28      40.8  T
     SCC iter.                  ...        0 min,  0.122 sec
     gradient                   ...        0 min,  0.050 sec
 * total energy  :  -127.3279115 Eh     change       -0.4102030E-04 Eh
   gradient norm :     0.0015848 Eh/α   predicted    -0.1649545E-04 ( -59.79%)
   displ. norm   :     0.1923748 α      lambda       -0.3656115E-04
   maximum displ.:     0.1316634 α      in ANC's #3, #1, #4, ...

........................................................................
.............................. CYCLE   11 ..............................
........................................................................

 iter      E             dE          RMSdq      gap      omega  full diag
   1   -129.6099472 -0.129610E+03  0.400E-02    0.28       0.0  T
   2   -129.6099369  0.103147E-04  0.261E-02    0.28       1.0  T
   3   -129.6088011  0.113586E-02  0.108E-01    0.28       1.0  T
   4   -129.6099464 -0.114536E-02  0.405E-03    0.28       2.9  T
   5   -129.6099479 -0.143550E-05  0.122E-03    0.28       9.6  T
   6   -129.6099480 -0.955002E-07  0.546E-04    0.28      21.4  T
   7   -129.6099480 -0.191824E-07  0.307E-04    0.28      38.2  T
     SCC iter.                  ...        0 min,  0.121 sec
     gradient                   ...        0 min,  0.053 sec
 * total energy  :  -127.3279564 Eh     change       -0.4489385E-04 Eh
   gradient norm :     0.0011399 Eh/α   predicted    -0.1858281E-04 ( -58.61%)
   displ. norm   :     0.2386346 α      lambda       -0.3582205E-04
   maximum displ.:     0.1593750 α      in ANC's #3, #1, #5, ...

........................................................................
.............................. CYCLE   12 ..............................
........................................................................

 iter      E             dE          RMSdq      gap      omega  full diag
   1   -129.6095441 -0.129610E+03  0.491E-02    0.28       0.0  T
   2   -129.6095010  0.431334E-04  0.363E-02    0.28       1.0  T
   3   -129.6077447  0.175630E-02  0.136E-01    0.28       1.0  T
   4   -129.6095437 -0.179898E-02  0.476E-03    0.28       2.5  T
   5   -129.6095456 -0.194560E-05  0.194E-03    0.28       6.0  T
   6   -129.6095459 -0.323838E-06  0.817E-04    0.28      14.3  T
   7   -129.6095460 -0.579749E-07  0.338E-04    0.28      34.6  T
     SCC iter.                  ...        0 min,  0.129 sec
     gradient                   ...        0 min,  0.060 sec
 * total energy  :  -127.3279963 Eh     change       -0.3995292E-04 Eh
   gradient norm :     0.0010342 Eh/α   predicted    -0.1836458E-04 ( -54.03%)
   displ. norm   :     0.2171987 α      lambda       -0.2140962E-04
   maximum displ.:     0.1431563 α      in ANC's #3, #1, #5, ...

........................................................................
.............................. CYCLE   13 ..............................
........................................................................

 iter      E             dE          RMSdq      gap      omega  full diag
   1   -129.6095975 -0.129610E+03  0.444E-02    0.28       0.0  T
   2   -129.6094608  0.136715E-03  0.461E-02    0.28       1.0  T
   3   -129.6088432  0.617537E-03  0.898E-02    0.28       1.0  T
   4   -129.6096006 -0.757341E-03  0.353E-03    0.28       3.3  T
   5   -129.6096015 -0.956009E-06  0.167E-03    0.28       7.0  T
   6   -129.6096018 -0.238352E-06  0.723E-04    0.28      16.2  T
   7   -129.6096018 -0.504953E-07  0.277E-04    0.28      42.3  T
     SCC iter.                  ...        0 min,  0.126 sec
     gradient                   ...        0 min,  0.053 sec
 * total energy  :  -127.3280177 Eh     change       -0.2135385E-04 Eh
   gradient norm :     0.0008198 Eh/α   predicted    -0.1093110E-04 ( -48.81%)
   displ. norm   :     0.1405776 α      lambda       -0.9944387E-05
   maximum displ.:     0.0910343 α      in ANC's #3, #1, #5, ...

........................................................................
.............................. CYCLE   14 ..............................
........................................................................

 iter      E             dE          RMSdq      gap      omega  full diag
   1   -129.6097017 -0.129610E+03  0.301E-02    0.28       0.0  T
   2   -129.6096402  0.615375E-04  0.312E-02    0.28       1.0  T
   3   -129.6093612  0.278938E-03  0.602E-02    0.28       1.0  T
   4   -129.6097023 -0.341021E-03  0.355E-03    0.28       3.3  T
   5   -129.6097035 -0.120025E-05  0.131E-03    0.28       8.9  T
   6   -129.6097036 -0.167469E-06  0.493E-04    0.28      23.7  T
   7   -129.6097036 -0.189162E-07  0.187E-04    0.28      62.7  T
     SCC iter.                  ...        0 min,  0.125 sec
     gradient                   ...        0 min,  0.057 sec
 * total energy  :  -127.3280262 Eh     change       -0.8504227E-05 Eh
   gradient norm :     0.0007409 Eh/α   predicted    -0.5016305E-05 ( -41.01%)
   displ. norm   :     0.0653897 α      lambda       -0.4733562E-05
   maximum displ.:     0.0396580 α      in ANC's #1, #3, #2, ...

........................................................................
.............................. CYCLE   15 ..............................
........................................................................

 iter      E             dE          RMSdq      gap      omega  full diag
   1   -129.6099868 -0.129610E+03  0.142E-02    0.28       0.0  T
   2   -129.6099546  0.322074E-04  0.200E-02    0.28       1.0  T
   3   -129.6099440  0.105280E-04  0.222E-02    0.28       1.0  T
   4   -129.6099876 -0.435200E-04  0.152E-03    0.28       7.7  T
   5   -129.6099877 -0.165185E-06  0.610E-04    0.28      19.2  T
   6   -129.6099878 -0.244723E-07  0.240E-04    0.28      48.7  T
     SCC iter.                  ...        0 min,  0.107 sec
     gradient                   ...        0 min,  0.054 sec
 * total energy  :  -127.3280309 Eh     change       -0.4725022E-05 Eh
   gradient norm :     0.0003539 Eh/α   predicted    -0.2371686E-05 ( -49.81%)
   displ. norm   :     0.0383925 α      lambda       -0.2796190E-05
   maximum displ.:     0.0224572 α      in ANC's #2, #1, #4, ...

   *** GEOMETRY OPTIMIZATION CONVERGED AFTER 15 ITERATIONS ***

------------------------------------------------------------------------
 total energy gain   :        -0.0144785 Eh       -9.0854 kcal/mol
 total RMSD          :         0.2326409 a0        0.1231 Å
 total power (kW/mol):        -2.5342227 (step)  -12.0181 (real)
------------------------------------------------------------------------

 ANCopt (total)                0 d,  0 h,  0 min,  3.163 sec
 optimizer setup                ...        0 min,  0.001 sec (  0.032%)
 model hessian                  ...        0 min,  0.034 sec (  1.075%)
 ANC generation                 ...        0 min,  0.008 sec (  0.253%)
 coordinate transformation      ...        0 min,  0.000 sec (  0.000%)
 single point calculation       ...        0 min,  3.099 sec ( 97.977%)
 optimization log               ...        0 min,  0.014 sec (  0.443%)
 hessian update                 ...        0 min,  0.001 sec (  0.032%)
 rational function              ...        0 min,  0.003 sec (  0.095%)

================
 final structure:
================
73
 xtb: 6.7.1pre (5071a88)
C            1.73365668137237       -3.44917615033207        0.39146409815537
C            1.59337871182441       -1.06958775701865       -0.23638189015768
C            1.37223049336369        1.36072762314253       -0.31015380093299
C            1.15390766715995        3.79187234594901        0.00415814305325
C            3.12144414340605        5.23041949708697       -0.38216384564704
C            3.76349958813358       -2.05444028136422        0.41540941033740
C            3.59182707615672        0.31746187268665       -0.28974087654510
C            3.35369799282074        2.80214981152155       -0.50674133435522
C            5.25392987262978        4.29380838438453       -0.86079479909963
C            6.01476743719422       -2.89878673295061        1.05347939697198
C            5.75612673880296       -0.71658797009039        0.04335495907826
C           -4.64287747430130       -5.24879702228794       -0.28990206664261
C           -4.72239092157327       -2.89847117420174       -0.79194604203462
C           -4.92303318677499       -0.23087229437440       -0.40814059872602
C           -5.07022532094263        2.00432504057692        0.51023068197087
C           -5.50798261628896        4.21451244525755        1.50966447626457
C           -2.62366339855171       -3.90865955873971       -0.23532222374255
C           -2.73021191115208       -1.38873403168578       -0.55243170180478
C           -2.87337350611665        1.00941084123324        0.00662062158962
C           -3.00755964005914        3.36057191929317        0.67297801607757
C           -0.38488277240427       -4.72306104532985        0.61579436238705
C           -0.66854213510320       -0.01517007062134       -0.40421858481974
C           -0.83303133665036        2.36998976626029        0.11194514317525
C           -0.98220159191743        4.73979293258788        0.61878891702599
C            3.12822616896383       -3.28186691795730        0.73681534641993
C            2.99349602147676       -0.92387912848709       -0.00424754475454
C            2.77606238024698        1.49036583346721       -0.41212034045112
C            2.54562717821245        3.95051011396339       -0.29006800201263
C            4.45264466423848        5.40780028794571       -0.65100275617778
C            5.57916271558061       -4.09848530766461        1.53018752379975
C            5.17159997765875       -1.90196386376127        0.52810725666935
C            5.01079079423417        0.35165139756491       -0.36870884031387
C            4.72232650309374        3.02256597489240       -0.79082886815901
C           -5.35418610457515       -4.13772778257290       -0.67919239191809
C           -5.66575045700577        0.84749412992770        0.03878829567638
C           -5.91404107068526        3.00529634940819        1.10228309010125
C           -3.28111306288115       -5.12541679858903       -0.08021589670160
C           -3.35409160726030       -2.73630203742936       -0.57020032849622
C           -3.51760433865697       -0.21623487501649       -0.32248906209961
C           -3.65458484494690        2.14527319165925        0.39723028393832
C           -1.17728570983517       -3.87469576005238       -0.10511197550834
C           -1.36281374797671       -1.23645038936121       -0.63086212822515
C           -1.46099821823653        1.11494539171221       -0.07492179164192
C           -1.62175102499291        3.49065839421877        0.46865191255375
C            1.01106164300356       -4.58609598253991        0.73387092764350
C            1.07283213277149       -2.35671104955365       -0.21777825608463
C            0.75191049791634        0.08286529849576       -0.38959634658638
C            0.56151646667226        2.51629472142761       -0.08941506259661
C            0.34650210778634        4.88614364367241        0.38512219278313
H            2.50496945766630        6.10551022778815       -0.26324749612758
H           -6.20263322243818        4.90515947940546        1.97060950923344
H           -1.57939498186759        5.59888301469497        0.89684819548987
H            4.87226567369337        6.40053244916801       -0.71600179332758
H            6.29675153004459       -4.79472331670982        1.94660025126232
H            0.78391568454705        5.86219028348913        0.51254206842763
H           -5.12860144016396       -6.20630120338892       -0.17796726822965
H           -0.84067511203106       -5.52051087786664        1.18926691394559
H           -2.70172773348589       -6.00175530979581        0.16633358857891
H            1.53667339566768       -5.37378582993527        1.25755806624630
H            6.30369840594542        4.41222579086600       -1.09497507729396
H            7.07352997898113       -2.67241048462994        1.08808107818720
H            6.83598380973400       -0.65741864673314       -0.00421655176160
H           -6.41211837611595       -4.20492175849171       -0.89391296830010
H           -6.74624695990516        0.78192499053425        0.01555102327704
H           -6.94402442255292        2.70750015967572        1.26087112901412
H           -3.43255887934652        4.99127394578754        2.44622751885198
P           -3.89486437779832        4.88374685129066        1.12096460038558
P           -0.40318282700601       -2.66199289187168       -1.16508396518403
P           -5.76266870855865       -1.52308381026744       -1.34011270911769
H           -6.81049047549319       -1.74111191810558       -0.43308769032292
P            3.93081848120623       -4.65198786712712        1.47878001800880
P            5.84479244108660        1.68235362332547       -1.25680945101987
H            6.82260000235965        1.94783587254567       -0.28813568966068
 
 Bond Distances (Angstroems)
 ---------------------------
C1-C25=1.4464        C1-C45=1.3900        C1-C46=1.4147        C2-C26=1.4267        C2-C46=1.3885        C2-C47=1.4352        
C3-C27=1.4135        C3-C47=1.4227        C3-C48=1.4287        C4-C28=1.4313        C4-C48=1.4095        C4-C49=1.4123        
C5-C28=1.4065        C5-C29=1.3696        C5-H50=1.0770        C6-C25=1.4190        C6-C26=1.4308        C6-C31=1.4208        
C7-C26=1.4073        C7-C27=1.4339        C7-C32=1.4216        C8-C27=1.4365        C8-C28=1.4208        C8-C33=1.4151        
C9-C29=1.3882        C9-C33=1.3797        C9-H60=1.0821        C10-C30=1.3625       C10-C31=1.4073       C10-H61=1.0832       
C11-C31=1.4078       C11-C32=1.3662       C11-H62=1.0825       C12-C34=1.3755       C12-C37=1.3833       C12-H56=1.0795       
C13-C34=1.3956       C13-C38=1.3956       C13-P69=1.8095       C14-C35=1.3836       C14-C39=1.4081       C14-P69=1.8009       
C15-C35=1.3839       C15-C36=1.4368       C15-C40=1.4271       C16-C36=1.3390       C16-H51=1.0826       C16-P67=1.7892       
C17-C37=1.3917       C17-C38=1.4213       C17-C41=1.4526       C18-C38=1.4851       C18-C39=1.4309       C18-C42=1.3781       
C19-C39=1.4232       C19-C40=1.4328       C19-C43=1.4187       C20-C40=1.4041       C20-C44=1.4068       C20-P67=1.8188       
C21-C41=1.3665       C21-C45=1.4076       C21-H57=1.0828       C22-C42=1.4230       C22-C43=1.4190       C22-C47=1.4239       
C23-C43=1.4158       C23-C44=1.4161       C23-C48=1.4166       C24-C44=1.4113       C24-C49=1.3570       C24-H52=1.0826       
C25-C1=1.4464        C25-C6=1.4190        C25-P71=1.7527       C26-C2=1.4267        C26-C6=1.4308        C26-C7=1.4073        
C27-C3=1.4135        C27-C7=1.4339        C27-C8=1.4365        C28-C4=1.4313        C28-C5=1.4065        C28-C8=1.4208        
C29-C5=1.3696        C29-C9=1.3882        C29-H53=1.0797       C30-C10=1.3625       C30-H54=1.0831       C30-P71=1.7396       
C31-C6=1.4208        C31-C10=1.4073       C31-C11=1.4078       C32-C7=1.4216        C32-C11=1.3662       C32-P72=1.8042       
C33-C8=1.4151        C33-C9=1.3797        C33-P72=1.8092       C34-C12=1.3755       C34-C13=1.3956       C34-H63=1.0816       
C35-C14=1.3836       C35-C15=1.3839       C35-H64=1.0827       C36-C15=1.4368       C36-C16=1.3390       C36-H65=1.0838       
C37-C12=1.3833       C37-C17=1.3917       C37-H58=1.0791       C38-C13=1.3956       C38-C17=1.4213       C38-C18=1.4851       
C39-C14=1.4081       C39-C18=1.4309       C39-C19=1.4232       C40-C15=1.4271       C40-C19=1.4328       C40-C20=1.4041       
C41-C17=1.4526       C41-C21=1.3665       C41-P68=1.7870       C42-C18=1.3781       C42-C22=1.4230       C42-P68=1.7996       
C43-C19=1.4187       C43-C22=1.4190       C43-C23=1.4158       C44-C20=1.4068       C44-C23=1.4161       C44-C24=1.4113       
C45-C1=1.3900        C45-C21=1.4076       C45-H59=1.0821       C46-C1=1.4147        C46-C2=1.3885        C46-P68=1.7802       
C47-C2=1.4352        C47-C3=1.4227        C47-C22=1.4239       C48-C3=1.4287        C48-C4=1.4095        C48-C23=1.4166       
C49-C4=1.4123        C49-C24=1.3570       C49-H55=1.0771       H50-C5=1.0770        H51-C16=1.0826       H52-C24=1.0826       
H53-C29=1.0797       H54-C30=1.0831       H55-C49=1.0771       H56-C12=1.0795       H57-C21=1.0828       H58-C37=1.0791       
H59-C45=1.0821       H60-C9=1.0821        H61-C10=1.0832       H62-C11=1.0825       H63-C34=1.0816       H64-C35=1.0827       
H65-C36=1.0838       H66-P67=1.4077       P67-C16=1.7892       P67-C20=1.8188       P67-H66=1.4077       P68-C41=1.7870       
P68-C42=1.7996       P68-C46=1.7802       P69-C13=1.8095       P69-C14=1.8009       P69-H70=1.4029       H70-P69=1.4029       
P71-C25=1.7527       P71-C30=1.7396       P72-C32=1.8042       P72-C33=1.8092       P72-H73=1.4018       H73-P72=1.4018       
 C  H  Rav=1.0814 sigma=0.0021  Rmin=1.0770  Rmax=1.0838    16
 C  C  Rav=1.4091 sigma=0.0254  Rmin=1.3390  Rmax=1.4851    60
 P  H  Rav=1.4041 sigma=0.0026  Rmin=1.4018  Rmax=1.4077     3
 P  C  Rav=1.7901 sigma=0.0234  Rmin=1.7396  Rmax=1.8188    11
 
 selected bond angles (degree)
 --------------------
C45-C1-C25=122.48              C46-C1-C25=117.64              C46-C1-C45=119.66              C46-C2-C26=117.41              
C47-C2-C26=120.71              C47-C2-C46=121.74              C47-C3-C27=120.76              C48-C3-C27=120.03              
C48-C3-C47=119.19              C48-C4-C28=119.69              C49-C4-C28=121.70              C49-C4-C48=118.61              
C29-C5-C28=121.91              H50-C5-C28=119.86              H50-C5-C29=118.21              C26-C6-C25=120.60              
C31-C6-C25=121.24              C31-C6-C26=118.15              C27-C7-C26=119.80              C32-C7-C26=117.19              
C32-C7-C27=122.92              C28-C8-C27=119.96              C33-C8-C27=122.98              C33-C8-C28=117.05              
C33-C9-C29=120.62              H60-C9-C29=120.32              H60-C9-C33=119.05              C31-C10-C30=124.25             
H61-C10-C30=119.03             H61-C10-C31=116.71             
 
 selected dihedral angles (degree)
 ---------------------------------

           -------------------------------------------------
          |                Final Singlepoint                |
           -------------------------------------------------

          ...................................................
          :                      SETUP                      :
          :.................................................:
          :  # basis functions                 265          :
          :  # atomic orbitals                 260          :
          :  # shells                          132          :
          :  # electrons                       240          :
          :  max. iterations                   250          :
          :  Hamiltonian                  GFN2-xTB          :
          :  restarted?                      false          :
          :  GBSA solvation                  false          :
          :  PC potential                    false          :
          :  electronic temp.          300.0000000     K    :
          :  accuracy                    1.0000000          :
          :  -> integral cutoff          0.2500000E+02      :
          :  -> integral neglect         0.1000000E-07      :
          :  -> SCF convergence          0.1000000E-05 Eh   :
          :  -> wf. convergence          0.1000000E-03 e    :
          :  Broyden damping             0.4000000          :
          :  net charge                          0          :
          :  unpaired electrons                  0          :
          ...................................................

 iter      E             dE          RMSdq      gap      omega  full diag
   1   -129.6099878 -0.129610E+03  0.911E-05    0.28       0.0  T
   2   -129.6099878  0.118916E-08  0.125E-04    0.28      93.9  T
   3   -129.6099878  0.504770E-09  0.149E-04    0.28      78.5  T

   *** convergence criteria satisfied after 3 iterations ***

         #    Occupation            Energy/Eh            Energy/eV
      -------------------------------------------------------------
         1        2.0000           -0.6859698             -18.6662
       ...           ...                  ...                  ...
       114        2.0000           -0.3905477             -10.6273
       115        2.0000           -0.3884002             -10.5689
       116        2.0000           -0.3849954             -10.4763
       117        2.0000           -0.3769371             -10.2570
       118        2.0000           -0.3732206             -10.1558
       119        2.0000           -0.3591740              -9.7736
       120        1.9911           -0.3311286              -9.0105 (HOMO)
       121        0.0089           -0.3208544              -8.7309 (LUMO)
       122                         -0.2958109              -8.0494
       123                         -0.2773997              -7.5484
       124                         -0.2678884              -7.2896
       125                         -0.2612890              -7.1100
       ...                                ...                  ...
       260                          1.0199827              27.7551
      -------------------------------------------------------------
                  HL-Gap            0.0102742 Eh            0.2796 eV
             Fermi-level           -0.3259915 Eh           -8.8707 eV

 SCC (total)                   0 d,  0 h,  0 min,  0.126 sec
 SCC setup                      ...        0 min,  0.001 sec (  0.794%)
 Dispersion                     ...        0 min,  0.001 sec (  0.794%)
 classical contributions        ...        0 min,  0.000 sec (  0.000%)
 integral evaluation            ...        0 min,  0.015 sec ( 11.905%)
 iterations                     ...        0 min,  0.054 sec ( 42.857%)
 molecular gradient             ...        0 min,  0.053 sec ( 42.063%)
 printout                       ...        0 min,  0.002 sec (  1.587%)

         :::::::::::::::::::::::::::::::::::::::::::::::::::::
         ::                     SUMMARY                     ::
         :::::::::::::::::::::::::::::::::::::::::::::::::::::
         :: total energy            -127.328030929554 Eh    ::
         :: gradient norm              0.000354176496 Eh/a0 ::
         :: HOMO-LUMO gap              0.279575163124 eV    ::
         ::.................................................::
         :: SCC energy              -129.611078210827 Eh    ::
         :: -> isotropic ES            0.004039474128 Eh    ::
         :: -> anisotropic ES          0.003561140965 Eh    ::
         :: -> anisotropic XC          0.052994536339 Eh    ::
         :: -> dispersion             -0.151508037583 Eh    ::
         :: repulsion energy           2.283047281272 Eh    ::
         :: add. restraining           0.000000000000 Eh    ::
         :: total charge              -0.000000000000 e     ::
         :::::::::::::::::::::::::::::::::::::::::::::::::::::

           -------------------------------------------------
          |                Property Printout                |
           -------------------------------------------------

    * Orbital Energies and Occupations

         #    Occupation            Energy/Eh            Energy/eV
      -------------------------------------------------------------
         1        2.0000           -0.6859698             -18.6662
       ...           ...                  ...                  ...
       108        2.0000           -0.4064326             -11.0596
       109        2.0000           -0.4056703             -11.0389
       110        2.0000           -0.4008525             -10.9078
       111        2.0000           -0.4002341             -10.8909
       112        2.0000           -0.3989817             -10.8568
       113        2.0000           -0.3972737             -10.8104
       114        2.0000           -0.3905477             -10.6273
       115        2.0000           -0.3884002             -10.5689
       116        2.0000           -0.3849954             -10.4763
       117        2.0000           -0.3769371             -10.2570
       118        2.0000           -0.3732206             -10.1558
       119        2.0000           -0.3591740              -9.7736
       120        1.9911           -0.3311286              -9.0105 (HOMO)
       121        0.0089           -0.3208544              -8.7309 (LUMO)
       122                         -0.2958109              -8.0494
       123                         -0.2773997              -7.5484
       124                         -0.2678884              -7.2896
       125                         -0.2612890              -7.1100
       126                         -0.2564809              -6.9792
       127                         -0.2534611              -6.8970
       128                         -0.2514070              -6.8411
       129                         -0.2365731              -6.4375
       130                         -0.2318972              -6.3102
       131                         -0.2289734              -6.2307
       ...                                ...                  ...
       260                          1.0199827              27.7551
      -------------------------------------------------------------
                  HL-Gap            0.0102742 Eh            0.2796 eV
             Fermi-level           -0.3259915 Eh           -8.8707 eV

     #   Z          covCN         q      C6AA      α(0)
     1   6 C        3.175     0.008    27.451     8.557
     2   6 C        3.107     0.001    27.873     8.650
     3   6 C        2.985     0.001    27.993     8.679
     4   6 C        2.982     0.004    27.921     8.668
     5   6 C        2.924    -0.037    28.915     8.818
     6   6 C        3.038     0.004    27.894     8.663
     7   6 C        3.046     0.004    27.888     8.661
     8   6 C        3.029     0.005    27.883     8.661
     9   6 C        3.058    -0.034    28.786     8.799
    10   6 C        3.002    -0.028    28.676     8.784
    11   6 C        3.042    -0.044    29.042     8.839
    12   6 C        2.914    -0.029    28.723     8.788
    13   6 C        2.924     0.008    27.850     8.654
    14   6 C        2.916    -0.001    28.061     8.687
    15   6 C        2.973     0.008    27.829     8.653
    16   6 C        2.840    -0.032    28.783     8.792
    17   6 C        3.110     0.010    27.640     8.613
    18   6 C        3.088    -0.001    27.945     8.665
    19   6 C        2.987    -0.002    28.073     8.691
    20   6 C        2.917    -0.004    28.133     8.698
    21   6 C        3.018    -0.030    28.733     8.793
    22   6 C        3.062     0.001    27.937     8.667
    23   6 C        2.991     0.000    28.012     8.682
    24   6 C        2.935    -0.036    28.886     8.814
    25   6 C        2.912    -0.012    28.325     8.727
    26   6 C        2.995    -0.001    28.033     8.685
    27   6 C        2.974     0.001    28.000     8.680
    28   6 C        2.983     0.006    27.878     8.661
    29   6 C        2.914    -0.030    28.751     8.793
    30   6 C        2.842    -0.039    28.953     8.818
    31   6 C        2.975     0.010    27.780     8.646
    32   6 C        2.915     0.002    27.973     8.673
    33   6 C        2.919     0.005    27.903     8.662
    34   6 C        3.040    -0.032    28.759     8.796
    35   6 C        3.032    -0.041    28.984     8.831
    36   6 C        2.999    -0.026    28.651     8.780
    37   6 C        2.928    -0.035    28.865     8.811
    38   6 C        3.044     0.005    27.861     8.657
    39   6 C        3.059     0.004    27.873     8.658
    40   6 C        3.026     0.007    27.828     8.653
    41   6 C        2.908     0.004    27.933     8.666
    42   6 C        2.924     0.003    27.954     8.670
    43   6 C        2.989     0.001    28.000     8.680
    44   6 C        3.088     0.004    27.826     8.647
    45   6 C        2.925    -0.039    28.960     8.825
    46   6 C        2.930    -0.002    28.072     8.689
    47   6 C        2.979    -0.001    28.053     8.688
    48   6 C        2.988     0.002    27.974     8.676
    49   6 C        2.917    -0.035    28.861     8.810
    50   1 H        0.926     0.037     2.486     2.466
    51   1 H        0.926     0.043     2.404     2.425
    52   1 H        0.927     0.055     2.254     2.348
    53   1 H        0.926     0.034     2.537     2.491
    54   1 H        0.927     0.038     2.477     2.461
    55   1 H        0.926     0.037     2.487     2.466
    56   1 H        0.926     0.038     2.482     2.464
    57   1 H        0.925     0.037     2.486     2.466
    58   1 H        0.926     0.038     2.475     2.460
    59   1 H        0.926     0.057     2.229     2.335
    60   1 H        0.925     0.036     2.503     2.474
    61   1 H        0.925     0.032     2.555     2.500
    62   1 H        0.925     0.035     2.515     2.480
    63   1 H        0.925     0.040     2.453     2.449
    64   1 H        0.925     0.035     2.523     2.484
    65   1 H        0.925     0.034     2.537     2.491
    66   1 H        0.976     0.050     2.317     2.379
    67  15 P        3.103    -0.101   164.810    23.062
    68  15 P        3.506    -0.029   161.525    22.830
    69  15 P        3.206    -0.078   163.751    22.987
    70   1 H        0.976     0.047     2.355     2.398
    71  15 P        2.150    -0.022   179.877    25.304
    72  15 P        3.212    -0.082   163.915    22.999
    73   1 H        0.977     0.049     2.324     2.382

 Mol. C6AA /au·bohr⁶  :     125348.790195
 Mol. C8AA /au·bohr⁸  :    3921343.100363
 Mol. α(0) /au        :        590.457280


Wiberg/Mayer (AO) data.
largest (>0.10) Wiberg bond orders for each atom

 ---------------------------------------------------------------------------
     #   Z sym  total        # sym  WBO       # sym  WBO       # sym  WBO
 ---------------------------------------------------------------------------
     1   6 C    3.968 --    45 C    1.404    46 C    1.229    25 C    1.148
     2   6 C    3.974 --    46 C    1.351    26 C    1.190    47 C    1.187
     3   6 C    3.978 --    27 C    1.302    47 C    1.248    48 C    1.200
     4   6 C    3.948 --    48 C    1.291    49 C    1.266    28 C    1.184
     5   6 C    3.984 --    29 C    1.506    28 C    1.318    50 H    0.960
                            33 C    0.104
     6   6 C    3.984 --    25 C    1.283    31 C    1.243    26 C    1.228
     7   6 C    3.952 --    26 C    1.307    32 C    1.212    27 C    1.202
     8   6 C    3.965 --    33 C    1.276    28 C    1.264    27 C    1.200
     9   6 C    3.974 --    33 C    1.459    29 C    1.367    60 H    0.961
    10   6 C    3.962 --    30 C    1.554    31 C    1.278    61 H    0.962
    11   6 C    3.962 --    32 C    1.519    31 C    1.264    62 H    0.958
    12   6 C    3.984 --    34 C    1.457    37 C    1.415    56 H    0.968
    13   6 C    3.969 --    38 C    1.381    34 C    1.360    69 P    1.029
    14   6 C    3.915 --    35 C    1.393    39 C    1.274    69 P    1.050
    15   6 C    3.908 --    35 C    1.395    40 C    1.211    36 C    1.150
    16   6 C    3.927 --    36 C    1.736    67 P    1.099    51 H    0.951
    17   6 C    3.982 --    37 C    1.394    38 C    1.287    41 C    1.088
    18   6 C    3.973 --    42 C    1.461    39 C    1.201    38 C    1.056
    19   6 C    3.974 --    43 C    1.263    39 C    1.251    40 C    1.220
    20   6 C    3.870 --    40 C    1.319    44 C    1.291    67 P    1.047
    21   6 C    3.982 --    41 C    1.529    45 C    1.304    57 H    0.956
    22   6 C    3.973 --    47 C    1.262    43 C    1.239    42 C    1.220
    23   6 C    3.976 --    48 C    1.259    43 C    1.240    44 C    1.239
    24   6 C    3.948 --    49 C    1.580    44 C    1.246    52 H    0.933
    25   6 C    3.976 --    71 P    1.363     6 C    1.283     1 C    1.148
    26   6 C    3.969 --     7 C    1.307     6 C    1.228     2 C    1.190
    27   6 C    3.931 --     3 C    1.302     7 C    1.202     8 C    1.200
    28   6 C    3.962 --     5 C    1.318     8 C    1.264     4 C    1.184
    29   6 C    3.970 --     5 C    1.506     9 C    1.367    53 H    0.969
    30   6 C    3.974 --    10 C    1.554    71 P    1.346    54 H    0.960
    31   6 C    3.979 --    10 C    1.278    11 C    1.264     6 C    1.243
    32   6 C    3.932 --    11 C    1.519     7 C    1.212    72 P    1.041
    33   6 C    3.968 --     9 C    1.459     8 C    1.276    72 P    1.037
                             5 C    0.104
    34   6 C    3.961 --    12 C    1.457    13 C    1.360    63 H    0.961
    35   6 C    3.982 --    15 C    1.395    14 C    1.393    64 H    0.958
    36   6 C    3.985 --    16 C    1.736    15 C    1.150    65 H    0.960
    37   6 C    3.951 --    12 C    1.415    17 C    1.394    58 H    0.965
    38   6 C    3.973 --    13 C    1.381    17 C    1.287    18 C    1.056
    39   6 C    3.971 --    14 C    1.274    19 C    1.251    18 C    1.201
    40   6 C    3.983 --    20 C    1.319    19 C    1.220    15 C    1.211
    41   6 C    3.857 --    21 C    1.529    17 C    1.088    68 P    1.047
    42   6 C    3.952 --    18 C    1.461    22 C    1.220    68 P    0.996
    43   6 C    3.976 --    19 C    1.263    23 C    1.240    22 C    1.239
    44   6 C    3.978 --    20 C    1.291    24 C    1.246    23 C    1.239
    45   6 C    3.862 --     1 C    1.404    21 C    1.304    59 H    0.945
    46   6 C    3.885 --     2 C    1.351     1 C    1.229    68 P    1.056
    47   6 C    3.918 --    22 C    1.262     3 C    1.248     2 C    1.187
    48   6 C    3.979 --     4 C    1.291    23 C    1.259     3 C    1.200
    49   6 C    3.976 --    24 C    1.580     4 C    1.266    55 H    0.959
    50   1 H    0.997 --     5 C    0.960
    51   1 H    0.997 --    16 C    0.951
    52   1 H    0.995 --    24 C    0.933
    53   1 H    0.998 --    29 C    0.969
    54   1 H    0.997 --    30 C    0.960
    55   1 H    0.998 --    49 C    0.959
    56   1 H    0.997 --    12 C    0.968
    57   1 H    0.997 --    21 C    0.956
    58   1 H    0.997 --    37 C    0.965
    59   1 H    0.996 --    45 C    0.945
    60   1 H    0.998 --     9 C    0.961
    61   1 H    0.998 --    10 C    0.962
    62   1 H    0.998 --    11 C    0.958
    63   1 H    0.998 --    34 C    0.961
    64   1 H    0.997 --    35 C    0.958
    65   1 H    0.998 --    36 C    0.960
    66   1 H    0.972 --    67 P    0.912
    67  15 P    3.363 --    16 C    1.099    20 C    1.047    66 H    0.912
    68  15 P    3.515 --    46 C    1.056    41 C    1.047    42 C    0.996
    69  15 P    3.287 --    14 C    1.050    13 C    1.029    70 H    0.938
    70   1 H    0.984 --    69 P    0.938
    71  15 P    3.036 --    25 C    1.363    30 C    1.346
    72  15 P    3.296 --    32 C    1.041    33 C    1.037    73 H    0.938
    73   1 H    0.991 --    72 P    0.938
 ---------------------------------------------------------------------------

Topologies differ in total number of bonds
Writing topology from bond orders to xtbtopo.mol

molecular dipole:
                 x           y           z       tot (Debye)
 q only:       -0.115      -0.131       0.608
   full:       -0.083      -0.025       1.258       3.205
molecular quadrupole (traceless):
                xx          xy          yy          xz          yz          zz
 q only:        4.370       7.666       8.779      -1.585       0.087     -13.149
  q+dip:       22.697      13.340       9.221      -4.215       0.452     -31.917
   full:       14.990      11.807       2.681      -3.703       1.888     -17.671

           -------------------------------------------------
          |                Geometry Summary                 |
           -------------------------------------------------

      molecular mass/u    :      762.5457434
   center of mass at/Å    :        0.0070339      -0.0091178      -0.0208213
  moments of inertia/u·Å² :        0.8370039E+04   0.1154203E+05   0.1896557E+05
rotational constants/cm⁻¹ :        0.2014045E-02   0.1460543E-02   0.8888545E-03

 * 86 selected distances

     #   Z          #   Z                                           value/Å
     6   6 C       25   6 C                                       1.4189611
     2   6 C       26   6 C                                       1.4266907
     6   6 C       26   6 C                                       1.4307992
     7   6 C       26   6 C                                       1.4072791
     3   6 C       27   6 C                                       1.4134877
     7   6 C       27   6 C                                       1.4339292
     8   6 C       27   6 C                                       1.4364517
     4   6 C       28   6 C                                       1.4312996
     5   6 C       28   6 C                                       1.4064904
     8   6 C       28   6 C                                       1.4207947
     5   6 C       29   6 C                                       1.3696107
     9   6 C       29   6 C                                       1.3881819
    10   6 C       30   6 C                                       1.3624533
     6   6 C       31   6 C                                       1.4208086
    10   6 C       31   6 C                                       1.4073391
    11   6 C       31   6 C                                       1.4077545
     7   6 C       32   6 C                                       1.4215707
    11   6 C       32   6 C                                       1.3661837
     8   6 C       33   6 C                                       1.4150736
     9   6 C       33   6 C                                       1.3796938
    12   6 C       34   6 C                                       1.3754934
    13   6 C       34   6 C                                       1.3955772
    14   6 C       35   6 C                                       1.3835638
    15   6 C       35   6 C                                       1.3838953
    15   6 C       36   6 C                                       1.4368351
    16   6 C       36   6 C                                       1.3390470
    12   6 C       37   6 C                                       1.3833270
    17   6 C       37   6 C                                       1.3916884
    13   6 C       38   6 C                                       1.3956050
    17   6 C       38   6 C                                       1.4212991
    14   6 C       39   6 C                                       1.4081126
    18   6 C       39   6 C                                       1.4309490
    19   6 C       39   6 C                                       1.4232197
    15   6 C       40   6 C                                       1.4271208
    19   6 C       40   6 C                                       1.4328471
    20   6 C       40   6 C                                       1.4041474
    21   6 C       41   6 C                                       1.3665037
    18   6 C       42   6 C                                       1.3780855
    22   6 C       42   6 C                                       1.4229920
    19   6 C       43   6 C                                       1.4186582
    22   6 C       43   6 C                                       1.4190082
    23   6 C       43   6 C                                       1.4157678
    20   6 C       44   6 C                                       1.4068182
    23   6 C       44   6 C                                       1.4160569
    24   6 C       44   6 C                                       1.4113476
     1   6 C       45   6 C                                       1.3899543
    21   6 C       45   6 C                                       1.4076089
     1   6 C       46   6 C                                       1.4146893
     2   6 C       46   6 C                                       1.3885250
     2   6 C       47   6 C                                       1.4351627
     3   6 C       47   6 C                                       1.4226878
    22   6 C       47   6 C                                       1.4239069
     3   6 C       48   6 C                                       1.4287472
     4   6 C       48   6 C                                       1.4095325
    23   6 C       48   6 C                                       1.4165857
     4   6 C       49   6 C                                       1.4122561
    24   6 C       49   6 C                                       1.3570087
     5   6 C       50   1 H                                       1.0770172 (min)
    16   6 C       51   1 H                                       1.0825910
    24   6 C       52   1 H                                       1.0825862
    29   6 C       53   1 H                                       1.0797333
    30   6 C       54   1 H                                       1.0830886
    49   6 C       55   1 H                                       1.0771415
    12   6 C       56   1 H                                       1.0794775
    21   6 C       57   1 H                                       1.0828407
    37   6 C       58   1 H                                       1.0790938
    45   6 C       59   1 H                                       1.0821143
     9   6 C       60   1 H                                       1.0820708
    10   6 C       61   1 H                                       1.0832460
    11   6 C       62   1 H                                       1.0825228
    34   6 C       63   1 H                                       1.0815918
    35   6 C       64   1 H                                       1.0827337
    36   6 C       65   1 H                                       1.0838352
    16   6 C       67  15 P                                       1.7891655
    66   1 H       67  15 P                                       1.4076969
    41   6 C       68  15 P                                       1.7870156
    42   6 C       68  15 P                                       1.7995712
    46   6 C       68  15 P                                       1.7802264
    13   6 C       69  15 P                                       1.8095181 (max)
    14   6 C       69  15 P                                       1.8009362
    69  15 P       70   1 H                                       1.4029118
    25   6 C       71  15 P                                       1.7526831
    30   6 C       71  15 P                                       1.7395537
    32   6 C       72  15 P                                       1.8041758
    33   6 C       72  15 P                                       1.8092091
    72  15 P       73   1 H                                       1.4017552

 * 4 distinct bonds (by element types)

   Z      Z             #   av. dist./Å        max./Å        min./Å
   1 H    6 C          16     1.0813553     1.0838352     1.0770172
   6 C    6 C          57     1.4063067     1.4368351     1.3390470
   1 H   15 P           3     1.4041213     1.4076969     1.4017552
   6 C   15 P          10     1.7872055     1.8095181     1.7395537


optimized geometry written to: xtbopt.xyz


           -------------------------------------------------
          | TOTAL ENERGY             -127.328030929554 Eh   |
          | GRADIENT NORM               0.000354176496 Eh/α |
          | HOMO-LUMO GAP               0.279575163124 eV   |
           -------------------------------------------------

------------------------------------------------------------------------
 * finished run on 2025/12/08 at 00:34:55.516     
------------------------------------------------------------------------
 total:
 * wall-time:     0 d,  0 h,  0 min,  3.713 sec
 *  cpu-time:     0 d,  0 h,  0 min, 14.359 sec
 * ratio c/w:     3.867 speedup
 SCF:
 * wall-time:     0 d,  0 h,  0 min,  0.351 sec
 *  cpu-time:     0 d,  0 h,  0 min,  1.406 sec
 * ratio c/w:     4.006 speedup
 ANC optimizer:
 * wall-time:     0 d,  0 h,  0 min,  3.294 sec
 *  cpu-time:     0 d,  0 h,  0 min, 12.781 sec
 * ratio c/w:     3.880 speedup

normal termination of xtb
