73
 energy: -127.328030929554 gnorm: 0.000354176496 xtb: 6.7.1pre (5071a88)
C            1.73365668137237       -3.44917615033207        0.39146409815537
C            1.59337871182441       -1.06958775701865       -0.23638189015768
C            1.37223049336369        1.36072762314253       -0.31015380093299
C            1.15390766715995        3.79187234594901        0.00415814305325
C            3.12144414340605        5.23041949708697       -0.38216384564704
C            3.76349958813358       -2.05444028136422        0.41540941033740
C            3.59182707615672        0.31746187268665       -0.28974087654510
C            3.35369799282074        2.80214981152155       -0.50674133435522
C            5.25392987262978        4.29380838438453       -0.86079479909963
C            6.01476743719422       -2.89878673295061        1.05347939697198
C            5.75612673880296       -0.71658797009039        0.04335495907826
C           -4.64287747430130       -5.24879702228794       -0.28990206664261
C           -4.72239092157327       -2.89847117420174       -0.79194604203462
C           -4.92303318677499       -0.23087229437440       -0.40814059872602
C           -5.07022532094263        2.00432504057692        0.51023068197087
C           -5.50798261628896        4.21451244525755        1.50966447626457
C           -2.62366339855171       -3.90865955873971       -0.23532222374255
C           -2.73021191115208       -1.38873403168578       -0.55243170180478
C           -2.87337350611665        1.00941084123324        0.00662062158962
C           -3.00755964005914        3.36057191929317        0.67297801607757
C           -0.38488277240427       -4.72306104532985        0.61579436238705
C           -0.66854213510320       -0.01517007062134       -0.40421858481974
C           -0.83303133665036        2.36998976626029        0.11194514317525
C           -0.98220159191743        4.73979293258788        0.61878891702599
C            3.12822616896383       -3.28186691795730        0.73681534641993
C            2.99349602147676       -0.92387912848709       -0.00424754475454
C            2.77606238024698        1.49036583346721       -0.41212034045112
C            2.54562717821245        3.95051011396339       -0.29006800201263
C            4.45264466423848        5.40780028794571       -0.65100275617778
C            5.57916271558061       -4.09848530766461        1.53018752379975
C            5.17159997765875       -1.90196386376127        0.52810725666935
C            5.01079079423417        0.35165139756491       -0.36870884031387
C            4.72232650309374        3.02256597489240       -0.79082886815901
C           -5.35418610457515       -4.13772778257290       -0.67919239191809
C           -5.66575045700577        0.84749412992770        0.03878829567638
C           -5.91404107068526        3.00529634940819        1.10228309010125
C           -3.28111306288115       -5.12541679858903       -0.08021589670160
C           -3.35409160726030       -2.73630203742936       -0.57020032849622
C           -3.51760433865697       -0.21623487501649       -0.32248906209961
C           -3.65458484494690        2.14527319165925        0.39723028393832
C           -1.17728570983517       -3.87469576005238       -0.10511197550834
C           -1.36281374797671       -1.23645038936121       -0.63086212822515
C           -1.46099821823653        1.11494539171221       -0.07492179164192
C           -1.62175102499291        3.49065839421877        0.46865191255375
C            1.01106164300356       -4.58609598253991        0.73387092764350
C            1.07283213277149       -2.35671104955365       -0.21777825608463
C            0.75191049791634        0.08286529849576       -0.38959634658638
C            0.56151646667226        2.51629472142761       -0.08941506259661
C            0.34650210778634        4.88614364367241        0.38512219278313
H            2.50496945766630        6.10551022778815       -0.26324749612758
H           -6.20263322243818        4.90515947940546        1.97060950923344
H           -1.57939498186759        5.59888301469497        0.89684819548987
H            4.87226567369337        6.40053244916801       -0.71600179332758
H            6.29675153004459       -4.79472331670982        1.94660025126232
H            0.78391568454705        5.86219028348913        0.51254206842763
H           -5.12860144016396       -6.20630120338892       -0.17796726822965
H           -0.84067511203106       -5.52051087786664        1.18926691394559
H           -2.70172773348589       -6.00175530979581        0.16633358857891
H            1.53667339566768       -5.37378582993527        1.25755806624630
H            6.30369840594542        4.41222579086600       -1.09497507729396
H            7.07352997898113       -2.67241048462994        1.08808107818720
H            6.83598380973400       -0.65741864673314       -0.00421655176160
H           -6.41211837611595       -4.20492175849171       -0.89391296830010
H           -6.74624695990516        0.78192499053425        0.01555102327704
H           -6.94402442255292        2.70750015967572        1.26087112901412
H           -3.43255887934652        4.99127394578754        2.44622751885198
P           -3.89486437779832        4.88374685129066        1.12096460038558
P           -0.40318282700601       -2.66199289187168       -1.16508396518403
P           -5.76266870855865       -1.52308381026744       -1.34011270911769
H           -6.81049047549319       -1.74111191810558       -0.43308769032292
P            3.93081848120623       -4.65198786712712        1.47878001800880
P            5.84479244108660        1.68235362332547       -1.25680945101987
H            6.82260000235965        1.94783587254567       -0.28813568966068
