73
 energy: -127.313552435153 gnorm: 0.045021989548 xtb: 6.7.1pre (5071a88)
C            1.77324400000000       -3.51479300000000        0.35835100000000
C            1.60544300000000       -1.09290500000000       -0.17930800000000
C            1.38160800000000        1.36793200000000       -0.27107600000000
C            1.16297600000000        3.81984800000000        0.02888500000000
C            3.13985000000000        5.27619400000000       -0.31964400000000
C            3.81486100000000       -2.09833000000000        0.40292200000000
C            3.62636900000000        0.30298800000000       -0.26475600000000
C            3.38420600000000        2.82552900000000       -0.46930100000000
C            5.28960900000000        4.34097900000000       -0.81407700000000
C            6.10093300000000       -2.93401100000000        1.01842600000000
C            5.81412400000000       -0.72292900000000        0.05811100000000
C           -4.66723900000000       -5.35028700000000       -0.30438200000000
C           -4.78497100000000       -2.95905400000000       -0.69644300000000
C           -4.97945400000000       -0.22595500000000       -0.31806900000000
C           -5.12575200000000        2.06932600000000        0.49663800000000
C           -5.61521000000000        4.35436500000000        1.35532900000000
C           -2.64545700000000       -3.98491100000000       -0.23755900000000
C           -2.76987500000000       -1.40648500000000       -0.47030800000000
C           -2.91050400000000        1.03789900000000        0.02964100000000
C           -3.04614600000000        3.43879100000000        0.61637800000000
C           -0.36458700000000       -4.83779100000000        0.52050800000000
C           -0.68795800000000       -0.01012200000000       -0.35056200000000
C           -0.85220400000000        2.40721900000000        0.12034900000000
C           -0.98568500000000        4.80361600000000        0.60160300000000
C            3.19420000000000       -3.35695800000000        0.69449000000000
C            3.02786700000000       -0.94614800000000        0.01063100000000
C            2.79840000000000        1.49803600000000       -0.37745100000000
C            2.56407700000000        3.98021200000000       -0.25001000000000
C            4.47614400000000        5.46052000000000       -0.58600300000000
C            5.68304000000000       -4.16634200000000        1.46092600000000
C            5.23481900000000       -1.93425000000000        0.51500200000000
C            5.05992800000000        0.34245900000000       -0.35571100000000
C            4.76712600000000        3.05961300000000       -0.76008900000000
C           -5.40448900000000       -4.21827700000000       -0.61295500000000
C           -5.71888400000000        0.88405000000000        0.09409700000000
C           -5.99590500000000        3.11032100000000        1.01667600000000
C           -3.29269000000000       -5.22394100000000       -0.12955200000000
C           -3.40038800000000       -2.78731600000000       -0.50271200000000
C           -3.56866200000000       -0.21328200000000       -0.25377500000000
C           -3.69383200000000        2.20345200000000        0.38554000000000
C           -1.18751600000000       -3.95026400000000       -0.12487900000000
C           -1.39823300000000       -1.24648400000000       -0.56411300000000
C           -1.48555000000000        1.14291800000000       -0.05381400000000
C           -1.64712000000000        3.55093800000000        0.44815000000000
C            1.04781700000000       -4.67957600000000        0.63727900000000
C            1.09634900000000       -2.38238500000000       -0.18842600000000
C            0.74765800000000        0.07688300000000       -0.33121400000000
C            0.56218400000000        2.53831800000000       -0.06007100000000
C            0.35307100000000        4.93213300000000        0.38941300000000
H            2.51812900000000        6.15154600000000       -0.18813800000000
H           -6.34100900000000        5.06169900000000        1.74914100000000
H           -1.55243200000000        5.68758000000000        0.87225500000000
H            4.89414400000000        6.46141100000000       -0.63732400000000
H            6.42417200000000       -4.85606300000000        1.85958400000000
H            0.79703200000000        5.90981300000000        0.52023700000000
H           -5.14550800000000       -6.32209400000000       -0.22836200000000
H           -0.79218100000000       -5.70272100000000        1.02417900000000
H           -2.69485300000000       -6.11078100000000        0.05202000000000
H            1.57531800000000       -5.50725800000000        1.10000900000000
H            6.34178900000000        4.48430100000000       -1.04841200000000
H            7.16059000000000       -2.68756300000000        1.05915900000000
H            6.89946800000000       -0.66394500000000        0.02570900000000
H           -6.47461900000000       -4.29908500000000       -0.78522900000000
H           -6.80493300000000        0.82338700000000        0.10251100000000
H           -7.03782000000000        2.82206400000000        1.14860400000000
H           -3.49663100000000        5.27945100000000        2.28708600000000
P           -3.97573600000000        4.99389900000000        0.97420800000000
P           -0.41534100000000       -2.66238400000000       -1.09275900000000
P           -5.86663500000000       -1.56754900000000       -1.15029000000000
H           -6.90903900000000       -1.78212400000000       -0.20658600000000
P            4.03767300000000       -4.74237000000000        1.39229200000000
P            5.87483900000000        1.69936200000000       -1.24576300000000
H            6.95083200000000        1.94554700000000       -0.35028500000000
73
 energy: -127.324055326167 gnorm: 0.021887324738 xtb: 6.7.1pre (5071a88)
C            1.76538643457177       -3.49518063930874        0.35631476039235
C            1.59983185692466       -1.07954644440235       -0.18384234631624
C            1.37563118760923        1.36490017253026       -0.26253062842416
C            1.15811434944382        3.80581311188023        0.02855032101644
C            3.13696681236943        5.25031075324388       -0.32192751654451
C            3.79622624540370       -2.08169639850368        0.40032853876186
C            3.60965125727266        0.31186011746776       -0.25914946925159
C            3.37009743640340        2.81319486054047       -0.46225649532650
C            5.27389764941419        4.31685262775414       -0.80658712984939
C            6.06994678359271       -2.92362181197025        1.00992046407970
C            5.78730475970796       -0.71592845401685        0.05702710859541
C           -4.64992478401116       -5.32022678875536       -0.30499484483633
C           -4.76300047389119       -2.93797695289111       -0.67373335164077
C           -4.96110950869750       -0.23498111286145       -0.30314025323738
C           -5.10615405485386        2.05765780288218        0.49290701231448
C           -5.57314740640315        4.33403942859775        1.35089634597082
C           -2.63407401966725       -3.96130329042386       -0.23300925420602
C           -2.76012088469818       -1.40163100263412       -0.46236176269404
C           -2.90111230599796        1.02858922865353        0.03720781685406
C           -3.03523595334834        3.41606087743559        0.62383810422824
C           -0.35368313146567       -4.81676714775435        0.51753301843648
C           -0.68325365991938       -0.01039328295342       -0.33869952238287
C           -0.84864111773375        2.39501792527321        0.12339884954660
C           -0.98957145921043        4.77955255327330        0.59703340722609
C            3.17434105885751       -3.33073799067237        0.68665158857929
C            3.01424689547798       -0.93441394033514        0.01563652176082
C            2.78600233801060        1.49559063266796       -0.37029461255575
C            2.55725126633788        3.96378643423840       -0.24637246608504
C            4.46821197489890        5.43164142784157       -0.58608562931810
C            5.65189841017205       -4.14760385693538        1.44879001971385
C            5.20961988135565       -1.92239055131105        0.51205621651179
C            5.03575154940188        0.35421569714924       -0.34300599059855
C            4.74755350626264        3.04194355059937       -0.74326516304305
C           -5.38173427493338       -4.19206049587803       -0.60463933659520
C           -5.69956269815864        0.87324588714589        0.09530256473304
C           -5.96472909188116        3.09899431539396        1.00731172849900
C           -3.28184103678594       -5.19413037719534       -0.12964830045410
C           -3.38312778517639       -2.77008477679870       -0.49187416040187
C           -3.55372264975962       -0.21674000225981       -0.24526492678148
C           -3.68283024917369        2.18839535576887        0.38384004806195
C           -1.17965984164495       -3.92818805013427       -0.11824719126251
C           -1.39129573254661       -1.24061766024757       -0.54632656320064
C           -1.48110385060623        1.13450887031286       -0.04392915531121
C           -1.64199034280463        3.53115583262679        0.44881534411600
C            1.05041404523380       -4.65812094977267        0.63182016246843
C            1.08523939856864       -2.36807560117031       -0.18134947889341
C            0.74537581635409        0.08103105515672       -0.32637346915255
C            0.55863259879357        2.52892211947424       -0.05947096602701
C            0.34606282937577        4.91047390692730        0.38778323398828
H            2.52291524507785        6.12730688406969       -0.19278428285975
H           -6.29291390750148        5.04911231966881        1.73659389069820
H           -1.56873878712759        5.65621953563934        0.86180430658912
H            4.88800450930321        6.42802279505652       -0.63843052471656
H            6.38743135495752       -4.84122260307074        1.84521872010806
H            0.78602080198947        5.88662864834627        0.51911185613991
H           -5.12755433119417       -6.28895737545349       -0.23229162949646
H           -0.77767202060987       -5.67760575975004        1.02409460682807
H           -2.69082738911478       -6.08127668247232        0.05108287005212
H            1.58463119295870       -5.48100260748911        1.09262003405977
H            6.32272076379540        4.45505521072888       -1.04377843238335
H            7.12795359042225       -2.68400111910005        1.05365182784296
H            6.86987524458373       -0.65683502511801        0.01842775324067
H           -6.44771913179534       -4.26963236349841       -0.78567740564802
H           -6.78289081932651        0.81095127365362        0.09188858306732
H           -7.00443436479166        2.81608970828907        1.14671874586255
H           -3.51678998315633        5.21528624575569        2.27046405052525
P           -3.94768757174305        4.97746249071938        0.93879038345390
P           -0.41681977295897       -2.64755453848113       -1.09886534693215
P           -5.83882552044795       -1.55977155620085       -1.16312706510776
H           -6.84913383154053       -1.77894236295782       -0.19726856820258
P            4.00703342307091       -4.71835004397496        1.37540722427690
P            5.84670808283705        1.69182529571153       -1.25501010382658
H            6.89052419386670        1.94372066427887       -0.33629368503628
73
 energy: -127.327208762520 gnorm: 0.008461870140 xtb: 6.7.1pre (5071a88)
C            1.75706329731368       -3.47826720719312        0.35324685294300
C            1.59269456485419       -1.06996280768597       -0.18778690520331
C            1.36868747934805        1.36154332911594       -0.25852356447609
C            1.15278690334694        3.79467403142814        0.03258589923017
C            3.12804780907470        5.23108550561446       -0.31914072222982
C            3.77720062657573       -2.06775403277779        0.40293276013923
C            3.59233026715747        0.31728030148582       -0.25698070574246
C            3.35434482184836        2.80315933172747       -0.46077629446193
C            5.25765906720449        4.29744191100780       -0.80466294084419
C            6.04060106146923       -2.91457275744285        1.00611213874521
C            5.76251247512746       -0.71233179386497        0.05319856201081
C           -4.63065766715735       -5.29512503743413       -0.29819178258047
C           -4.73707719132890       -2.92275892985213       -0.67567230190100
C           -4.94217104776449       -0.23757444057896       -0.29969587909489
C           -5.08960269896349        2.04716687832930        0.49052832387237
C           -5.54978309236139        4.32168779261226        1.32723953948175
C           -2.61948813423765       -3.93942653377510       -0.22655444915681
C           -2.74836140599129       -1.39742776737856       -0.45798168749686
C           -2.88996984959579        1.01960162827869        0.04820816251521
C           -3.02549177139736        3.39965921613869        0.61729631275196
C           -0.34606269983195       -4.79754730067771        0.51814299266528
C           -0.67871767456380       -0.01176614099303       -0.33192643638118
C           -0.84370858355546        2.38312904224582        0.13130076668528
C           -0.99084443174917        4.76219140708412        0.59294159482646
C            3.15502677403906       -3.31055639282750        0.68568987053527
C            2.99892160638280       -0.92661138874304        0.02061729371157
C            2.77356496703467        1.49216664608012       -0.36701532794172
C            2.54822728020515        3.95103593667662       -0.24182965578420
C            4.45866158041973        5.41005177234165       -0.58090305738501
C            5.62106170765963       -4.13450838364969        1.44059750434547
C            5.18531999168595       -1.91096493452593        0.51400954723847
C            5.01185020663610        0.35682836233552       -0.34429381400474
C            4.72425801177915        3.02798496001263       -0.74563464424069
C           -5.35838527961173       -4.17011238514010       -0.60199631098966
C           -5.68243904902394        0.86372723283530        0.09444870475011
C           -5.94444100215094        3.08750250062695        0.99435248347191
C           -3.26562418008170       -5.16825550115485       -0.12165942129310
C           -3.36282554997010       -2.75472495034220       -0.49032749234176
C           -3.53686741731240       -0.21929855624699       -0.23838908569990
C           -3.67229497983368        2.17526693911426        0.38225151087109
C           -1.16920705878068       -3.90867110465068       -0.11638774389979
C           -1.38178132801272       -1.23602828811326       -0.54027636519413
C           -1.47482563604022        1.12554450323108       -0.03141779549814
C           -1.63523509520819        3.51560069494154        0.44649820887266
C            1.05066866580621       -4.64142935757367        0.62798500890340
C            1.07600879805031       -2.35804933080360       -0.18321780799633
C            0.74327516041254        0.08306142206410       -0.32472392245237
C            0.55596416868292        2.52027933607760       -0.05454709384486
C            0.34296222164808        4.89593386612077        0.38789393242226
H            2.51551349431691        6.10766620117567       -0.19300422521204
H           -6.25676784530193        5.03774474242350        1.72838922104094
H           -1.58244948648326        5.63150585831490        0.85149823909728
H            4.87972960270557        6.40286919703543       -0.63668908685384
H            6.34994074001967       -4.83364395752510        1.83325338647255
H            0.78220829996563        5.87126718060745        0.51432762893949
H           -5.10644979339219       -6.26220189433676       -0.23129965551646
H           -0.77118025274141       -5.65089169654610        1.03179320983534
H           -2.67638773184953       -6.05447237143233        0.05614496119187
H            1.59164658752099       -5.45950797342786        1.08681465057539
H            6.30610294402819        4.42526208637778       -1.04001596343797
H            7.09748553606871       -2.67948933060215        1.04839001254711
H            6.84266388902847       -0.65048854014126        0.00831740572366
H           -6.42261530961332       -4.23917774718836       -0.78504282820829
H           -6.76349898979328        0.79647942530275        0.08190025034749
H           -6.97756303750152        2.79967275606745        1.15598135716688
H           -3.50346190451832        5.17902644470357        2.26764468982783
P           -3.92037913437718        4.95533976081276        0.93992124023343
P           -0.41591725495930       -2.63654122441504       -1.11300297107461
P           -5.81839196284295       -1.55521565288545       -1.16151151231362
H           -6.81629224972595       -1.77471836704420       -0.19644959414964
P            3.97661030482542       -4.70122824992890        1.36829456820990
P            5.82795387651573        1.68699048320537       -1.25066571205538
H            6.85250398886661        1.94173964534617       -0.32562303524077
73
 energy: -127.327540600747 gnorm: 0.004130571777 xtb: 6.7.1pre (5071a88)
C            1.75300373074572       -3.47360574694152        0.35011691548639
C            1.58988904603273       -1.06879121455641       -0.19248344338491
C            1.36606012803978        1.36153937018131       -0.25860698859508
C            1.15067764715782        3.79448962890672        0.03617594790776
C            3.12552089574284        5.22917322766004       -0.31882012405946
C            3.77119963535343       -2.06457787375320        0.40553535712450
C            3.58740550575892        0.31804077317921       -0.25908759574351
C            3.34981569031301        2.80161951195904       -0.46286283186753
C            5.25468448957291        4.29205936907596       -0.80622901548814
C            6.03190183994318       -2.91298499532564        1.00798140819220
C            5.75675890638573       -0.71201792964368        0.05076249090785
C           -4.62333195515305       -5.28898691022608       -0.29392766810174
C           -4.73025713303730       -2.91754434294507       -0.68128510426103
C           -4.93664793926049       -0.23831590219123       -0.30431150145673
C           -5.08562494429857        2.04256624287860        0.49302117166579
C           -5.54082874741388        4.31572637906163        1.33223104555099
C           -2.61355344647920       -3.93256646186407       -0.22715425301244
C           -2.74292452607041       -1.39579795897760       -0.46233595723682
C           -2.88632195445513        1.01737858806347        0.05095528690983
C           -3.02371735049917        3.39624243979109        0.62045366712476
C           -0.34728595479186       -4.78951384803032        0.52159446524021
C           -0.67768548628580       -0.01245043420690       -0.33377608626951
C           -0.84238662096711        2.38046087927364        0.13648923685227
C           -0.99186462155281        4.76069514564311        0.59364030291638
C            3.14827255967719       -3.30668472146810        0.68956308457408
C            2.99377798819812       -0.92586369479547        0.02000952172523
C            2.76969279148079        1.49129384000717       -0.36927721171230
C            2.54514672884593        3.95021895807016       -0.24137966850670
C            4.45723546650283        5.40610949566041       -0.58164164986928
C            5.61000689670362       -4.13248517652506        1.44343477489712
C            5.17889507017969       -1.90812902910567        0.51530140838001
C            5.00579411656884        0.35592241398531       -0.34964170789570
C            4.71838659892910        3.02316574287063       -0.75037851810285
C           -5.35151195543079       -4.16463360135139       -0.60327572278640
C           -5.67859936773436        0.86015981707011        0.09234542992699
C           -5.93787194997286        3.08083173872458        1.00268496929690
C           -3.25790024620209       -5.16120783149771       -0.11642588556946
C           -3.35682360605126       -2.74944547067766       -0.49396213521459
C           -3.53112363660538       -0.22026495473502       -0.23841561448949
C           -3.66906522849851        2.17110344376979        0.38667510277449
C           -1.16493777271037       -3.90175936070408       -0.12074503885273
C           -1.37662006365580       -1.23534594177844       -0.54920764054824
C           -1.47243043261087        1.12293333293861       -0.02707965857099
C           -1.63323525267324        3.51236205339569        0.45081031105998
C            1.04825544250472       -4.63791738212085        0.62775189747049
C            1.07402941663167       -2.35715076078073       -0.19332718597985
C            0.74290642581730        0.08363845160231       -0.32777917039370
C            0.55521771575550        2.51958779261002       -0.05089932710415
C            0.34182915125076        4.89617682622728        0.38977329325048
H            2.51337613718793        6.10580141375819       -0.19153059582134
H           -6.24598195711174        5.03791576764180        1.72370474121862
H           -1.58803681203824        5.62816294905063        0.84629601933417
H            4.87996797516745        6.39802283202218       -0.63453449088055
H            6.33621246883009       -4.83545697475950        1.83243766139815
H            0.78061585607689        5.87162958123232        0.51472055354116
H           -5.09835878123020       -6.25547263517471       -0.22179050619713
H           -0.77712820899293       -5.63500149842055        1.04433786613513
H           -2.66657147545438       -6.04487671234781        0.06704865968877
H            1.59085424633605       -5.45318439132550        1.08883184431934
H            6.30365695513210        4.41335521383888       -1.04204410256391
H            7.08874832403210       -2.67866208276251        1.04790341649011
H            6.83630944842633       -0.64930900911501        0.00117118775848
H           -6.41549358857299       -4.22976474687643       -0.78768714956272
H           -6.75920350841457        0.79064306984930        0.07673149101748
H           -6.97239422646036        2.79649319565911        1.15517861686291
H           -3.49843910473938        5.14827178810802        2.26883969194759
P           -3.91557330431573        4.95045990901933        0.93833574174017
P           -0.41382211242460       -2.63581263708963       -1.12766014569414
P           -5.81108090069901       -1.55276855876197       -1.16892760874451
H           -6.79782019513475       -1.77514250475345       -0.19544083969374
P            3.96567057236821       -4.69760766991699        1.37521093539771
P            5.82344615685854        1.68425933831748       -1.25354267871389
H            6.83207334349129        1.94045644440298       -0.31364969313920
73
 energy: -127.327648497629 gnorm: 0.002021524303 xtb: 6.7.1pre (5071a88)
C            1.75024519199599       -3.47105145987147        0.34716236885526
C            1.58878377533441       -1.06882317931682       -0.19827901289700
C            1.36551239405936        1.36201810947614       -0.25977906771770
C            1.15018475273204        3.79538243602887        0.03850122479024
C            3.12589261543029        5.22962565093000       -0.31861552904166
C            3.76867475351912       -2.06381775764365        0.40599468648406
C            3.58598824374587        0.31780293301221       -0.26205585373780
C            3.34854364794056        2.80181443305434       -0.46524395384918
C            5.25395786885428        4.29056970032972       -0.80959553999756
C            6.02798013064524       -2.91333510271890        1.01037570579987
C            5.75507306762772       -0.71342855823939        0.04813955813130
C           -4.61987916877020       -5.28643358055681       -0.28889715729961
C           -4.72752037772983       -2.91627330531912       -0.68871990325184
C           -4.93396963288454       -0.23905180810368       -0.30991170075209
C           -5.08436574077288        2.03919715179733        0.49536623335993
C           -5.54026764618417        4.31242119347412        1.33398620509931
C           -2.61085233461162       -3.92919956742875       -0.22895195726754
C           -2.73978029544931       -1.39510635500756       -0.46936291455486
C           -2.88442665615720        1.01610238358854        0.05104614996749
C           -3.02315542381204        3.39430653856132        0.62264811438384
C           -0.35000513743636       -4.78243852463009        0.52644854593710
C           -0.67719962901429       -0.01282975751768       -0.33893621341917
C           -0.84140768182515        2.37903920421048        0.13945369179849
C           -0.99267272913352        4.76037423716580        0.59450755183433
C            3.14447640145988       -3.30526859151516        0.69187824707508
C            2.99176643438964       -0.92628232047027        0.01754287948045
C            2.76880157244080        1.49112391833923       -0.37183437057372
C            2.54443534546946        3.95103899933941       -0.24162394589399
C            4.45790765795130        5.40527812181031       -0.58296567658082
C            5.60386206812950       -4.13159885396268        1.44849414697217
C            5.17654749466571       -1.90795326299346        0.51581834657607
C            5.00417527386073        0.35427767578684       -0.35399161943901
C            4.71656474832406        3.02161751260145       -0.75460674231949
C           -5.34811188413046       -4.16380453984829       -0.60582285266514
C           -5.67687882522249        0.85759820645990        0.09057424810668
C           -5.93731679491947        3.07699418210431        1.00548762731090
C           -3.25434443963370       -5.15768093889798       -0.11118644569003
C           -3.35446191926639       -2.74743894096890       -0.50062738127948
C           -3.52816243536308       -0.22088178441209       -0.24184273272028
C           -3.66761896144636        2.16861847100752        0.38934627205039
C           -1.16297439335557       -3.89737346957307       -0.12533236382236
C           -1.37336304810545       -1.23553932238353       -0.55980387922456
C           -1.47097313063137        1.12151695042586       -0.02662851058974
C           -1.63236152188178        3.51060463145486        0.45347055044003
C            1.04556034705133       -4.63521940894055        0.62981328691836
C            1.07357382108521       -2.35754584157466       -0.20381117683433
C            0.74329971313496        0.08421005618624       -0.33281872452224
C            0.55553872342671        2.51988630298722       -0.04899376486192
C            0.34115549500211        4.89724887503868        0.39170728040604
H            2.51451304715393        6.10657157717524       -0.18998860343331
H           -6.24392822894537        5.03542551943648        1.72639636688612
H           -1.59118907788811        5.62689813627999        0.84395417631373
H            4.88169123127727        6.39685028803571       -0.63398395918574
H            6.32820858674115       -4.83609529085555        1.83779636482231
H            0.77888796649254        5.87316813333292        0.51605765642008
H           -5.09443532976714       -6.25256924016729       -0.21045344933071
H           -0.78445497280462       -5.62016288776083        1.05805674917305
H           -2.66125086577666       -6.03905381597803        0.07796951489792
H            1.58828863268611       -5.44775762325003        1.09506894934966
H            6.30320816590481        4.40789610495997       -1.04621044941593
H            7.08501242171970       -2.67980678091391        1.04863543758963
H            6.83439134629460       -0.65036212364144       -0.00399672001527
H           -6.41178263271431       -4.22753629761848       -0.79193558599078
H           -6.75734565809711        0.78722086787671        0.07218243564555
H           -6.97096821251085        2.79083861829680        1.16076837208963
H           -3.49322057545405        5.13545568144075        2.28005155345340
P           -3.91285264510329        4.94632687130171        0.94995855802110
P           -0.41213308149581       -2.63721816276246       -1.14095836724350
P           -5.80860575512861       -1.55222532478302       -1.17509431536421
H           -6.79276685760248       -1.77549310012485       -0.20006133935468
P            3.95915149244015       -4.69429902139151        1.38449096593706
P            5.82460543765548        1.68351597513137       -1.25333317820192
H            6.82538483438358        1.93998625270384       -0.30596406403746
73
 energy: -127.327714775127 gnorm: 0.001983063927 xtb: 6.7.1pre (5071a88)
C            1.74804948541870       -3.46881074499896        0.34455360006201
C            1.58883732915231       -1.06907776236649       -0.20572320542698
C            1.36624050074376        1.36240021298547       -0.26266376740551
C            1.15094540778589        3.79582495180027        0.03939627129405
C            3.12708486103730        5.23031896868672       -0.31844813880138
C            3.76780704241960       -2.06391066560713        0.40432956644386
C            3.58651889540706        0.31734461819998       -0.26553804544609
C            3.34928145681748        2.80234373963542       -0.46734542933836
C            5.25410790157521        4.29106613680537       -0.81403242082388
C            6.02577367793820       -2.91439407726049        1.01292339919839
C            5.75520756806467       -0.71572609252103        0.04510839834578
C           -4.61867017301073       -5.28456727075476       -0.28345278873863
C           -4.72670005436458       -2.91635273489440       -0.69748747707617