      -----------------------------------------------------------      
     |                   =====================                   |     
     |                           x T B                           |     
     |                   =====================                   |     
     |                         S. Grimme                         |     
     |          Mulliken Center for Theoretical Chemistry        |     
     |                    University of Bonn                     |     
      -----------------------------------------------------------      

   * xtb version 6.7.1pre (5071a88) compiled by 'Marcel@Raven' on 2024-07-23

   xtb is free software: you can redistribute it and/or modify it under
   the terms of the GNU Lesser General Public License as published by
   the Free Software Foundation, either version 3 of the License, or
   (at your option) any later version.
   
   xtb is distributed in the hope that it will be useful,
   but WITHOUT ANY WARRANTY; without even the implied warranty of
   MERCHANTABILITY or FITNESS FOR A PARTICULAR PURPOSE.  See the
   GNU Lesser General Public License for more details.
   
   Cite this work as:
   * C. Bannwarth, E. Caldeweyher, S. Ehlert, A. Hansen, P. Pracht,
     J. Seibert, S. Spicher, S. Grimme, WIREs Comput. Mol. Sci., 2020, 11,
     e01493. DOI: 10.1002/wcms.1493
   
   for GFN2-xTB:
   * C. Bannwarth, S. Ehlert and S. Grimme., J. Chem. Theory Comput., 2019,
     15, 1652-1671. DOI: 10.1021/acs.jctc.8b01176
   for GFN1-xTB:
   * S. Grimme, C. Bannwarth, P. Shushkov, J. Chem. Theory Comput., 2017,
     13, 1989-2009. DOI: 10.1021/acs.jctc.7b00118
   for GFN0-xTB:
   * P. Pracht, E. Caldeweyher, S. Ehlert, S. Grimme, ChemRxiv, 2019, preprint.
     DOI: 10.26434/chemrxiv.8326202.v1
   for GFN-FF:
   * S. Spicher and S. Grimme, Angew. Chem. Int. Ed., 2020, 59, 15665-15673.
     DOI: 10.1002/anie.202004239
   
   for ALPB and GBSA implicit solvation:
   * S. Ehlert, M. Stahn, S. Spicher, S. Grimme, J. Chem. Theory Comput.,
     2021, 17, 4250-4261. DOI: 10.1021/acs.jctc.1c00471
   
   for ddCOSMO and CPCM-X implicit solvation:
   * M. Stahn, S. Ehlert, S. Grimme, J. Phys. Chem. A,
     2023, XX, XXXX-XXXX. DOI: 10.1021/acs.jpca.3c04382
   
   for DFT-D4:
   * E. Caldeweyher, C. Bannwarth and S. Grimme, J. Chem. Phys., 2017,
     147, 034112. DOI: 10.1063/1.4993215
   * E. Caldeweyher, S. Ehlert, A. Hansen, H. Neugebauer, S. Spicher,
     C. Bannwarth and S. Grimme, J. Chem. Phys., 2019, 150, 154122.
     DOI: 10.1063/1.5090222
   * E. Caldeweyher, J.-M. Mewes, S. Ehlert and S. Grimme, Phys. Chem. Chem. Phys.
     2020, 22, 8499-8512. DOI: 10.1039/D0CP00502A
   
   for sTDA-xTB:
   * S. Grimme and C. Bannwarth, J. Chem. Phys., 2016, 145, 054103.
     DOI: 10.1063/1.4959605
   
   in the mass-spec context:
   * V. Asgeirsson, C. Bauer and S. Grimme, Chem. Sci., 2017, 8, 4879.
     DOI: 10.1039/c7sc00601b
   * J. Koopman and S. Grimme, ACS Omega 2019, 4, 12, 15120-15133.
     DOI: 10.1021/acsomega.9b02011
   
   for metadynamics refer to:
   * S. Grimme, J. Chem. Theory Comput., 2019, 155, 2847-2862
     DOI: 10.1021/acs.jctc.9b00143
   
   for SPH calculations refer to:
   * S. Spicher and S. Grimme, J. Chem. Theory Comput., 2021, 17, 1701-1714
     DOI: 10.1021/acs.jctc.0c01306
   
   for ONIOM refer to:
   * C. Plett, A. Katbashev, S. Ehlert, S. Grimme, M. Bursch,
     Phys. Chem. Chem. Phys., 2023, 25, 17860-17868. DOI: 10.1039/D3CP02178E
   
   for DIPRO refer to:
   * J. Kohn, N. Gildemeister, S. Grimme, D. Fazzi, A. Hansen,
     J. Chem. Phys., 2023, just accepted.
   
   for PTB refer to:
   * S. Grimme, M. Mueller, A. Hansen, J. Chem. Phys., 2023, 158, 124111.
     DOI: 10.1063/5.0137838
   
   with help from (in alphabetical order)
   P. Atkinson, C. Bannwarth, F. Bohle, G. Brandenburg, E. Caldeweyher
   M. Checinski, S. Dohm, S. Ehlert, S. Ehrlich, I. Gerasimov, C. Hölzer
   A. Katbashev, J. Kohn, J. Koopman, C. Lavigne, S. Lehtola, F. März, M. Müller,
   F. Musil, H. Neugebauer, J. Pisarek, C. Plett, P. Pracht, F. Pultar,
   J. Seibert, P. Shushkov, S. Spicher, M. Stahn, M. Steiner, T. Strunk,
   J. Stückrath, T. Rose, and J. Unsleber
   
 * started run on 2025/12/08 at 00:34:46.474     
   ID    Z sym.   atoms
    1    6 C      1-9, 11-49, 69
    2    7 N      10, 65-68
    3    1 H      50-64, 70-73

           -------------------------------------------------
          |                Calculation Setup                |
           -------------------------------------------------

          program call               : xtb "C:\Users\LENOVO GAMING\Documents\GitHub\molecular-conductivity-sim\dataset\1nm-5Ndoped-7percent.xyz" --opt --parallel 4
          coordinate file            : C:\Users\LENOVO GAMING\Documents\GitHub\molecular-conductivity-sim\dataset\1nm-5Ndoped-7percent.xyz
          omp threads                :                     4


           -------------------------------------------------
          |                 G F N 2 - x T B                 |
           -------------------------------------------------

        Reference                      10.1021/acs.jctc.8b01176
      * Hamiltonian:
        H0-scaling (s, p, d)           1.850000    2.230000    2.230000
        zeta-weighting                 0.500000
      * Dispersion:
        s8                             2.700000
        a1                             0.520000
        a2                             5.000000
        s9                             5.000000
      * Repulsion:
        kExp                           1.500000    1.000000
        rExp                           1.000000
      * Coulomb:
        alpha                          2.000000
        third order                    shell-resolved
        anisotropic                    true
        a3                             3.000000
        a5                             4.000000
        cn-shift                       1.200000
        cn-exp                         4.000000
        max-rad                        5.000000


          ...................................................
          :                      SETUP                      :
          :.................................................:
          :  # basis functions                 235          :
          :  # atomic orbitals                 235          :
          :  # shells                          127          :
          :  # electrons                       240          :
          :  max. iterations                   250          :
          :  Hamiltonian                  GFN2-xTB          :
          :  restarted?                      false          :
          :  GBSA solvation                  false          :
          :  PC potential                    false          :
          :  electronic temp.          300.0000000     K    :
          :  accuracy                    1.0000000          :
          :  -> integral cutoff          0.2500000E+02      :
          :  -> integral neglect         0.1000000E-07      :
          :  -> SCF convergence          0.1000000E-05 Eh   :
          :  -> wf. convergence          0.1000000E-03 e    :
          :  Broyden damping             0.4000000          :
          :  net charge                          0          :
          :  unpaired electrons                  0          :
          ...................................................

 iter      E             dE          RMSdq      gap      omega  full diag
   1   -131.4314562 -0.131431E+03  0.456E+00    0.77       0.0  T
   2   -131.2885536  0.142903E+00  0.364E+00    0.28       1.0  T
   3   -131.3777118 -0.891582E-01  0.249E+00    0.77       1.0  T
   4   -131.5360364 -0.158325E+00  0.149E+00    0.54       1.0  T
   5   -131.6903141 -0.154278E+00  0.947E-01    0.70       1.0  T
   6   -131.7833759 -0.930618E-01  0.392E-01    0.47       1.0  T
   7   -131.7904427 -0.706674E-02  0.269E-01    0.38       1.0  T
   8   -131.7943095 -0.386685E-02  0.110E-01    0.35       1.0  T
   9   -131.7945117 -0.202158E-03  0.649E-02    0.32       1.0  T
  10   -131.7948265 -0.314820E-03  0.237E-02    0.33       1.0  T
  11   -131.7948717 -0.451606E-04  0.138E-02    0.32       1.0  T
  12   -131.7948828 -0.111525E-04  0.544E-03    0.32       2.2  T
  13   -131.7948847 -0.184842E-05  0.210E-03    0.32       5.6  T
  14   -131.7948848 -0.190261E-06  0.750E-04    0.32      15.6  T
  15   -131.7948849 -0.179648E-07  0.440E-04    0.32      26.6  T

   *** convergence criteria satisfied after 15 iterations ***

         #    Occupation            Energy/Eh            Energy/eV
      -------------------------------------------------------------
         1        2.0000           -0.6817635             -18.5517
       ...           ...                  ...                  ...
       114        2.0000           -0.3780370             -10.2869
       115        2.0000           -0.3704587             -10.0807
       116        2.0000           -0.3588042              -9.7636
       117        2.0000           -0.3554532              -9.6724
       118        2.0000           -0.3254123              -8.8549
       119        2.0000           -0.3247191              -8.8361
       120        1.9962           -0.2991797              -8.1411 (HOMO)
       121        0.0038           -0.2872712              -7.8170 (LUMO)
       122                         -0.2640284              -7.1846
       123                         -0.2609735              -7.1015
       124                         -0.2516635              -6.8481
       125                         -0.2402412              -6.5373
       ...                                ...                  ...
       235                          0.7446983              20.2643
      -------------------------------------------------------------
                  HL-Gap            0.0119085 Eh            0.3240 eV
             Fermi-level           -0.2932255 Eh           -7.9791 eV

 SCC (total)                   0 d,  0 h,  0 min,  0.298 sec
 SCC setup                      ...        0 min,  0.001 sec (  0.336%)
 Dispersion                     ...        0 min,  0.002 sec (  0.671%)
 classical contributions        ...        0 min,  0.000 sec (  0.000%)
 integral evaluation            ...        0 min,  0.014 sec (  4.698%)
 iterations                     ...        0 min,  0.233 sec ( 78.188%)
 molecular gradient             ...        0 min,  0.047 sec ( 15.772%)
 printout                       ...        0 min,  0.001 sec (  0.336%)

         :::::::::::::::::::::::::::::::::::::::::::::::::::::
         ::                     SUMMARY                     ::
         :::::::::::::::::::::::::::::::::::::::::::::::::::::
         :: total energy            -129.540292516286 Eh    ::
         :: gradient norm              0.051572572461 Eh/a0 ::
         :: HOMO-LUMO gap              0.324045613722 eV    ::
         ::.................................................::
         :: SCC energy              -131.797001551156 Eh    ::
         :: -> isotropic ES            0.031431245313 Eh    ::
         :: -> anisotropic ES          0.017394202870 Eh    ::
         :: -> anisotropic XC          0.054919351047 Eh    ::
         :: -> dispersion             -0.134662346922 Eh    ::
         :: repulsion energy           2.256709034870 Eh    ::
         :: add. restraining           0.000000000000 Eh    ::
         :: total charge              -0.000000000000 e     ::
         :::::::::::::::::::::::::::::::::::::::::::::::::::::

      ----------------------------------------------------------- 
     |                   =====================                   |
     |                        A N C O P T                        |
     |                   =====================                   |
     |               Approximate Normal Coordinate               |
     |                Rational Function Optimizer                |
      ----------------------------------------------------------- 
      ----------------------------------------------------------- 
     |                   =====================                   |
     |                        A N C O P T                        |
     |                   =====================                   |
     |               Approximate Normal Coordinate               |
     |                Rational Function Optimizer                |
      ----------------------------------------------------------- 

          ...................................................
          :                      SETUP                      :
          :.................................................:
          :   optimization level            normal          :
          :   max. optcycles                   219          :
          :   ANC micro-cycles                  20          :
          :   degrees of freedom               213          :
          :.................................................:
          :   RF solver                   davidson          :
          :   write xtbopt.log                true          :
          :   linear?                        false          :
          :   energy convergence         0.5000000E-05 Eh   :
          :   grad. convergence          0.1000000E-02 Eh/α :
          :   maxmium RF displ.          1.0000000          :
          :   Hlow (freq-cutoff)         0.1000000E-01      :
          :   Hmax (freq-cutoff)         5.0000000          :
          :   S6 in model hess.         20.0000000          :
          ...................................................

generating ANC from exact Hessian ...
Using Lindh-Hessian (1995)
 Shifting diagonal of input Hessian by   9.663007226648666E-003
 Lowest  eigenvalues of input Hessian
    0.000000    0.000000    0.000000    0.000000    0.000000    0.000000
    0.010000    0.010322    0.010767    0.011074    0.011524    0.013123
    0.013828    0.014435    0.015185    0.016346    0.017344    0.017743
 Highest eigenvalues
    2.094830    2.119188    2.147332    2.161845    2.182712    2.209602
 

........................................................................
.............................. CYCLE    1 ..............................
........................................................................

 iter      E             dE          RMSdq      gap      omega  full diag
   1   -131.7948849 -0.131795E+03  0.254E-04    0.32       0.0  T
   2   -131.7948848  0.336325E-07  0.526E-04    0.32      22.3  T
   3   -131.7948849 -0.290932E-07  0.270E-04    0.32      43.3  T
     SCC iter.                  ...        0 min,  0.046 sec
     gradient                   ...        0 min,  0.047 sec
 * total energy  :  -129.5402925 Eh     change       -0.7547385E-09 Eh
   gradient norm :     0.0515715 Eh/α   predicted     0.0000000E+00 (-100.00%)
   displ. norm   :     0.3742629 α      lambda       -0.1094463E-01
   maximum displ.:     0.3342199 α      in ANC's #33, #48, #65, ...

........................................................................
.............................. CYCLE    2 ..............................
........................................................................

 iter      E             dE          RMSdq      gap      omega  full diag
   1   -131.8917967 -0.131892E+03  0.138E-01    0.33       0.0  T
   2   -131.8903936  0.140312E-02  0.136E-01    0.31       1.0  T
   3   -131.8888502  0.154344E-02  0.166E-01    0.35       1.0  T
   4   -131.8919177 -0.306751E-02  0.397E-02    0.34       1.0  T
   5   -131.8920046 -0.869312E-04  0.765E-03    0.33       1.5  T
   6   -131.8920089 -0.430175E-05  0.456E-03    0.33       2.6  T
   7   -131.8920113 -0.238173E-05  0.208E-03    0.33       5.6  T
   8   -131.8920114 -0.135255E-06  0.764E-04    0.33      15.3  T
   9   -131.8920114 -0.359261E-07  0.236E-04    0.33      49.5  T
     SCC iter.                  ...        0 min,  0.135 sec
     gradient                   ...        0 min,  0.053 sec
 * total energy  :  -129.5479592 Eh     change       -0.7666661E-02 Eh
   gradient norm :     0.0223599 Eh/α   predicted    -0.6238841E-02 ( -18.62%)
   displ. norm   :     0.2632819 α      lambda       -0.3021377E-02
   maximum displ.:     0.2410320 α      in ANC's #33, #15, #48, ...

........................................................................
.............................. CYCLE    3 ..............................
........................................................................

 iter      E             dE          RMSdq      gap      omega  full diag
   1   -131.9496808 -0.131950E+03  0.934E-02    0.34       0.0  T
   2   -131.9487234  0.957366E-03  0.107E-01    0.32       1.0  T
   3   -131.9487822 -0.587405E-04  0.977E-02    0.34       1.0  T
   4   -131.9497767 -0.994540E-03  0.294E-02    0.34       1.0  T
   5   -131.9498214 -0.447195E-04  0.825E-03    0.33       1.4  T
   6   -131.9498295 -0.806497E-05  0.319E-03    0.33       3.7  T
   7   -131.9498308 -0.126896E-05  0.112E-03    0.33      10.5  T
   8   -131.9498308 -0.213173E-07  0.504E-04    0.33      23.2  T
   9   -131.9498308 -0.131365E-07  0.131E-04    0.33      89.6  T
     SCC iter.                  ...        0 min,  0.132 sec
     gradient                   ...        0 min,  0.048 sec
 * total energy  :  -129.5495814 Eh     change       -0.1622175E-02 Eh
   gradient norm :     0.0052378 Eh/α   predicted    -0.1615659E-02 (  -0.40%)
   displ. norm   :     0.0328807 α      lambda       -0.6224574E-04
   maximum displ.:     0.0239725 α      in ANC's #33, #15, #20, ...

........................................................................
.............................. CYCLE    4 ..............................
........................................................................

 iter      E             dE          RMSdq      gap      omega  full diag
   1   -131.9526496 -0.131953E+03  0.131E-02    0.33       0.0  T
   2   -131.9526314  0.181930E-04  0.151E-02    0.33       1.0  T
   3   -131.9526354 -0.396064E-05  0.127E-02    0.33       1.0  T
   4   -131.9526507 -0.152852E-04  0.526E-03    0.33       2.2  T
   5   -131.9526527 -0.199933E-05  0.184E-03    0.33       6.4  T
   6   -131.9526531 -0.399145E-06  0.396E-04    0.33      29.6  T
   7   -131.9526531 -0.989030E-08  0.139E-04    0.33      84.5  T
     SCC iter.                  ...        0 min,  0.104 sec
     gradient                   ...        0 min,  0.041 sec
 * total energy  :  -129.5496225 Eh     change       -0.4116910E-04 Eh
   gradient norm :     0.0025924 Eh/α   predicted    -0.3134238E-04 ( -23.87%)
   displ. norm   :     0.0172043 α      lambda       -0.1792433E-04
   maximum displ.:     0.0066925 α      in ANC's #73, #20, #33, ...

........................................................................
.............................. CYCLE    5 ..............................
........................................................................

 iter      E             dE          RMSdq      gap      omega  full diag
   1   -131.9522663 -0.131952E+03  0.799E-03    0.33       0.0  T
   2   -131.9522639  0.242053E-05  0.665E-03    0.33       1.8  T
   3   -131.9522534  0.104516E-04  0.103E-02    0.33       1.1  T
   4   -131.9522661 -0.126165E-04  0.348E-03    0.33       3.4  T
   5   -131.9522670 -0.960777E-06  0.829E-04    0.33      14.1  T
   6   -131.9522671 -0.780886E-07  0.212E-04    0.33      55.1  T
     SCC iter.                  ...        0 min,  0.085 sec
     gradient                   ...        0 min,  0.050 sec
 * total energy  :  -129.5496336 Eh     change       -0.1103758E-04 Eh
   gradient norm :     0.0010865 Eh/α   predicted    -0.9020895E-05 ( -18.27%)
   displ. norm   :     0.0130891 α      lambda       -0.3075271E-05
   maximum displ.:     0.0052687 α      in ANC's #6, #73, #9, ...

........................................................................
.............................. CYCLE    6 ..............................
........................................................................

 iter      E             dE          RMSdq      gap      omega  full diag
   1   -131.9513999 -0.131951E+03  0.498E-03    0.33       0.0  T
   2   -131.9514000 -0.709836E-07  0.280E-03    0.33       4.2  T
   3   -131.9513999  0.677794E-07  0.205E-03    0.33       5.7  T
   4   -131.9514001 -0.140702E-06  0.533E-04    0.33      22.0  T
   5   -131.9514001 -0.516346E-08  0.434E-04    0.33      26.9  T
     SCC iter.                  ...        0 min,  0.075 sec
     gradient                   ...        0 min,  0.044 sec
 * total energy  :  -129.5496361 Eh     change       -0.2540520E-05 Eh
   gradient norm :     0.0005709 Eh/α   predicted    -0.1677334E-05 ( -33.98%)
   displ. norm   :     0.0071060 α      lambda       -0.6934674E-06
   maximum displ.:     0.0036366 α      in ANC's #6, #9, #4, ...

   *** GEOMETRY OPTIMIZATION CONVERGED AFTER 6 ITERATIONS ***

------------------------------------------------------------------------
 total energy gain   :        -0.0093436 Eh       -5.8632 kcal/mol
 total RMSD          :         0.0776526 a0        0.0411 Å
 total power (kW/mol):        -4.0885961 (step)  -24.0270 (real)
------------------------------------------------------------------------

 ANCopt (total)                0 d,  0 h,  0 min,  1.021 sec
 optimizer setup                ...        0 min,  0.001 sec (  0.098%)
 model hessian                  ...        0 min,  0.045 sec (  4.407%)
 ANC generation                 ...        0 min,  0.008 sec (  0.784%)
 coordinate transformation      ...        0 min,  0.000 sec (  0.000%)
 single point calculation       ...        0 min,  0.958 sec ( 93.830%)
 optimization log               ...        0 min,  0.005 sec (  0.490%)
 hessian update                 ...        0 min,  0.003 sec (  0.294%)
 rational function              ...        0 min,  0.000 sec (  0.000%)

================
 final structure:
================
73
 xtb: 6.7.1pre (5071a88)
C            5.73220014594488       -3.52920796235334       -0.01592791672289
C            0.80301700799001       -4.85693083981552        0.04545865581424
C            5.04753188456951       -4.68486128266588       -0.01629621440535
C            2.92199045546517       -3.56547994933052        0.00209060237386
C            5.03263843396454       -2.27043510863414       -0.00992405997886
C           -4.84168253996852       -4.91250359140463       -0.02675811196918
C           -0.54543204328998       -4.86073150719142        0.04531842806599
C           -0.77508229648220        4.88923390181804        0.00549403622266
C           -2.72535364884423       -3.72647458269993       -0.00154150228346
N            5.61052344018182        1.30840211414705       -0.00810529446414
C           -4.86987165662269       -2.51915527697660       -0.01238995098561
C            3.49796071715833        2.51824794820416       -0.00173910004409
C            1.35827415034915        3.73148144509443        0.00249835222105
C            1.51443416320454       -3.61767625988116        0.01613321903792
C           -2.75552537654435       -1.28702913996195        0.00180801378134
C            5.63459644550371        3.67644035462776       -0.00644576423230
C           -4.89857738087000       -0.10356992162994       -0.00493533779794
C            3.56517873415571        4.92138458367931       -0.00154052122930
C            3.59948840780997       -2.33721677583846       -0.00274030345962
C           -5.00008746839957        2.31130616841840       -0.00087529481410
C            1.43233714996927       -1.18297404069897        0.00458793336313
C           -0.69184137670433       -0.01211495468460        0.00492701025298
C           -2.82600003015546        1.17670310143119        0.00275973950034
C            5.67282020570225       -1.06031120657782       -0.01117038290057
C           -2.90722487619477        3.60933781461328        0.00392236280590
C            3.52259978922156        0.09362283569762       -0.00184355492067
C           -5.03166986887260        4.72166776241047        0.00198185005385
C            1.38277675621795        1.27397708078533        0.00233648659074
C           -0.75214835336599        2.45976877991816        0.00403652309101
C           -3.47222017871281       -4.93104154452422       -0.01711465829015
C            4.94849532617174        0.15944080543732       -0.00677016298889
C            2.79522594349359        1.29788505767479       -0.00007514407459
C            0.66573664188033        2.50241838798663        0.00302063043423
C           -1.49757321984583        3.67083968512105        0.00465141780427
C           -1.31408102487769       -3.66945189596222        0.01545534196629
C           -3.45737773895522       -2.51118311707881       -0.00408663832539
C            4.92307355724697        2.46302787516690       -0.00526870693800
C            2.80417721436699        3.75561986935784       -0.00010844775181
C            0.58841636462081        4.91070429906397        0.00439784347030
C            0.75223813699307       -2.41837102024614        0.01016683305044
C           -1.34886099652850       -1.26160314149219        0.00581767481505
C           -3.49457883405513       -0.07279792487083        0.00028147966411
C            4.95545276168257        4.86993469184490       -0.00452781832838
C           -5.63615544798502        1.08287286400665       -0.00487228984176
C            2.84829060517916       -1.14699374786989        0.00084756886240
C           -5.71267237895132        3.55533822269702       -0.00051308310749
C            0.71516532254668        0.04099677432925        0.00394073950256
C           -1.42395297049697        1.21120313332922        0.00399160800113
C           -3.57793351220675        2.37466935248555        0.00217391928163
H            6.80933301722915       -3.52764276255127       -0.02144127235978
H           -1.30067657032984        5.83457784157458        0.00689018550904
H            6.71228296348745        3.63748140506172       -0.00897206857184
H            3.09134124138204        5.89045734121571       -0.00046053934205
H            6.75003587469667       -1.00611616601684       -0.01604178437060
H           -5.53016559610768        5.67967051803817        0.00236044411439
H            1.08505611815335        5.86798423827000        0.00491971478711
H            5.50952951014357        5.79904806718510       -0.00550567712233
H            1.32970957903624       -5.79750526292316        0.07552118075944
H            5.52956618836537       -5.65074305036538       -0.02284665153362
H           -5.38363166087188       -5.84667421116602       -0.03872135101183
H           -1.06872018374939       -5.79921207815083        0.07251795667613
H           -2.97576981910025       -5.88582841253967       -0.02521751396307
H           -6.71568110554259        1.03716305273516       -0.00829381621121
H           -6.78978683969782        3.54852377747056       -0.00230962593895
N            3.67878541799924       -4.71411486868972       -0.00676555663158
N           -3.67838296097509        4.75777263163745        0.00397104089634
N           -0.63352599115471       -2.45050912365189        0.01048743855425
N           -5.52986132490497       -1.31676097682388       -0.01081296769258
C           -5.56096080750294       -3.71830524747573       -0.02229453522556
H           -3.20280339730236        5.64604023369022        0.00524668112888
H           -6.53975227263498       -1.33173887099677       -0.01649212573536
H            3.21439199694972       -5.60657863921206       -0.01798492412977
H           -6.64018092022866       -3.72366955327258       -0.02849724275835
 
 Bond Distances (Angstroems)
 ---------------------------
C1-C3=1.3432         C1-C5=1.4401         C1-H50=1.0771        C2-C7=1.3485         C2-C14=1.4292        C2-H58=1.0784        
C3-C1=1.3432         C3-H59=1.0795        C3-N65=1.3691        C4-C14=1.4086        C4-C19=1.4027        C4-N65=1.3756        
C5-C1=1.4401         C5-C19=1.4347        C5-C24=1.3690        C6-C30=1.3696        C6-H60=1.0801        C6-C69=1.3941        
C7-C2=1.3485         C7-C35=1.4180        C7-H61=1.0749        C8-C34=1.4165        C8-C39=1.3637        C8-H51=1.0816        
C9-C30=1.4174        C9-C35=1.4125        C9-C36=1.4187        N10-C31=1.3260       N10-C37=1.3438       C11-C36=1.4125       
C11-N68=1.3716       C11-C69=1.3841       C12-C32=1.4082       C12-C37=1.4262       C12-C38=1.4186       C13-C33=1.4107       
C13-C38=1.4461       C13-C39=1.4083       C14-C2=1.4292        C14-C4=1.4086        C14-C40=1.4210       C15-C36=1.4111       
C15-C41=1.4069       C15-C42=1.4215       C16-C37=1.4066       C16-C43=1.3732       C16-H52=1.0784       C17-C42=1.4043       
C17-C44=1.3970       C17-N68=1.3676       C18-C38=1.3922       C18-C43=1.3912       C18-H53=1.0787       C19-C4=1.4027        
C19-C5=1.4347        C19-C45=1.4075       C20-C44=1.3833       C20-C46=1.4337       C20-C49=1.4236       C21-C40=1.4102       
C21-C45=1.4164       C21-C47=1.4186       C22-C41=1.4117       C22-C47=1.4080       C22-C48=1.4257       C23-C42=1.4171       
C23-C48=1.4025       C23-C49=1.4144       C24-C5=1.3690        C24-C31=1.4186       C24-H54=1.0786       C25-C34=1.4110       
C25-C49=1.4051       C25-N66=1.3833       C26-C31=1.4274       C26-C32=1.4069       C26-C45=1.4120       C27-C46=1.3506       
C27-H55=1.0799       C27-N66=1.3538       C28-C32=1.4127       C28-C33=1.4224       C28-C47=1.4021       C29-C33=1.4185       
C29-C34=1.4221       C29-C48=1.4178       C30-C6=1.3696        C30-C9=1.4174        C30-H62=1.0762       C31-N10=1.3260       
C31-C24=1.4186       C31-C26=1.4274       C32-C12=1.4082       C32-C26=1.4069       C32-C28=1.4127       C33-C13=1.4107       
C33-C28=1.4224       C33-C29=1.4185       C34-C8=1.4165        C34-C25=1.4110       C34-C29=1.4221       C35-C7=1.4180        
C35-C9=1.4125        C35-N67=1.3961       C36-C9=1.4187        C36-C11=1.4125       C36-C15=1.4111       C37-N10=1.3438       
C37-C12=1.4262       C37-C16=1.4066       C38-C12=1.4186       C38-C13=1.4461       C38-C18=1.3922       C39-C8=1.3637        
C39-C13=1.4083       C39-H56=1.0784       C40-C14=1.4210       C40-C21=1.4102       C40-N67=1.3861       C41-C15=1.4069       
C41-C22=1.4117       C41-N67=1.3875       C42-C15=1.4215       C42-C17=1.4043       C42-C23=1.4171       C43-C16=1.3732       
C43-C18=1.3912       C43-H57=1.0818       C44-C17=1.3970       C44-C20=1.3833       C44-H63=1.0805       C45-C19=1.4075       
C45-C21=1.4164       C45-C26=1.4120       C46-C20=1.4337       C46-C27=1.3506       C46-H64=1.0771       C47-C21=1.4186       
C47-C22=1.4080       C47-C28=1.4021       C48-C22=1.4257       C48-C23=1.4025       C48-C29=1.4178       C49-C20=1.4236       
C49-C23=1.4144       C49-C25=1.4051       H50-C1=1.0771        H51-C8=1.0816        H52-C16=1.0784       H53-C18=1.0787       
H54-C24=1.0786       H55-C27=1.0799       H56-C39=1.0784       H57-C43=1.0818       H58-C2=1.0784        H59-C3=1.0795        
H60-C6=1.0801        H61-C7=1.0749        H62-C30=1.0762       H63-C44=1.0805       H64-C46=1.0771       N65-C3=1.3691        
N65-C4=1.3756        N65-H72=1.0061       N66-C25=1.3833       N66-C27=1.3538       N66-H70=1.0076       N67-C35=1.3961       
N67-C40=1.3861       N67-C41=1.3875       N68-C11=1.3716       N68-C17=1.3676       N68-H71=1.0100       C69-C6=1.3941        
C69-C11=1.3841       C69-H73=1.0793       H70-N66=1.0076       H71-N68=1.0100       H72-N65=1.0061       H73-C69=1.0793       
 C  H  Rav=1.0788 sigma=0.0018  Rmin=1.0749  Rmax=1.0818    16
 C  C  Rav=1.4071 sigma=0.0212  Rmin=1.3432  Rmax=1.4461    60
 N  H  Rav=1.0079 sigma=0.0016  Rmin=1.0061  Rmax=1.0100     3
 N  C  Rav=1.3691 sigma=0.0199  Rmin=1.3260  Rmax=1.3961    11
 
 selected bond angles (degree)
 --------------------
C5-C1-C3=120.29                H50-C1-C3=120.73               H50-C1-C5=118.98               C14-C2-C7=120.01               
H58-C2-C7=119.07               H58-C2-C14=120.91              H59-C3-C1=122.83               N65-C3-C1=121.87               
N65-C3-H59=115.30              C19-C4-C14=121.00              N65-C4-C14=121.26              N65-C4-C19=117.74              
C19-C5-C1=116.40               C24-C5-C1=123.06               C24-C5-C19=120.55              H60-C6-C30=119.35              
C69-C6-C30=121.83              C69-C6-H60=118.82              C35-C7-C2=122.66               H61-C7-C2=119.29               
H61-C7-C35=118.04              C39-C8-C34=121.57              H51-C8-C34=120.26              H51-C8-C39=118.17              
C35-C9-C30=124.12              C36-C9-C30=117.13              C36-C9-C35=118.75              C37-N10-C31=119.28             
 
 selected dihedral angles (degree)
 ---------------------------------
H59-C3-C1-C5=179.86           H59-C3-C1-H50=359.95          N65-C3-C1-C5=359.79           N65-C3-C1-H50=179.87          
C19-C5-C1-C3=  0.08           C19-C5-C1-H50=180.00          C24-C5-C1-C3=180.10           C24-C5-C1-H50=  0.00          
C35-C7-C2-C14=  0.07          C35-C7-C2-H58=179.61          H61-C7-C2-C14=180.30          H61-C7-C2-H58=359.84          
           -------------------------------------------------
          |                Final Singlepoint                |
           -------------------------------------------------

          ...................................................
          :                      SETUP                      :
          :.................................................:
          :  # basis functions                 235          :
          :  # atomic orbitals                 235          :
          :  # shells                          127          :
          :  # electrons                       240          :
          :  max. iterations                   250          :
          :  Hamiltonian                  GFN2-xTB          :
          :  restarted?                      false          :
          :  GBSA solvation                  false          :
          :  PC potential                    false          :
          :  electronic temp.          300.0000000     K    :
          :  accuracy                    1.0000000          :
          :  -> integral cutoff          0.2500000E+02      :
          :  -> integral neglect         0.1000000E-07      :
          :  -> SCF convergence          0.1000000E-05 Eh   :
          :  -> wf. convergence          0.1000000E-03 e    :
          :  Broyden damping             0.4000000          :
          :  net charge                          0          :
          :  unpaired electrons                  0          :
          ...................................................

 iter      E             dE          RMSdq      gap      omega  full diag
   1   -131.9514001 -0.131951E+03  0.181E-04    0.33       0.0  T
   2   -131.9514001  0.416865E-07  0.573E-04    0.33      20.4  T
   3   -131.9514001 -0.451267E-07  0.699E-05    0.33     167.5  T

   *** convergence criteria satisfied after 3 iterations ***

         #    Occupation            Energy/Eh            Energy/eV
      -------------------------------------------------------------
         1        2.0000           -0.6885377             -18.7361
       ...           ...                  ...                  ...
       114        2.0000           -0.3792853             -10.3209
       115        2.0000           -0.3712912             -10.1033
       116        2.0000           -0.3591393              -9.7727
       117        2.0000           -0.3560571              -9.6888
       118        2.0000           -0.3256340              -8.8610
       119        2.0000           -0.3225914              -8.7782
       120        1.9967           -0.2978347              -8.1045 (HOMO)
       121        0.0033           -0.2856764              -7.7736 (LUMO)
       122                         -0.2628923              -7.1537
       123                         -0.2579332              -7.0187
       124                         -0.2488521              -6.7716
       125                         -0.2382580              -6.4833
       ...                                ...                  ...
       235                          0.7823661              21.2893
      -------------------------------------------------------------
                  HL-Gap            0.0121583 Eh            0.3308 eV
             Fermi-level           -0.2917555 Eh           -7.9391 eV

 SCC (total)                   0 d,  0 h,  0 min,  0.110 sec
 SCC setup                      ...        0 min,  0.001 sec (  0.909%)
 Dispersion                     ...        0 min,  0.001 sec (  0.909%)
 classical contributions        ...        0 min,  0.000 sec (  0.000%)
 integral evaluation            ...        0 min,  0.014 sec ( 12.727%)
 iterations                     ...        0 min,  0.040 sec ( 36.364%)
 molecular gradient             ...        0 min,  0.052 sec ( 47.272%)
 printout                       ...        0 min,  0.002 sec (  1.818%)

         :::::::::::::::::::::::::::::::::::::::::::::::::::::
         ::                     SUMMARY                     ::
         :::::::::::::::::::::::::::::::::::::::::::::::::::::
         :: total energy            -129.549636123863 Eh    ::
         :: gradient norm              0.000569234913 Eh/a0 ::
         :: HOMO-LUMO gap              0.330844474289 eV    ::
         ::.................................................::
         :: SCC energy              -131.953527566310 Eh    ::
         :: -> isotropic ES            0.031745478562 Eh    ::
         :: -> anisotropic ES          0.016698429228 Eh    ::
         :: -> anisotropic XC          0.051628255590 Eh    ::
         :: -> dispersion             -0.136339009672 Eh    ::
         :: repulsion energy           2.403891442448 Eh    ::
         :: add. restraining           0.000000000000 Eh    ::
         :: total charge              -0.000000000000 e     ::
         :::::::::::::::::::::::::::::::::::::::::::::::::::::

           -------------------------------------------------
          |                Property Printout                |
           -------------------------------------------------

    * Orbital Energies and Occupations

         #    Occupation            Energy/Eh            Energy/eV
      -------------------------------------------------------------
         1        2.0000           -0.6885377             -18.7361
       ...           ...                  ...                  ...
       108        2.0000           -0.4045851             -11.0093
       109        2.0000           -0.4020920             -10.9415
       110        2.0000           -0.3938730             -10.7178
       111        2.0000           -0.3933740             -10.7043
       112        2.0000           -0.3831894             -10.4271
       113        2.0000           -0.3803617             -10.3502
       114        2.0000           -0.3792853             -10.3209
       115        2.0000           -0.3712912             -10.1033
       116        2.0000           -0.3591393              -9.7727
       117        2.0000           -0.3560571              -9.6888
       118        2.0000           -0.3256340              -8.8610
       119        2.0000           -0.3225914              -8.7782
       120        1.9967           -0.2978347              -8.1045 (HOMO)
       121        0.0033           -0.2856764              -7.7736 (LUMO)
       122                         -0.2628923              -7.1537
       123                         -0.2579332              -7.0187
       124                         -0.2488521              -6.7716
       125                         -0.2382580              -6.4833
       126                         -0.2345721              -6.3830
       127                         -0.2287335              -6.2242
       128                         -0.2255686              -6.1380
       129                         -0.2091665              -5.6917
       130                         -0.2054851              -5.5915
       131                         -0.1927001              -5.2436
       ...                                ...                  ...
       235                          0.7823661              21.2893
      -------------------------------------------------------------
                  HL-Gap            0.0121583 Eh            0.3308 eV
             Fermi-level           -0.2917555 Eh           -7.9391 eV

     #   Z          covCN         q      C6AA      α(0)
     1   6 C        2.911    -0.059    29.475     8.902
     2   6 C        2.912    -0.043    29.076     8.842
     3   6 C        2.846     0.018    27.602     8.610
     4   6 C        2.917     0.053    26.810     8.491
     5   6 C        2.977     0.011    27.756     8.642
     6   6 C        2.916    -0.028    28.692     8.784
     7   6 C        2.914    -0.049    29.227     8.865
     8   6 C        2.913    -0.054    29.346     8.883
     9   6 C        2.978    -0.007    28.198     8.711
    10   7 N        1.848    -0.290    28.377     7.895
    11   6 C        2.917     0.065    26.537     8.447
    12   6 C        2.997    -0.015    28.383     8.739
    13   6 C        2.976    -0.009    28.233     8.716
    14   6 C        2.981    -0.038    28.936     8.824
    15   6 C        2.990    -0.001    28.039     8.686
    16   6 C        2.921    -0.056    29.380     8.889
    17   6 C        2.916     0.065    26.544     8.449
    18   6 C        2.919    -0.054    29.331     8.881
    19   6 C        2.995    -0.015    28.369     8.737
    20   6 C        2.982     0.022    27.518     8.605
    21   6 C        2.990    -0.017    28.431     8.747
    22   6 C        2.991    -0.024    28.596     8.772
    23   6 C        2.994    -0.010    28.251     8.719
    24   6 C        2.922    -0.067    29.680     8.934
    25   6 C        2.918     0.043    27.044     8.528
    26   6 C        2.994    -0.023    28.573     8.768
    27   6 C        2.848     0.028    27.378     8.575
    28   6 C        2.991    -0.018    28.451     8.750
    29   6 C        2.992     0.002    27.975     8.676
    30   6 C        2.917    -0.060    29.499     8.906
    31   6 C        2.949     0.093    25.924     8.351
    32   6 C        2.998     0.010    27.787     8.647
    33   6 C        2.990     0.002    27.976     8.676
    34   6 C        2.977    -0.019    28.484     8.755
    35   6 C        2.923     0.029    27.349     8.576
    36   6 C        2.999    -0.008    28.201     8.711
    37   6 C        2.954     0.090    26.001     8.364
    38   6 C        2.974     0.000    28.019     8.683
    39   6 C        2.917    -0.035    28.882     8.813
    40   6 C        2.933     0.052    26.829     8.495
    41   6 C        2.933     0.043    27.040     8.528
    42   6 C        2.994    -0.019    28.461     8.751
    43   6 C        2.914    -0.032    28.793     8.799
    44   6 C        2.920    -0.086    30.163     9.006
    45   6 C        2.993    -0.003    28.092     8.694
    46   6 C        2.912    -0.067    29.660     8.930
    47   6 C        2.994     0.001    28.006     8.681
    48   6 C        2.989    -0.008    28.209     8.712
    49   6 C        2.994    -0.008    28.218     8.714
    50   1 H        0.926     0.041     2.437     2.441
    51   1 H        0.925     0.005     2.974     2.697
    52   1 H        0.926     0.035     2.512     2.479
    53   1 H        0.926     0.016     2.792     2.613
    54   1 H        0.926     0.041     2.437     2.441
    55   1 H        0.926     0.041     2.440     2.443
    56   1 H        0.926     0.028     2.615     2.529
    57   1 H        0.925     0.019     2.755     2.596
    58   1 H        0.926     0.021     2.721     2.579
    59   1 H        0.926     0.034     2.525     2.485
    60   1 H        0.926     0.029     2.600     2.522
    61   1 H        0.926     0.042     2.418     2.431
    62   1 H        0.926     0.026     2.643     2.542
    63   1 H        0.926     0.022     2.705     2.572
    64   1 H        0.926     0.038     2.478     2.462
    65   7 N        2.702    -0.105    23.294     7.168
    66   7 N        2.702    -0.093    23.055     7.131
    67   7 N        2.751     0.025    20.812     6.776
    68   7 N        2.706    -0.116    23.527     7.204
    69   6 C        2.918    -0.080    30.009     8.983
    70   1 H        0.860     0.176     1.240     1.744
    71   1 H        0.860     0.168     1.283     1.774
    72   1 H        0.860     0.166     1.296     1.783
    73   1 H        0.926     0.019     2.754     2.595

 Mol. C6AA /au·bohr⁶  :      98464.766667
 Mol. C8AA /au·bohr⁸  :    2609811.630429
 Mol. α(0) /au        :        508.849795


Wiberg/Mayer (AO) data.
largest (>0.10) Wiberg bond orders for each atom

 ---------------------------------------------------------------------------
     #   Z sym  total        # sym  WBO       # sym  WBO       # sym  WBO
 ---------------------------------------------------------------------------
     1   6 C    3.962 --     3 C    1.682     5 C    1.143    50 H    0.967
     2   6 C    3.908 --     7 C    1.623    14 C    1.176    58 H    0.959
     3   6 C    3.948 --     1 C    1.682    65 N    1.171    59 H    0.966
     4   6 C    3.913 --    19 C    1.290    14 C    1.277    65 N    1.145
     5   6 C    3.971 --    24 C    1.508    19 C    1.170     1 C    1.143
     6   6 C    3.972 --    30 C    1.524    69 C    1.358    60 H    0.971
     7   6 C    3.967 --     2 C    1.623    35 C    1.224    61 H    0.958
     8   6 C    3.933 --    39 C    1.557    34 C    1.249    51 H    0.959
     9   6 C    3.954 --    35 C    1.269    30 C    1.260    36 C    1.226
    10   7 N    2.971 --    31 C    1.389    37 C    1.304
    11   6 C    3.956 --    69 C    1.385    36 C    1.247    68 N    1.145
    12   6 C    3.968 --    32 C    1.264    38 C    1.246    37 C    1.215
    13   6 C    3.927 --    33 C    1.298    39 C    1.287    38 C    1.147
    14   6 C    3.937 --     4 C    1.277    40 C    1.253     2 C    1.176
    15   6 C    3.968 --    41 C    1.282    36 C    1.243    42 C    1.215
    16   6 C    3.932 --    43 C    1.497    37 C    1.281    52 H    0.969
    17   6 C    3.931 --    44 C    1.318    42 C    1.276    68 N    1.159
    18   6 C    3.923 --    38 C    1.390    43 C    1.390    53 H    0.964
    19   6 C    3.956 --     4 C    1.290    45 C    1.259     5 C    1.170
    20   6 C    3.957 --    44 C    1.411    49 C    1.219    46 C    1.170
    21   6 C    3.977 --    40 C    1.280    45 C    1.241    47 C    1.212
    22   6 C    3.951 --    41 C    1.264    47 C    1.238    48 C    1.203
    23   6 C    3.970 --    48 C    1.287    49 C    1.236    42 C    1.219
    24   6 C    3.968 --     5 C    1.508    31 C    1.224    54 H    0.967
    25   6 C    3.870 --    49 C    1.286    34 C    1.261    66 N    1.118
    26   6 C    3.961 --    32 C    1.267    45 C    1.248    31 C    1.192
    27   6 C    3.955 --    46 C    1.626    66 N    1.230    55 H    0.965
    28   6 C    3.967 --    47 C    1.291    32 C    1.226    33 C    1.205
    29   6 C    3.968 --    33 C    1.253    48 C    1.250    34 C    1.242
    30   6 C    3.946 --     6 C    1.524     9 C    1.260    62 H    0.962
    31   6 C    3.970 --    10 N    1.389    24 C    1.224    26 C    1.192
    32   6 C    3.977 --    26 C    1.267    12 C    1.264    28 C    1.226
    33   6 C    3.982 --    13 C    1.298    29 C    1.253    28 C    1.205
    34   6 C    3.964 --    25 C    1.261     8 C    1.249    29 C    1.242
    35   6 C    3.865 --     9 C    1.269     7 C    1.224    67 N    1.118
    36   6 C    3.944 --    11 C    1.247    15 C    1.243     9 C    1.226
    37   6 C    3.974 --    10 N    1.304    16 C    1.281    12 C    1.215
    38   6 C    3.979 --    18 C    1.390    12 C    1.246    13 C    1.147
    39   6 C    3.974 --     8 C    1.557    13 C    1.287    56 H    0.963
    40   6 C    3.940 --    21 C    1.280    14 C    1.253    67 N    1.156
    41   6 C    3.942 --    15 C    1.282    22 C    1.264    67 N    1.138
    42   6 C    3.971 --    17 C    1.276    23 C    1.219    15 C    1.215
    43   6 C    3.980 --    16 C    1.497    18 C    1.390    57 H    0.971
    44   6 C    3.958 --    20 C    1.411    17 C    1.318    63 H    0.966
    45   6 C    3.974 --    19 C    1.259    26 C    1.248    21 C    1.241
    46   6 C    3.942 --    27 C    1.626    20 C    1.170    64 H    0.968
    47   6 C    3.966 --    28 C    1.291    22 C    1.238    21 C    1.212
    48   6 C    3.979 --    23 C    1.287    29 C    1.250    22 C    1.203
    49   6 C    3.977 --    25 C    1.286    23 C    1.236    20 C    1.219
    50   1 H    0.997 --     1 C    0.967
    51   1 H    0.999 --     8 C    0.959
    52   1 H    0.998 --    16 C    0.969
    53   1 H    0.999 --    18 C    0.964
    54   1 H    0.997 --    24 C    0.967
    55   1 H    0.997 --    27 C    0.965
    56   1 H    0.998 --    39 C    0.963
    57   1 H    0.999 --    43 C    0.971
    58   1 H    0.999 --     2 C    0.959
    59   1 H    0.998 --     3 C    0.966
    60   1 H    0.998 --     6 C    0.971
    61   1 H    0.997 --     7 C    0.958
    62   1 H    0.999 --    30 C    0.962
    63   1 H    0.998 --    44 C    0.966
    64   1 H    0.998 --    46 C    0.968
    65   7 N    3.493 --     3 C    1.171     4 C    1.145    72 H    0.933
    66   7 N    3.508 --    27 C    1.230    25 C    1.118    70 H    0.929
    67   7 N    3.632 --    40 C    1.156    41 C    1.138    35 C    1.118
    68   7 N    3.503 --    17 C    1.159    11 C    1.145    71 H    0.937
    69   6 C    3.912 --    11 C    1.385     6 C    1.358    73 H    0.969
    70   1 H    0.969 --    66 N    0.929
    71   1 H    0.971 --    68 N    0.937
    72   1 H    0.972 --    65 N    0.933
    73   1 H    0.999 --    69 C    0.969
 ---------------------------------------------------------------------------

Topologies differ in total number of bonds
Writing topology from bond orders to xtbtopo.mol

molecular dipole:
                 x           y           z       tot (Debye)
 q only:       -3.121      -1.296      -0.003
   full:       -3.885      -1.425      -0.002      10.517
molecular quadrupole (traceless):
                xx          xy          yy          xz          yz          zz
 q only:       -8.228     -41.351      23.842      -0.003       0.092     -15.614
  q+dip:       -6.863     -45.245      45.710       0.045       0.084     -38.847
   full:      -16.071     -46.183      37.065       0.043       0.101     -20.995

           -------------------------------------------------
          |                Geometry Summary                 |
           -------------------------------------------------

      molecular mass/u    :      677.7104494
   center of mass at/Å    :        0.0077932       0.0017990       0.0000256
  moments of inertia/u·Å² :        0.6929167E+04   0.9198804E+04   0.1612775E+05
rotational constants/cm⁻¹ :        0.2432851E-02   0.1832590E-02   0.1045257E-02

 * 88 selected distances

     #   Z          #   Z                                           value/Å
     1   6 C        3   6 C                                       1.3432445
     2   6 C        7   6 C                                       1.3484545
     2   6 C       14   6 C                                       1.4292399
     4   6 C       14   6 C                                       1.4085939
     4   6 C       19   6 C                                       1.4027322
     5   6 C       19   6 C                                       1.4347232 (max)
     5   6 C       24   6 C                                       1.3690268
     6   6 C       30   6 C                                       1.3696219
     9   6 C       30   6 C                                       1.4174040
    10   7 N       31   6 C                                       1.3260450
    24   6 C       31   6 C                                       1.4186124
    26   6 C       31   6 C                                       1.4274224
    12   6 C       32   6 C                                       1.4082347
    26   6 C       32   6 C                                       1.4068844
    28   6 C       32   6 C                                       1.4126537
    13   6 C       33   6 C                                       1.4107462
    28   6 C       33   6 C                                       1.4223978
    29   6 C       33   6 C                                       1.4185268
     8   6 C       34   6 C                                       1.4165023
    25   6 C       34   6 C                                       1.4109930
    29   6 C       34   6 C                                       1.4220941
     7   6 C       35   6 C                                       1.4180481
     9   6 C       35   6 C                                       1.4125266
     9   6 C       36   6 C                                       1.4187316
    11   6 C       36   6 C                                       1.4125410
    15   6 C       36   6 C                                       1.4110935
    10   7 N       37   6 C                                       1.3437843
    12   6 C       37   6 C                                       1.4261868
    16   6 C       37   6 C                                       1.4066401
    12   6 C       38   6 C                                       1.4186007
    18   6 C       38   6 C                                       1.3921685
     8   6 C       39   6 C                                       1.3636683
    13   6 C       39   6 C                                       1.4082796
    14   6 C       40   6 C                                       1.4210249
    21   6 C       40   6 C                                       1.4102382
    15   6 C       41   6 C                                       1.4069000
    22   6 C       41   6 C                                       1.4116999
    15   6 C       42   6 C                                       1.4214641
    17   6 C       42   6 C                                       1.4043455
    23   6 C       42   6 C                                       1.4171298
    16   6 C       43   6 C                                       1.3731966
    18   6 C       43   6 C                                       1.3912290
    17   6 C       44   6 C                                       1.3970212
    20   6 C       44   6 C                                       1.3833464
    19   6 C       45   6 C                                       1.4074595
    21   6 C       45   6 C                                       1.4164156
    26   6 C       45   6 C                                       1.4120305
    20   6 C       46   6 C                                       1.4336644
    27   6 C       46   6 C                                       1.3505908
    21   6 C       47   6 C                                       1.4186052
    22   6 C       47   6 C                                       1.4080092
    28   6 C       47   6 C                                       1.4021228
    22   6 C       48   6 C                                       1.4256563
    23   6 C       48   6 C                                       1.4024721
    29   6 C       48   6 C                                       1.4178286
    20   6 C       49   6 C                                       1.4235682
    23   6 C       49   6 C                                       1.4144002
    25   6 C       49   6 C                                       1.4050835
     1   6 C       50   1 H                                       1.0771482
     8   6 C       51   1 H                                       1.0816315
    16   6 C       52   1 H                                       1.0783935
    18   6 C       53   1 H                                       1.0787147
    24   6 C       54   1 H                                       1.0785892
    27   6 C       55   1 H                                       1.0799387
    39   6 C       56   1 H                                       1.0784417
    43   6 C       57   1 H                                       1.0817827
     2   6 C       58   1 H                                       1.0784198
     3   6 C       59   1 H                                       1.0795035
     6   6 C       60   1 H                                       1.0800588
     7   6 C       61   1 H                                       1.0748564
    30   6 C       62   1 H                                       1.0761723
    44   6 C       63   1 H                                       1.0804985
    46   6 C       64   1 H                                       1.0771376
     3   6 C       65   7 N                                       1.3690923
     4   6 C       65   7 N                                       1.3755652
    25   6 C       66   7 N                                       1.3833249
    27   6 C       66   7 N                                       1.3537700
    35   6 C       67   7 N                                       1.3960665
    40   6 C       67   7 N                                       1.3861369
    41   6 C       67   7 N                                       1.3875243
    11   6 C       68   7 N                                       1.3716199
    17   6 C       68   7 N                                       1.3676209
     6   6 C       69   6 C                                       1.3940915
    11   6 C       69   6 C                                       1.3840749
    66   7 N       70   1 H                                       1.0075699
    68   7 N       71   1 H                                       1.0100181
    65   7 N       72   1 H                                       1.0061207 (min)
    69   6 C       73   1 H                                       1.0792514

 * 4 distinct bonds (by element types)

   Z      Z             #   av. dist./Å        max./Å        min./Å
   1 H    6 C          16     1.0787837     1.0817827     1.0748564
   6 C    6 C          58     1.4058666     1.4347232     1.3432445
   1 H    7 N           3     1.0079029     1.0100181     1.0061207
   6 C    7 N          11     1.3691409     1.3960665     1.3260450


optimized geometry written to: xtbopt.xyz


           -------------------------------------------------
          | TOTAL ENERGY             -129.549636123863 Eh   |
          | GRADIENT NORM               0.000569234913 Eh/α |
          | HOMO-LUMO GAP               0.330844474289 eV   |
           -------------------------------------------------

------------------------------------------------------------------------
 * finished run on 2025/12/08 at 00:34:47.978     
------------------------------------------------------------------------
 total:
 * wall-time:     0 d,  0 h,  0 min,  1.501 sec
 *  cpu-time:     0 d,  0 h,  0 min,  5.812 sec
 * ratio c/w:     3.872 speedup
 SCF:
 * wall-time:     0 d,  0 h,  0 min,  0.300 sec
 *  cpu-time:     0 d,  0 h,  0 min,  1.156 sec
 * ratio c/w:     3.854 speedup
 ANC optimizer:
 * wall-time:     0 d,  0 h,  0 min,  1.140 sec
 *  cpu-time:     0 d,  0 h,  0 min,  4.469 sec
 * ratio c/w:     3.920 speedup

normal termination of xtb
