73
 energy: -129.540292517041 gnorm: 0.051571505217 xtb: 6.7.1pre (5071a88)
C            5.76755900000000       -3.56481300000000       -0.01533600000000
C            0.80554700000000       -4.89756500000000        0.04895800000000
C            5.07461700000000       -4.72725700000000       -0.01694400000000
C            2.93505800000000       -3.59235700000000        0.00134100000000
C            5.06563700000000       -2.29919900000000       -0.00937300000000
C           -4.86987000000000       -4.94671300000000       -0.02699600000000
C           -0.54581200000000       -4.90311500000000        0.04714100000000
C           -0.78072400000000        4.93448000000000        0.00552100000000
C           -2.74343800000000       -3.75570100000000       -0.00311600000000
N            5.66875400000000        1.31908000000000       -0.00786600000000
C           -4.89943600000000       -2.54044600000000       -0.01263300000000
C            3.52633400000000        2.53864700000000       -0.00170300000000
C            1.36631500000000        3.75957900000000        0.00258200000000
C            1.52172300000000       -3.65134100000000        0.01708500000000
C           -2.77588000000000       -1.29756900000000        0.00144800000000
C            5.66980700000000        3.71433400000000       -0.00653700000000
C           -4.92455500000000       -0.09888000000000       -0.00505300000000
C            3.58218500000000        4.97120000000000       -0.00165800000000
C            3.62206200000000       -2.35856900000000       -0.00262700000000
C           -5.03587500000000        2.32962700000000       -0.00109700000000
C            1.44583100000000       -1.18657800000000        0.00477000000000
C           -0.68861100000000       -0.01102200000000        0.00494000000000
C           -2.84199800000000        1.18790000000000        0.00250300000000
C            5.70533500000000       -1.07461200000000       -0.01035900000000
C           -2.92454100000000        3.63719300000000        0.00385100000000
C            3.55345300000000        0.09639600000000       -0.00158900000000
C           -5.06947200000000        4.75208500000000        0.00188300000000
C            1.39850900000000        1.28424700000000        0.00245200000000
C           -0.75987700000000        2.47991800000000        0.00402800000000
C           -3.49093600000000       -4.97382900000000       -0.01839600000000
C            4.98557900000000        0.15797700000000       -0.00639600000000
C            2.81628600000000        1.30661100000000        0.00005600000000
C            0.67401500000000        2.52182600000000        0.00307200000000
C           -1.50696300000000        3.70283300000000        0.00463300000000
C           -1.32616500000000       -3.71069500000000        0.01492600000000
C           -3.47329700000000       -2.52950800000000       -0.00475700000000
C            4.96469700000000        2.48574900000000       -0.00526900000000
C            2.82291700000000        3.78614400000000       -0.00011800000000
C            0.58780200000000        4.95343200000000        0.00447600000000
C            0.77183700000000       -2.43893200000000        0.01037300000000
C           -1.36042700000000       -1.26177900000000        0.00581300000000
C           -3.51270700000000       -0.07086800000000        0.00000500000000
C            4.98077100000000        4.91885600000000       -0.00471800000000
C           -5.67276400000000        1.09059100000000       -0.00493900000000
C            2.87126500000000       -1.15673600000000        0.00102200000000
C           -5.75296700000000        3.57719200000000       -0.00075900000000
C            0.71967200000000        0.03888800000000        0.00410800000000
C           -1.43267700000000        1.22162200000000        0.00383300000000
C           -3.59906200000000        2.39426700000000        0.00200800000000
H            6.85171400000000       -3.58283700000000       -0.02041200000000
H           -1.30248600000000        5.88654800000000        0.00690800000000
H            6.75558600000000        3.68319200000000       -0.00916000000000
H            3.09729100000000        5.94075800000000       -0.00079600000000
H            6.79092800000000       -1.02618600000000       -0.01484500000000
H           -5.55852000000000        5.71881000000000        0.00226500000000
H            1.08571300000000        5.91656900000000        0.00513800000000
H            5.53996500000000        5.85220300000000       -0.00585800000000
H            1.32719700000000       -5.84634900000000        0.08738600000000
H            5.54889500000000       -5.70127900000000       -0.02519700000000
H           -5.41513500000000       -5.88657800000000       -0.03930200000000
H           -1.06878700000000       -5.84788400000000        0.07896100000000
H           -2.99108600000000       -5.93322900000000       -0.02945100000000
H           -6.75796300000000        1.04226100000000       -0.00837600000000
H           -6.83680600000000        3.58363000000000       -0.00269100000000
N            3.69857300000000       -4.75013400000000       -0.00656400000000
N           -3.70397800000000        4.78669900000000        0.00406000000000
N           -0.63790500000000       -2.47150800000000        0.01057900000000
N           -5.55409000000000       -1.32168400000000       -0.01076100000000
C           -5.59815300000000       -3.74279900000000       -0.02215300000000
H           -3.25175300000000        5.68876700000000        0.00556900000000
H           -6.56643300000000       -1.33395100000000       -0.01571200000000
H            3.24434400000000       -5.64942700000000       -0.03390000000000
H           -6.68375500000000       -3.74645200000000       -0.02849200000000
73
 energy: -129.547959178085 gnorm: 0.022359917252 xtb: 6.7.1pre (5071a88)
C            5.74857030597949       -3.54501388148334       -0.01546822899579
C            0.80458146633165       -4.87223814197792        0.04913403104324
C            5.06137761442165       -4.70197633924528       -0.01749131829525
C            2.92941336217539       -3.57600820784106        0.00168269457349
C            5.04899586869628       -2.28317445085115       -0.00930809389750
C           -4.85576798908127       -4.92493862563975       -0.02735369460523
C           -0.54488866200515       -4.87712808920962        0.04774590497618
C           -0.77672809250588        4.90583977236754        0.00549254871641
C           -2.73441581665449       -3.73859197101441       -0.00270578231842
N            5.63484967057713        1.31325124712862       -0.00782025405456
C           -4.88293524346872       -2.52926838585413       -0.01260621821225
C            3.51146645474677        2.52723654738955       -0.00166123484388
C            1.36343029625966        3.74249693293111        0.00252935279808
C            1.51897395528774       -3.63116696812368        0.01706077317661
C           -2.76507954234431       -1.29200069001567        0.00139633762331
C            5.64841243329619        3.69251547442634       -0.00651965682531
C           -4.90939782947076       -0.10083259075757       -0.00502676317058
C            3.57550907221182        4.94044574546784       -0.00169005049376
C            3.61138327736930       -2.34635385737276       -0.00250298797346
C           -5.01622541563942        2.31921826221347       -0.00105613951080
C            1.44025234042155       -1.18430018809481        0.00465454279027
C           -0.69003674378835       -0.01160054677195        0.00485660474724
C           -2.83336101532159        1.18215535646646        0.00253752229021
C            5.68626824663456       -1.06648665736576       -0.01034194907688
C           -2.91602874005538        3.62117121158713        0.00383219077909
C            3.53767547486536        0.09586527919099       -0.00160474189206
C           -5.05179930317099        4.73259716228805        0.00188782710507
C            1.39066644309361        1.27908475673769        0.00240435583723
C           -0.75551651607607        2.46896251303106        0.00399105297364
C           -3.48513808968260       -4.94747576917287       -0.01869022724534
C            4.96467023472263        0.15929828990456       -0.00635646652939
C            2.80498181454435        1.30238717630965        0.00006987226900
C            0.67018835728381        2.51134543824113        0.00304127011434
C           -1.50256965380619        3.68364873714503        0.00459394916815
C           -1.32097334540053       -3.68764808178006        0.01510836285439
C           -3.46447904561539       -2.51899520550804       -0.00470061511724
C            4.94109996744136        2.47280062659711       -0.00518678991495
C            2.81442026872778        3.76801326005843       -0.00012926823212
C            0.58781236703716        4.92613540589418        0.00445048705217
C            0.76290393433293       -2.42702050094898        0.01027835799763
C           -1.35435419416242       -1.26046871618321        0.00559493160101
C           -3.50268229609911       -0.07140767086527        0.00003322751933
C            4.96664310814612        4.88870891740280       -0.00471552824044
C           -5.65101980940345        1.08654544055137       -0.00494795055306
C            2.86096227022396       -1.15097851337242        0.00106843914283
C           -5.73132194675239        3.56390662572112       -0.00072860954840
C            0.71804092802950        0.04015665697385        0.00397508457104
C           -1.42804647086506        1.21702229124790        0.00386134003260
C           -3.58814317763870        2.38327236874665        0.00199985852956
H            6.82806217167147       -3.55870029683001       -0.02018547012862
H           -1.30055040186170        5.85411643029745        0.00686820202692
H            6.72907158870656        3.66366967987686       -0.00907865177756
H            3.09875385919511        5.90984719070872       -0.00072536692076
H            6.76673766126124       -1.01760680744888       -0.01488311713544
H           -5.54502890556348        5.69474396958884        0.00228690997504
H            1.08346383440487        5.88633850735082        0.00506176674050
H            5.52427033237878        5.81886140561043       -0.00580353174922
H            1.32847866998301       -5.81663931879928        0.08430277106514
H            5.53891787604803       -5.67198235878681       -0.02474821314292
H           -5.40039043819259       -5.86082607163489       -0.03896606566342
H           -1.06637080476022       -5.81953072435531        0.07731940697667
H           -2.99030454895139       -5.90473586706299       -0.02834553207044
H           -6.73250264762624        1.04032132880399       -0.00828965647145
H           -6.81101782284249        3.56686913488769       -0.00263977048769
N            3.68989582670083       -4.72826446804272       -0.00689993822142
N           -3.69298596254857        4.76860468042939        0.00402033851234
N           -0.63534740183960       -2.45916814499446        0.01034842353492
N           -5.53918039428573       -1.31889377596865       -0.01072843895164
C           -5.57707445614839       -3.72767264626807       -0.02214850519601
H           -3.23613683955247        5.66742382768266        0.00550380854579
H           -6.55026127011984       -1.33272541799247       -0.01579448817584
H            3.23390146818603       -5.62580604992255       -0.03139988121578
H           -6.65817298809275       -3.73552165369969       -0.02795835080457
73
 energy: -129.549581353113 gnorm: 0.005237751043 xtb: 6.7.1pre (5071a88)
C            5.73461084449088       -3.53063553863037       -0.01542032443366
C            0.80319099016614       -4.85670196529067        0.04805457803108
C            5.04962203121408       -4.68565387873015       -0.01737891445198
C            2.92342268721037       -3.56580731799589        0.00192633276855
C            5.03581852043534       -2.27154035985829       -0.00934254383478
C           -4.84340069859301       -4.91217007548996       -0.02710301339959
C           -0.54544167391749       -4.86050833017218        0.04713935242212
C           -0.77473428799844        4.88870908191536        0.00546765259991
C           -2.72620868954649       -3.72660537611906       -0.00227454155730
N            5.61206111579161        1.30851181324199       -0.00779223680673
C           -4.87123408146704       -2.52021489097998       -0.01255701235973
C            3.50002168111443        2.51876094279335       -0.00165536868307
C            1.35965753045760        3.73135248253087        0.00249635721356
C            1.51534276391544       -3.61808459724926        0.01679086256369
C           -2.75652117221946       -1.28754816139286        0.00144000392475
C            5.63527931140694        3.67704781189237       -0.00647779436185
C           -4.89891186221398       -0.10277268030321       -0.00499257282767
C            3.56679315662654        4.92152418365743       -0.00165415795583
C            3.60180095096256       -2.33823431787437       -0.00242459613886
C           -5.00188700292809        2.31168551720205       -0.00100251625920
C            1.43427872288651       -1.18303906517277        0.00456879883718
C           -0.69130494433702       -0.01226982062399        0.00476495884622
C           -2.82651715383574        1.17767218400273        0.00258168573920
C            5.67386433735612       -1.06073441991977       -0.01047188387794
C           -2.90853895175810        3.61052785910433        0.00384852866291
C            3.52497603698273        0.09420061495254       -0.00157329358946
C           -5.03599842406195        4.72110631325203        0.00190832974263
C            1.38395085940056        1.27440098027401        0.00233895042685
C           -0.75238854376522        2.46069209859552        0.00395264617227
C           -3.47503730447817       -4.93108103711253       -0.01812019728707
C            4.95013971019007        0.15980546317780       -0.00632224648412
C            2.79626674118911        1.29833223004125        0.00006043602361
C            0.66661230320259        2.50325898883448        0.00299501375042
C           -1.49851258207726        3.67118937858157        0.00458515064179
C           -1.31560695441142       -3.67076071342432        0.01526061983845
C           -3.45785876511072       -2.51133669174116       -0.00463216335344
C            4.92505411455188        2.46313661795876       -0.00516028545948
C            2.80618117615079        3.75581607564198       -0.00011838206073
C            0.58839548729793        4.90997337579938        0.00440859466151
C            0.75441611799270       -2.41885855058794        0.01023781401877
C           -1.34927333612051       -1.26053381871391        0.00554915203330
C           -3.49510722050045       -0.07206865383138        0.00008418967314
C            4.95617887099582        4.87005177812615       -0.00466065439295
C           -5.63676167302987        1.08318873928925       -0.00492821817087
C            2.85109712770551       -1.14739909175150        0.00111721058793
C           -5.71559608121348        3.55495204592894       -0.00067592108925
C            0.71607831424404        0.04081883463340        0.00384357408394
C           -1.42420959249389        1.21255573544973        0.00383882292765
C           -3.57938791945020        2.37573568445882        0.00203836989291
H            6.81179465676204       -3.53667481708800       -0.02035892217292
H           -1.30100536614502        5.83394058490914        0.00685955905476
H            6.71314874483978        3.64513592542912       -0.00902050134631
H            3.09303834385392        5.89066498567805       -0.00065718701623
H            6.75131749611201       -1.00959148891286       -0.01510864365894
H           -5.53274379450419        5.68000007356551        0.00230785542130
H            1.08426075346269        5.86785250543509        0.00499076441035
H            5.51174550180738        5.79859289252400       -0.00575896705893
H            1.32954010155877       -5.79759434893063        0.08135771702869
H            5.53007995779616       -5.65253590777314       -0.02454078994149
H           -5.38675534173236       -5.84580282718463       -0.03916669701792
H           -1.06833399129837       -5.79993047985067        0.07575644586623
H           -2.97910540510732       -5.88611556893605       -0.02687003931082
H           -6.71628742174348        1.03790190050055       -0.00826082080155
H           -6.79294403020899        3.55213951923143       -0.00255702985683
N            3.68054601442366       -4.71459013420977       -0.00718714780875
N           -3.68146907511703        4.75780676179875        0.00399039450312
N           -0.63349615599663       -2.45057233054725        0.01033001545873
N           -5.52959258008215       -1.31654637798466       -0.01073159572750
C           -5.56259661502309       -3.71766865005866       -0.02214883488931
H           -3.21642851577071        5.65180627133790        0.00542026507878
H           -6.53967361604196       -1.33139583025969       -0.01597870741063
H            3.22080018268600       -5.60951479981041       -0.02760644739215
H           -6.64164343294144       -3.72602533723372       -0.02783483266045
73
 energy: -129.549622522213 gnorm: 0.002592407089 xtb: 6.7.1pre (5071a88)
C            5.73264745153775       -3.52931218341657       -0.01558681281432
C            0.80311146507307       -4.85621575050354        0.04739864480634
C            5.04765055221407       -4.68467250358949       -0.01719302537545
C            2.92217333580269       -3.56528295943288        0.00193683679275
C            5.03363568286475       -2.27055763954745       -0.00944045631268
C           -4.84162710965760       -4.91191402149153       -0.02711251016010
C           -0.54538058918698       -4.85992761373333        0.04674362090588
C           -0.77489351429243        4.88839414489478        0.00547363252749
C           -2.72513776324015       -3.72588430767778       -0.00201670414937
N            5.61046523204472        1.30813486595576       -0.00784122717712
C           -4.87004474177300       -2.51919988224274       -0.01250729158018
C            3.49845647446993        2.51805816381794       -0.00165884730398
C            1.35864670820602        3.73090028140518        0.00248742339403
C            1.51452192484257       -3.61731173508940        0.01661246426605
C           -2.75560188618601       -1.28703935999596        0.00153528779491
C            5.63441642345283        3.67602514826756       -0.00646225125695
C           -4.89817872222623       -0.10321421565631       -0.00497978770923
C            3.56516420147935        4.92086972624558       -0.00163537637071
C            3.60004678800439       -2.33755255671297       -0.00248020583295
C           -5.00027267449886        2.31113472107911       -0.00096546341932
C            1.43295736159950       -1.18295640311011        0.00457810255185
C           -0.69160330607757       -0.01232142886825        0.00477069527029
C           -2.82579440594167        1.17703217068292        0.00262132940512
C            5.67285671776241       -1.06034121999891       -0.01060137122895
C           -2.90728557580102        3.60957273358692        0.00386676929994
C            3.52315885788181        0.09366690872241       -0.00160785441261
C           -5.03294959577039        4.72089573157751        0.00192900030869
C            1.38301408841596        1.27382972111730        0.00231966558939
C           -0.75209035793745        2.45973770581027        0.00395170211319
C           -3.47272443974912       -4.93042367830887       -0.01784364800490
C            4.94872770539704        0.15955370355166       -0.00640705326409
C            2.79527785863808        1.29776347984374        0.00003852042208
C            0.66600527522395        2.50240256972692        0.00297790397503
C           -1.49773430624750        3.67044706115239        0.00459455948563
C           -1.31447552408290       -3.66938906010806        0.01538557245764
C           -3.45718216780972       -2.51077128704681       -0.00447687856021
C            4.92350231694750        2.46256472373799       -0.00515588215546
C            2.80463620990938        3.75516134382963       -0.00011936129141
C            0.58839594180056        4.90983756734207        0.00440202557174
C            0.75290232842542       -2.41823337045685        0.01022492258237
C           -1.34876389300047       -1.26098619770836        0.00560269085103
C           -3.49439574345659       -0.07235609321978        0.00012608845424
C            4.95513750372968        4.86937827801495       -0.00463833287539
C           -5.63585883688947        1.08284252046069       -0.00491234746346
C            2.84913484722917       -1.14717569052001        0.00108518668508
C           -5.71343694112374        3.55464235545111       -0.00063065569362
C            0.71551284619317        0.04086733029286        0.00384342802020
C           -1.42381292771553        1.21163644559109        0.00385305293547
C           -3.57813247620573        2.37500111750112        0.00207585683483
H            6.80981386352987       -3.53187662156981       -0.02059949603915
H           -1.30142993445864        5.83326533895693        0.00686910856034
H            6.71217469842227        3.64107494853172       -0.00899986090332
H            3.09123721761208        5.88989171905113       -0.00061454473868
H            6.75016275523774       -1.00780432562695       -0.01533669933506
H           -5.53042105456445        5.67932260815035        0.00232028766739
H            1.08471129030212        5.86733202662076        0.00496294949897
H            5.51000742387030        5.79802086867394       -0.00570231933619
H            1.33001045686404       -5.79661519590734        0.07975181168998
H            5.52887318215110       -5.65095725912626       -0.02421891167726
H           -5.38433079319099       -5.84563538958448       -0.03907316962655
H           -1.06862017734470       -5.79866569971368        0.07504075822541
H           -2.97601156311110       -5.88508517745462       -0.02637704863682
H           -6.71535173771226        1.03740732625813       -0.00827182079281
H           -6.79062124838588        3.54973245205238       -0.00249182829455
N            3.67869343734804       -4.71392093668320       -0.00718809356201
N           -3.67893303914977        4.75738041724416        0.00398217900949
N           -0.63339293959465       -2.45007329794802        0.01037995327392
N           -5.52920705289888       -1.31640424171532       -0.01075299250140
C           -5.56112366423183       -3.71741649759886       -0.02222438316186
H           -3.20983893941966        5.64916805022991        0.00536944311986
H           -6.53914703059084       -1.33133541447769       -0.01613223042456
H            3.21705145157927       -5.60777482152422       -0.02507406537011
H           -6.64021620253883       -3.72461223806253       -0.02799566553381
73
 energy: -129.549633559793 gnorm: 0.001086495417 xtb: 6.7.1pre (5071a88)
C            5.73200297243457       -3.52908836007638       -0.01575175356683
C            0.80306984307170       -4.85659772427509        0.04654062483023
C            5.04714394492044       -4.68468626911145       -0.01683918804807
C            2.92180932042612       -3.56536198414273        0.00198160805608
C            5.03270755051040       -2.27038661119725       -0.00964924432757
C           -4.84127530398718       -4.91227344438746       -0.02695444885645
C           -0.54535753192964       -4.86034161726930        0.04617015003196
C           -0.77502261373065        4.88890302726425        0.00547997690067
C           -2.72502519109680       -3.72609123088160       -0.00176402794824
N            5.61030183097738        1.30821411511791       -0.00793460581151
C           -4.86976370025247       -2.51901130957223       -0.01245220234835
C            3.49792338493760        2.51805403127000       -0.00168915484726
C            1.35823511796655        3.73117535636916        0.00248385165882
C            1.51427792270292       -3.61740567843980        0.01638615901652
C           -2.75541876387769       -1.28694025477338        0.00166638922754
C            5.63436679576673        3.67613457418040       -0.00644523258463
C           -4.89827434487925       -0.10348259936435       -0.00496185064307
C            3.56482301106866        4.92114224703547       -0.00159320353052
C            3.59940680496826       -2.33732440816770       -0.00258701766417
C           -4.99988109358513        2.31116316137387       -0.00092312454641
C            1.43237626902585       -1.18295188563231        0.00458877096187
C           -0.69178787837782       -0.01223777273346        0.00482125666925
C           -2.82576613678117        1.17677340236295        0.00267661293399
C            5.67270533294768       -1.06030312094425       -0.01083981780166
C           -2.90697630436080        3.60934119197672        0.00388965205624
C            3.52254666611825        0.09350105692763       -0.00168573356073
C           -5.03167128527864        4.72130817372004        0.00195297222917
C            1.38274237013307        1.27379784118454        0.00231733591023
C           -0.75205083599394        2.45957013210009        0.00397418319542
C           -3.47199462602963       -4.93071313266024       -0.01749340137658
C            4.94840802463025        0.15941418173257       -0.00653645052627
C            2.79510695583502        1.29770892371290       -0.00000378045858
C            0.66576687626025        2.50227137860944        0.00298155405573
C           -1.49746398632246        3.67055987272142        0.00461362096663
C           -1.31402922876973       -3.66923336788377        0.01546797049291
C           -3.45715322542365       -2.51088300870543       -0.00428249291382
C            4.92305369635610        2.46275239880306       -0.00519549616249
C            2.80408881780689        3.75532531990380       -0.00011552289755
C            0.58840679573298        4.91040276011891        0.00439444534019
C            0.75224589864546       -2.41820704590612        0.01020556390356
C           -1.34871679737713       -1.26140252957606        0.00569834483875
C           -3.49436919625065       -0.07261352152132        0.00019199739457
C            4.95508218237415        4.86966917516653       -0.00458589646105
C           -5.63590232235877        1.08281076191303       -0.00489356969093
C            2.84831719951002       -1.14708050296191        0.00099936590396
C           -5.71263843048228        3.55499529796459       -0.00057557130703
C            0.71523395507660        0.04094617251448        0.00387575104085
C           -1.42380880840913        1.21123537143310        0.00389740319148
C           -3.57778869101373        2.37475682775533        0.00211909985899
H            6.80916989304822       -3.52893069310439       -0.02097800595140
H           -1.30122863000307        5.83387375115321        0.00688271612964
H            6.71208651073199        3.63860335729410       -0.00897875758915
H            3.09087225784114        5.89014664771099       -0.00055846910031
H            6.74995550709507       -1.00665392097486       -0.01563759018658
H           -5.52974879828413        5.67945263410139        0.00233702921197
H            1.08498359869312        5.86770641438714        0.00494192796735
H            5.50942696654810        5.79855845628483       -0.00562790439687
H            1.33002499673535       -5.79694066607391        0.07785236522978
H            5.52892582049695       -5.65064367261946       -0.02370854509997
H           -5.38348651217809       -5.84622795390400       -0.03899086750771
H           -1.06866038596828       -5.79879770709202        0.07406614172816
H           -2.97520752398635       -5.88533458275383       -0.02588599386853
H           -6.71541520316092        1.03720536936658       -0.00828460123247
H           -6.78976087713455        3.54868055094812       -0.00240715163154
N            3.67829015524362       -4.71400230126190       -0.00708219753340
N           -3.67807272681028        4.75755734321936        0.00397423670275
N           -0.63344467183395       -2.45023143588532        0.01044240286209
N           -5.52950536779359       -1.31655782898729       -0.01078515206616
C           -5.56076794850778       -3.71788310138906       -0.02226954952011
H           -3.20525944040657        5.64732181143485        0.00530950228365
H           -6.53939230434794       -1.33152136021577       -0.01631216181625
H            3.21501158434763       -5.60699319103714       -0.02187968528030
H           -6.63994114400122       -3.72396729365022       -0.02825656212048
73
 energy: -129.549636100314 gnorm: 0.000570869349 xtb: 6.7.1pre (5071a88)
C            5.73220014594488       -3.52920796235334       -0.01592791672289
C            0.80301700799001       -4.85693083981552        0.04545865581424
C            5.04753188456951       -4.68486128266588       -0.01629621440535
C            2.92199045546517       -3.56547994933052        0.00209060237386
C            5.03263843396454       -2.27043510863414       -0.00992405997886
C           -4.84168253996852       -4.91250359140463       -0.02675811196918
C           -0.54543204328998       -4.86073150719142        0.04531842806599
C           -0.77508229648220        4.88923390181804        0.00549403622266
C           -2.72535364884423       -3.72647458269993       -0.00154150228346
N            5.61052344018182        1.30840211414705       -0.00810529446414
C           -4.86987165662269       -2.51915527697660       -0.01238995098561
C            3.49796071715833        2.51824794820416       -0.00173910004409
C            1.35827415034915        3.73148144509443        0.00249835222105