73
 energy: -129.549636123863 gnorm: 0.000569234913 xtb: 6.7.1pre (5071a88)
C            5.73220014594488       -3.52920796235334       -0.01592791672289
C            0.80301700799001       -4.85693083981552        0.04545865581424
C            5.04753188456951       -4.68486128266588       -0.01629621440535
C            2.92199045546517       -3.56547994933052        0.00209060237386
C            5.03263843396454       -2.27043510863414       -0.00992405997886
C           -4.84168253996852       -4.91250359140463       -0.02675811196918
C           -0.54543204328998       -4.86073150719142        0.04531842806599
C           -0.77508229648220        4.88923390181804        0.00549403622266
C           -2.72535364884423       -3.72647458269993       -0.00154150228346
N            5.61052344018182        1.30840211414705       -0.00810529446414
C           -4.86987165662269       -2.51915527697660       -0.01238995098561
C            3.49796071715833        2.51824794820416       -0.00173910004409
C            1.35827415034915        3.73148144509443        0.00249835222105
C            1.51443416320454       -3.61767625988116        0.01613321903792
C           -2.75552537654435       -1.28702913996195        0.00180801378134
C            5.63459644550371        3.67644035462776       -0.00644576423230
C           -4.89857738087000       -0.10356992162994       -0.00493533779794
C            3.56517873415571        4.92138458367931       -0.00154052122930
C            3.59948840780997       -2.33721677583846       -0.00274030345962
C           -5.00008746839957        2.31130616841840       -0.00087529481410
C            1.43233714996927       -1.18297404069897        0.00458793336313
C           -0.69184137670433       -0.01211495468460        0.00492701025298
C           -2.82600003015546        1.17670310143119        0.00275973950034
C            5.67282020570225       -1.06031120657782       -0.01117038290057
C           -2.90722487619477        3.60933781461328        0.00392236280590
C            3.52259978922156        0.09362283569762       -0.00184355492067
C           -5.03166986887260        4.72166776241047        0.00198185005385
C            1.38277675621795        1.27397708078533        0.00233648659074
C           -0.75214835336599        2.45976877991816        0.00403652309101
C           -3.47222017871281       -4.93104154452422       -0.01711465829015
C            4.94849532617174        0.15944080543732       -0.00677016298889
C            2.79522594349359        1.29788505767479       -0.00007514407459
C            0.66573664188033        2.50241838798663        0.00302063043423
C           -1.49757321984583        3.67083968512105        0.00465141780427
C           -1.31408102487769       -3.66945189596222        0.01545534196629
C           -3.45737773895522       -2.51118311707881       -0.00408663832539
C            4.92307355724697        2.46302787516690       -0.00526870693800
C            2.80417721436699        3.75561986935784       -0.00010844775181
C            0.58841636462081        4.91070429906397        0.00439784347030
C            0.75223813699307       -2.41837102024614        0.01016683305044
C           -1.34886099652850       -1.26160314149219        0.00581767481505
C           -3.49457883405513       -0.07279792487083        0.00028147966411
C            4.95545276168257        4.86993469184490       -0.00452781832838
C           -5.63615544798502        1.08287286400665       -0.00487228984176
C            2.84829060517916       -1.14699374786989        0.00084756886240
C           -5.71267237895132        3.55533822269702       -0.00051308310749
C            0.71516532254668        0.04099677432925        0.00394073950256
C           -1.42395297049697        1.21120313332922        0.00399160800113
C           -3.57793351220675        2.37466935248555        0.00217391928163
H            6.80933301722915       -3.52764276255127       -0.02144127235978
H           -1.30067657032984        5.83457784157458        0.00689018550904
H            6.71228296348745        3.63748140506172       -0.00897206857184
H            3.09134124138204        5.89045734121571       -0.00046053934205
H            6.75003587469667       -1.00611616601684       -0.01604178437060
H           -5.53016559610768        5.67967051803817        0.00236044411439
H            1.08505611815335        5.86798423827000        0.00491971478711
H            5.50952951014357        5.79904806718510       -0.00550567712233
H            1.32970957903624       -5.79750526292316        0.07552118075944
H            5.52956618836537       -5.65074305036538       -0.02284665153362
H           -5.38363166087188       -5.84667421116602       -0.03872135101183
H           -1.06872018374939       -5.79921207815083        0.07251795667613
H           -2.97576981910025       -5.88582841253967       -0.02521751396307
H           -6.71568110554259        1.03716305273516       -0.00829381621121
H           -6.78978683969782        3.54852377747056       -0.00230962593895
N            3.67878541799924       -4.71411486868972       -0.00676555663158
N           -3.67838296097509        4.75777263163745        0.00397104089634
N           -0.63352599115471       -2.45050912365189        0.01048743855425
N           -5.52986132490497       -1.31676097682388       -0.01081296769258
C           -5.56096080750294       -3.71830524747573       -0.02229453522556
H           -3.20280339730236        5.64604023369022        0.00524668112888
H           -6.53975227263498       -1.33173887099677       -0.01649212573536
H            3.21439199694972       -5.60657863921206       -0.01798492412977
H           -6.64018092022866       -3.72366955327258       -0.02849724275835
