      -----------------------------------------------------------      
     |                   =====================                   |     
     |                           x T B                           |     
     |                   =====================                   |     
     |                         S. Grimme                         |     
     |          Mulliken Center for Theoretical Chemistry        |     
     |                    University of Bonn                     |     
      -----------------------------------------------------------      

   * xtb version 6.7.1pre (5071a88) compiled by 'Marcel@Raven' on 2024-07-23

   xtb is free software: you can redistribute it and/or modify it under
   the terms of the GNU Lesser General Public License as published by
   the Free Software Foundation, either version 3 of the License, or
   (at your option) any later version.
   
   xtb is distributed in the hope that it will be useful,
   but WITHOUT ANY WARRANTY; without even the implied warranty of
   MERCHANTABILITY or FITNESS FOR A PARTICULAR PURPOSE.  See the
   GNU Lesser General Public License for more details.
   
   Cite this work as:
   * C. Bannwarth, E. Caldeweyher, S. Ehlert, A. Hansen, P. Pracht,
     J. Seibert, S. Spicher, S. Grimme, WIREs Comput. Mol. Sci., 2020, 11,
     e01493. DOI: 10.1002/wcms.1493
   
   for GFN2-xTB:
   * C. Bannwarth, S. Ehlert and S. Grimme., J. Chem. Theory Comput., 2019,
     15, 1652-1671. DOI: 10.1021/acs.jctc.8b01176
   for GFN1-xTB:
   * S. Grimme, C. Bannwarth, P. Shushkov, J. Chem. Theory Comput., 2017,
     13, 1989-2009. DOI: 10.1021/acs.jctc.7b00118
   for GFN0-xTB:
   * P. Pracht, E. Caldeweyher, S. Ehlert, S. Grimme, ChemRxiv, 2019, preprint.
     DOI: 10.26434/chemrxiv.8326202.v1
   for GFN-FF:
   * S. Spicher and S. Grimme, Angew. Chem. Int. Ed., 2020, 59, 15665-15673.
     DOI: 10.1002/anie.202004239
   
   for ALPB and GBSA implicit solvation:
   * S. Ehlert, M. Stahn, S. Spicher, S. Grimme, J. Chem. Theory Comput.,
     2021, 17, 4250-4261. DOI: 10.1021/acs.jctc.1c00471
   
   for ddCOSMO and CPCM-X implicit solvation:
   * M. Stahn, S. Ehlert, S. Grimme, J. Phys. Chem. A,
     2023, XX, XXXX-XXXX. DOI: 10.1021/acs.jpca.3c04382
   
   for DFT-D4:
   * E. Caldeweyher, C. Bannwarth and S. Grimme, J. Chem. Phys., 2017,
     147, 034112. DOI: 10.1063/1.4993215
   * E. Caldeweyher, S. Ehlert, A. Hansen, H. Neugebauer, S. Spicher,
     C. Bannwarth and S. Grimme, J. Chem. Phys., 2019, 150, 154122.
     DOI: 10.1063/1.5090222
   * E. Caldeweyher, J.-M. Mewes, S. Ehlert and S. Grimme, Phys. Chem. Chem. Phys.
     2020, 22, 8499-8512. DOI: 10.1039/D0CP00502A
   
   for sTDA-xTB:
   * S. Grimme and C. Bannwarth, J. Chem. Phys., 2016, 145, 054103.
     DOI: 10.1063/1.4959605
   
   in the mass-spec context:
   * V. Asgeirsson, C. Bauer and S. Grimme, Chem. Sci., 2017, 8, 4879.
     DOI: 10.1039/c7sc00601b
   * J. Koopman and S. Grimme, ACS Omega 2019, 4, 12, 15120-15133.
     DOI: 10.1021/acsomega.9b02011
   
   for metadynamics refer to:
   * S. Grimme, J. Chem. Theory Comput., 2019, 155, 2847-2862
     DOI: 10.1021/acs.jctc.9b00143
   
   for SPH calculations refer to:
   * S. Spicher and S. Grimme, J. Chem. Theory Comput., 2021, 17, 1701-1714
     DOI: 10.1021/acs.jctc.0c01306
   
   for ONIOM refer to:
   * C. Plett, A. Katbashev, S. Ehlert, S. Grimme, M. Bursch,
     Phys. Chem. Chem. Phys., 2023, 25, 17860-17868. DOI: 10.1039/D3CP02178E
   
   for DIPRO refer to:
   * J. Kohn, N. Gildemeister, S. Grimme, D. Fazzi, A. Hansen,
     J. Chem. Phys., 2023, just accepted.
   
   for PTB refer to:
   * S. Grimme, M. Mueller, A. Hansen, J. Chem. Phys., 2023, 158, 124111.
     DOI: 10.1063/5.0137838
   
   with help from (in alphabetical order)
   P. Atkinson, C. Bannwarth, F. Bohle, G. Brandenburg, E. Caldeweyher
   M. Checinski, S. Dohm, S. Ehlert, S. Ehrlich, I. Gerasimov, C. Hölzer
   A. Katbashev, J. Kohn, J. Koopman, C. Lavigne, S. Lehtola, F. März, M. Müller,
   F. Musil, H. Neugebauer, J. Pisarek, C. Plett, P. Pracht, F. Pultar,
   J. Seibert, P. Shushkov, S. Spicher, M. Stahn, M. Steiner, T. Strunk,
   J. Stückrath, T. Rose, and J. Unsleber
   
 * started run on 2025/12/08 at 00:32:17.227     
   ID    Z sym.   atoms
    1    6 C      1-100
    2    1 H      101-128
    3    5 B      129-132

           -------------------------------------------------
          |                Calculation Setup                |
           -------------------------------------------------

          program call               : xtb "C:\Users\LENOVO GAMING\Documents\GitHub\molecular-conductivity-sim\dataset\1.5nm-4Bdoped-3percent.xyz" --opt --parallel 4
          coordinate file            : C:\Users\LENOVO GAMING\Documents\GitHub\molecular-conductivity-sim\dataset\1.5nm-4Bdoped-3percent.xyz
          omp threads                :                     4


           -------------------------------------------------
          |                 G F N 2 - x T B                 |
           -------------------------------------------------

        Reference                      10.1021/acs.jctc.8b01176
      * Hamiltonian:
        H0-scaling (s, p, d)           1.850000    2.230000    2.230000
        zeta-weighting                 0.500000
      * Dispersion:
        s8                             2.700000
        a1                             0.520000
        a2                             5.000000
        s9                             5.000000
      * Repulsion:
        kExp                           1.500000    1.000000
        rExp                           1.000000
      * Coulomb:
        alpha                          2.000000
        third order                    shell-resolved
        anisotropic                    true
        a3                             3.000000
        a5                             4.000000
        cn-shift                       1.200000
        cn-exp                         4.000000
        max-rad                        5.000000


          ...................................................
          :                      SETUP                      :
          :.................................................:
          :  # basis functions                 444          :
          :  # atomic orbitals                 444          :
          :  # shells                          236          :
          :  # electrons                       440          :
          :  max. iterations                   250          :
          :  Hamiltonian                  GFN2-xTB          :
          :  restarted?                      false          :
          :  GBSA solvation                  false          :
          :  PC potential                    false          :
          :  electronic temp.          300.0000000     K    :
          :  accuracy                    1.0000000          :
          :  -> integral cutoff          0.2500000E+02      :
          :  -> integral neglect         0.1000000E-07      :
          :  -> SCF convergence          0.1000000E-05 Eh   :
          :  -> wf. convergence          0.1000000E-03 e    :
          :  Broyden damping             0.4000000          :
          :  net charge                          0          :
          :  unpaired electrons                  0          :
          ...................................................

 iter      E             dE          RMSdq      gap      omega  full diag
   1   -237.9085657 -0.237909E+03  0.629E+00    1.05       0.0  T
   2   -238.2050576 -0.296492E+00  0.402E+00    0.78       1.0  T
   3   -237.9054174  0.299640E+00  0.177E+00    1.01       1.0  T
   4   -238.3084931 -0.403076E+00  0.694E-01    0.99       1.0  T
   5   -238.3481767 -0.396836E-01  0.441E-01    1.01       1.0  T
   6   -238.3510156 -0.283890E-02  0.239E-01    1.00       1.0  T
   7   -238.3551456 -0.413006E-02  0.105E-01    0.99       1.0  T
   8   -238.3568032 -0.165761E-02  0.414E-02    0.99       1.0  T
   9   -238.3568977 -0.945107E-04  0.199E-02    0.99       1.0  T
  10   -238.3569035 -0.577681E-05  0.456E-03    0.99       1.9  T
  11   -238.3569055 -0.200690E-05  0.328E-03    0.99       2.7  T
  12   -238.3569057 -0.184734E-06  0.962E-04    0.99       9.0  T
  13   -238.3569058 -0.840104E-07  0.266E-04    0.99      32.8  T

   *** convergence criteria satisfied after 13 iterations ***

         #    Occupation            Energy/Eh            Energy/eV
      -------------------------------------------------------------
         1        2.0000           -0.6631953             -18.0465
       ...           ...                  ...                  ...
       214        2.0000           -0.3813576             -10.3773
       215        2.0000           -0.3804900             -10.3537
       216        2.0000           -0.3788455             -10.3089
       217        2.0000           -0.3759796             -10.2309
       218        2.0000           -0.3698191             -10.0633
       219        2.0000           -0.3594973              -9.7824
       220        2.0000           -0.3518291              -9.5738 (HOMO)
       221                         -0.3156099              -8.5882 (LUMO)
       222                         -0.3048689              -8.2959
       223                         -0.3047796              -8.2935
       224                         -0.2959955              -8.0544
       225                         -0.2839511              -7.7267
       ...                                ...                  ...
       444                          0.7470011              20.3269
      -------------------------------------------------------------
                  HL-Gap            0.0362192 Eh            0.9856 eV
             Fermi-level           -0.3337194 Eh           -9.0810 eV

 SCC (total)                   0 d,  0 h,  0 min,  1.026 sec
 SCC setup                      ...        0 min,  0.002 sec (  0.195%)
 Dispersion                     ...        0 min,  0.008 sec (  0.780%)
 classical contributions        ...        0 min,  0.000 sec (  0.000%)
 integral evaluation            ...        0 min,  0.046 sec (  4.483%)
 iterations                     ...        0 min,  0.787 sec ( 76.706%)
 molecular gradient             ...        0 min,  0.176 sec ( 17.154%)
 printout                       ...        0 min,  0.007 sec (  0.682%)

         :::::::::::::::::::::::::::::::::::::::::::::::::::::
         ::                     SUMMARY                     ::
         :::::::::::::::::::::::::::::::::::::::::::::::::::::
         :: total energy            -234.068088349613 Eh    ::
         :: gradient norm              0.059483531079 Eh/a0 ::
         :: HOMO-LUMO gap              0.985574651098 eV    ::
         ::.................................................::
         :: SCC energy              -238.364644381438 Eh    ::
         :: -> isotropic ES            0.079367202637 Eh    ::
         :: -> anisotropic ES          0.020750727772 Eh    ::
         :: -> anisotropic XC          0.091842858714 Eh    ::
         :: -> dispersion             -0.283526119685 Eh    ::
         :: repulsion energy           4.296556031825 Eh    ::
         :: add. restraining           0.000000000000 Eh    ::
         :: total charge               0.000000000003 e     ::
         :::::::::::::::::::::::::::::::::::::::::::::::::::::

      ----------------------------------------------------------- 
     |                   =====================                   |
     |                        A N C O P T                        |
     |                   =====================                   |
     |               Approximate Normal Coordinate               |
     |                Rational Function Optimizer                |
      ----------------------------------------------------------- 
      ----------------------------------------------------------- 
     |                   =====================                   |
     |                        A N C O P T                        |
     |                   =====================                   |
     |               Approximate Normal Coordinate               |
     |                Rational Function Optimizer                |
      ----------------------------------------------------------- 

          ...................................................
          :                      SETUP                      :
          :.................................................:
          :   optimization level            normal          :
          :   max. optcycles                   396          :
          :   ANC micro-cycles                  20          :
          :   degrees of freedom               390          :
          :.................................................:
          :   RF solver                   davidson          :
          :   write xtbopt.log                true          :
          :   linear?                        false          :
          :   energy convergence         0.5000000E-05 Eh   :
          :   grad. convergence          0.1000000E-02 Eh/α :
          :   maxmium RF displ.          1.0000000          :
          :   Hlow (freq-cutoff)         0.1000000E-01      :
          :   Hmax (freq-cutoff)         5.0000000          :
          :   S6 in model hess.         20.0000000          :
          ...................................................

generating ANC from exact Hessian ...
Using Lindh-Hessian (1995)
 Shifting diagonal of input Hessian by   9.892888753447650E-003
 Lowest  eigenvalues of input Hessian
    0.000000    0.000000    0.000000    0.000000    0.000000    0.000000
    0.010000    0.010132    0.010201    0.010364    0.010445    0.011187
    0.011222    0.011407    0.011511    0.011795    0.012655    0.012814
 Highest eigenvalues
    2.069421    2.076735    2.089302    2.115922    2.123773    2.132637
 

........................................................................
.............................. CYCLE    1 ..............................
........................................................................

 iter      E             dE          RMSdq      gap      omega  full diag
   1   -238.3569058 -0.238357E+03  0.136E-04    0.99       0.0  T
   2   -238.3569058 -0.111982E-09  0.104E-04    0.99      83.7  T
   3   -238.3569058 -0.151667E-08  0.578E-05    0.99     150.6  T
     SCC iter.                  ...        0 min,  0.178 sec
     gradient                   ...        0 min,  0.165 sec
 * total energy  :  -234.0680884 Eh     change       -0.6295579E-08 Eh
   gradient norm :     0.0594839 Eh/α   predicted     0.0000000E+00 (-100.00%)
   displ. norm   :     0.4713537 α      lambda       -0.1497207E-01
   maximum displ.:     0.2862489 α      in ANC's #47, #45, #65, ...

........................................................................
.............................. CYCLE    2 ..............................
........................................................................

 iter      E             dE          RMSdq      gap      omega  full diag
   1   -238.4981583 -0.238498E+03  0.110E-01    0.99       0.0  T
   2   -238.4981591 -0.830993E-06  0.664E-02    0.99       1.0  T
   3   -238.4978965  0.262588E-03  0.399E-02    0.99       1.0  T
   4   -238.4981679 -0.271370E-03  0.804E-03    0.99       1.1  T
   5   -238.4981772 -0.932286E-05  0.196E-03    0.99       4.4  T
   6   -238.4981773 -0.652099E-07  0.134E-03    0.99       6.5  T
   7   -238.4981774 -0.165717E-06  0.385E-04    0.99      22.6  T
   8   -238.4981775 -0.133320E-07  0.205E-04    0.99      42.6  T
     SCC iter.                  ...        0 min,  0.455 sec
     gradient                   ...        0 min,  0.174 sec
 * total energy  :  -234.0791299 Eh     change       -0.1104154E-01 Eh
   gradient norm :     0.0226039 Eh/α   predicted    -0.9149734E-02 ( -17.13%)
   displ. norm   :     0.4609865 α      lambda       -0.6419051E-02
   maximum displ.:     0.2932458 α      in ANC's #47, #45, #22, ...

........................................................................
.............................. CYCLE    3 ..............................
........................................................................

 iter      E             dE          RMSdq      gap      omega  full diag
   1   -238.6111917 -0.238611E+03  0.872E-02    0.99       0.0  T
   2   -238.6111953 -0.364029E-05  0.527E-02    1.00       1.0  T
   3   -238.6111459  0.494423E-04  0.175E-02    0.99       1.0  T
   4   -238.6111983 -0.523872E-04  0.364E-03    0.99       2.4  T
   5   -238.6111999 -0.163249E-05  0.142E-03    0.99       6.1  T
   6   -238.6111999 -0.108791E-07  0.107E-03    0.99       8.1  T
   7   -238.6112000 -0.133877E-06  0.320E-04    0.99      27.2  T
   8   -238.6112001 -0.121873E-07  0.136E-04    0.99      64.2  T
     SCC iter.                  ...        0 min,  0.478 sec
     gradient                   ...        0 min,  0.182 sec
 * total energy  :  -234.0830698 Eh     change       -0.3939913E-02 Eh
   gradient norm :     0.0068180 Eh/α   predicted    -0.3891767E-02 (  -1.22%)
   displ. norm   :     0.1816424 α      lambda       -0.6785278E-03
   maximum displ.:     0.1164304 α      in ANC's #47, #45, #22, ...

........................................................................
.............................. CYCLE    4 ..............................
........................................................................

 iter      E             dE          RMSdq      gap      omega  full diag
   1   -238.6442997 -0.238644E+03  0.333E-02    0.99       0.0  T
   2   -238.6442993  0.432814E-06  0.210E-02    1.00       1.0  T
   3   -238.6442451  0.541989E-04  0.162E-02    0.99       1.0  T
   4   -238.6443018 -0.567590E-04  0.222E-03    0.99       3.9  T
   5   -238.6443027 -0.878880E-06  0.645E-04    1.00      13.5  T
   6   -238.6443027 -0.458208E-07  0.343E-04    0.99      25.4  T
     SCC iter.                  ...        0 min,  0.344 sec
     gradient                   ...        0 min,  0.183 sec
 * total energy  :  -234.0834569 Eh     change       -0.3871283E-03 Eh
   gradient norm :     0.0039851 Eh/α   predicted    -0.3504601E-03 (  -9.47%)
   displ. norm   :     0.0351474 α      lambda       -0.3917197E-04
   maximum displ.:     0.0217073 α      in ANC's #22, #45, #47, ...

........................................................................
.............................. CYCLE    5 ..............................
........................................................................

 iter      E             dE          RMSdq      gap      omega  full diag
   1   -238.6475136 -0.238648E+03  0.868E-03    0.99       0.0  T
   2   -238.6475135  0.140361E-06  0.528E-03    0.99       1.6  T
   3   -238.6475090  0.441975E-05  0.522E-03    0.99       1.7  T
   4   -238.6475139 -0.484646E-05  0.727E-04    0.99      12.0  T
   5   -238.6475140 -0.896691E-07  0.247E-04    0.99      35.3  T
   6   -238.6475140 -0.583884E-08  0.128E-04    0.99      68.2  T
     SCC iter.                  ...        0 min,  0.388 sec
     gradient                   ...        0 min,  0.190 sec
 * total energy  :  -234.0834798 Eh     change       -0.2285337E-04 Eh
   gradient norm :     0.0011753 Eh/α   predicted    -0.1961963E-04 ( -14.15%)
   displ. norm   :     0.0123730 α      lambda       -0.2993449E-05
   maximum displ.:     0.0103983 α      in ANC's #22, #69, #31, ...

........................................................................
.............................. CYCLE    6 ..............................
........................................................................

 iter      E             dE          RMSdq      gap      omega  full diag
   1   -238.6469587 -0.238647E+03  0.399E-03    0.99       0.0  T
   2   -238.6469587  0.603077E-08  0.229E-03    0.99       3.8  T
   3   -238.6469581  0.589169E-06  0.194E-03    0.99       4.5  T
   4   -238.6469588 -0.629957E-06  0.343E-04    0.99      25.4  T
   5   -238.6469588 -0.172887E-07  0.969E-05    0.99      89.8  T
     SCC iter.                  ...        0 min,  0.311 sec
     gradient                   ...        0 min,  0.180 sec
 * total energy  :  -234.0834815 Eh     change       -0.1751595E-05 Eh
   gradient norm :     0.0004905 Eh/α   predicted    -0.1497077E-05 ( -14.53%)
   displ. norm   :     0.0025904 α      lambda       -0.3127525E-06
   maximum displ.:     0.0015168 α      in ANC's #45, #47, #31, ...

   *** GEOMETRY OPTIMIZATION CONVERGED AFTER 6 ITERATIONS ***

------------------------------------------------------------------------
 total energy gain   :        -0.0153932 Eh       -9.6594 kcal/mol
 total RMSD          :         0.0977956 a0        0.0518 Å
 total power (kW/mol):        -6.7358033 (step)  -10.8788 (real)
------------------------------------------------------------------------

 ANCopt (total)                0 d,  0 h,  0 min,  3.715 sec
 optimizer setup                ...        0 min,  0.001 sec (  0.027%)
 model hessian                  ...        0 min,  0.113 sec (  3.042%)
 ANC generation                 ...        0 min,  0.031 sec (  0.834%)
 coordinate transformation      ...        0 min,  0.001 sec (  0.027%)
 single point calculation       ...        0 min,  3.550 sec ( 95.559%)
 optimization log               ...        0 min,  0.014 sec (  0.377%)
 hessian update                 ...        0 min,  0.000 sec (  0.000%)
 rational function              ...        0 min,  0.005 sec (  0.135%)

================
 final structure:
================
132
 xtb: 6.7.1pre (5071a88)
C           -2.82234194442030       -7.32599774164854        0.00874923045821
C            1.43718677646124       -7.32996540607758       -0.00020054729924
C           -0.71948131898482       -6.12898904924819        0.00365118728782
C            5.68590035363899       -7.37365814784014       -0.01596846769798
C            3.54010597591185       -6.14311807431615       -0.00651562973694
C            1.42507365990149       -4.91087454246030       -0.00130125575048
C           -1.46323372091460       -7.32663329239009        0.00637946879456
C           -3.56793962259598       -6.12838384456987        0.00842357987262
C            2.79872750217105       -7.33492986943024       -0.00379508657334
C            0.71061072156370       -6.12938394558612        0.00070337175282
C           -1.42066312593286       -4.90946688454867        0.00367587099888
C            7.76543583900829       -6.22234749282139       -0.01809046292047
C            5.69694701858643       -4.94457697984870       -0.01062960239002
C            3.57211829312389       -3.68495755698118       -0.00499970281210
C            5.68159800208195       -2.44629514370660       -0.00610227315606
C            7.75691359667410       -1.19449618061207       -0.00545555589973
C            7.05893900606315       -7.41267518830224       -0.01952687370920
C            4.97809723668252       -6.16100439640949       -0.01101702998704
C            2.84686422805105       -4.91664561645125       -0.00440923277927
C            0.71083686415131       -3.68123677029140       -0.00032979281305
C            7.11707083220093       -4.99284275247866       -0.01386536269004
C            4.98604060148087       -3.68925891872323       -0.00720800409308
C            2.84592746028342       -2.45995471219270       -0.00288885088123
C            7.11350025578474       -2.40719863076834       -0.00778348682362
C            4.95845484342019       -1.23024665330167       -0.00321216871102
C            7.06652292113552        0.02970933628747       -0.00174871618698
C           -7.34025416584266       -7.31658274118122        0.01566189762950
C           -4.99275732229888       -6.15332251717347        0.01054630984542
C           -7.11075655486563       -4.88571693479794        0.01091122933337
C           -2.84213612578569       -4.90893898996265        0.00580956327551
C           -4.95681671639330       -3.68992034454347        0.00658503910213
C           -7.07051307259537       -2.44965249050732        0.00605538897399
C           -0.70139633386130       -3.68050508062866        0.00166143989211
C           -2.82746106263441       -2.45349329144073        0.00287626726313
C           -4.94307834276490       -1.23326095908633        0.00250311685206
C           -7.06652336040736       -0.02970204305088        0.00076686421331
C           -7.89673576846768       -6.09102592460041        0.01407717348700
C           -5.66916406257138       -4.92516779042785        0.00938020907997
C           -7.76076047198176       -3.68235793031010        0.00916403295850
C           -3.54264097047004       -3.68164702369420        0.00510896452064
C           -5.64717981647393       -2.45668652080872        0.00507440899625
C           -7.75160357461190       -1.24407753338909        0.00380552872284
C            1.42358792069253       -2.45611123126366       -0.00127314645148
C           -7.11350063566480        2.40720582568950       -0.00534500618743
C            1.46322518005134        7.32662738572151        0.00944668622974
C           -0.70482769914316       -1.22876948699459        0.00038340028154
C            7.76075845374815        3.68236213246955        0.00824894995186
C           -2.82627983932532        0.00260280342814        0.00008514562351
C            5.66916010850195        4.92516705586214        0.01048434002545
C           -4.95845488200141        1.23024999934535       -0.00198801377013
C            3.56793338821487        6.12838017087098        0.01098824134426
C            3.53883791042739       -1.23092202581283       -0.00220144244439
C           -4.98603873317563        3.68926064537074       -0.00702864143039
C            1.41404866866776       -0.00013728834937       -0.00020135022033
C           -7.11706879435946        4.99284453279064       -0.01353512879002
C           -0.71313990320357        1.23269389094653       -0.00032677818489
C            7.89673115540659        6.09102498174541        0.01541035554534
C           -2.84592685336342        2.45995504513851       -0.00267454996896
C            5.64765226931331        0.00946399490781       -0.00116735297229
C           -2.84686026915741        4.91664491778371       -0.00568600586313
C            3.52527761242403        1.22959148010455        0.00132153299415
C           -4.97809014700797        6.16100118217488       -0.01345328778330
C            1.40950957398576        2.45435403325092        0.00165287376706
C           -7.05893330603526        7.41266759324281       -0.02228501223264
C           -0.71083650901144        3.68123556588423       -0.00037268790076
C            7.75160295463300        1.24408511453634        0.00125633167862
C           -0.71060725129944        6.12938250467682       -0.00043001339014
C            5.64717863201841        2.45668918592416        0.00433029332977
C           -2.79871310684043        7.33492756560013       -0.00853652220077
C            3.54263891278622        3.68164630884713        0.00564037482051
C            1.42066147151377        4.90946479939786        0.00439462245434
C           -1.40951019525213       -2.45435521331224        0.00160147511281
C            7.07051214325902        2.44965748680772        0.00458456891651
C           -1.43717478761104        7.32996382681897       -0.00403353742720
C           -3.52527821275539       -1.22959075976517        0.00179758379837
C            4.95681459833443        3.68992071989873        0.00688228786225
C           -5.64765259904185       -0.00945968436599        0.00044135564438
C            2.84213309471985        4.90893691453582        0.00709854633411
C           -7.75691430993340        1.19450515278221       -0.00228904526227
C            0.71947944616754        6.12898650400178        0.00442919783637
C            0.71313976624204       -1.23269495452411       -0.00045085726211
C           -1.41404890808384        0.00013641118259       -0.00003606589071
C            7.11075316458123        4.88571767251402        0.01140594117160
C           -3.53883778276758        1.23092309712330       -0.00157877624320
C            4.99275126136643        6.15331869292602        0.01306337401765
C           -5.68159751026566        2.44629912018300       -0.00479978493737
C            2.82233178974761        7.32599079588702        0.01274127793397
C            2.82627960480688       -0.00260230442110       -0.00040952443976
C           -5.69694321135425        4.94457738037994       -0.01123732560166
C            0.70482746100959        1.22876841212735        0.00032372606490
C           -7.76543283612271        6.22234562236053       -0.01883591317791
C           -1.42358748838998        2.45611034764957       -0.00120392489196
C            7.34024758655089        7.31657793245664        0.01856136288965
C           -3.57211608018788        3.68495785627040       -0.00527451972281
C            4.94307777375742        1.23326372421180        0.00152177056028
C           -3.54009751819474        6.14311631279101       -0.00933140609461
C            2.82746021407486        2.45349313492463        0.00284682179946
C           -5.68589285885078        7.37365019749469       -0.01949207964379
C            0.70139607137627        3.68050369410169        0.00177814023088
C           -1.42507123046895        4.91087347686663       -0.00207615596493
H           -3.34417956327240       -8.26593651650144        0.01079440712725
H            0.92712797059018       -8.27821870124546        0.00179912335740
H            5.15744825589913       -8.31242371120233       -0.01739508770988
H           -5.35185817872296       -8.53965557621047        0.01568118115415
H           -0.95893367441387       -8.27843161134855        0.00670263818034
H            3.29637280211738       -8.28965878505775       -0.00414840393468
H            8.84546855536940       -6.23811044858419       -0.02048307804299
H            8.83752167879441       -1.17101932917355       -0.00648883260916
H            7.57574415142498       -8.36135385923137       -0.02331397885179
H           -8.00590080943089       -8.17171243320465        0.01804813630114
H           -8.97250732998062       -5.95036207147179        0.01511033745371
H           -8.84246608793662       -3.65612998957450        0.01011957434282
H           -8.83253568097455       -1.23875215762202        0.00428490680239
H            0.95891878664133        8.27842109152838        0.01118237181544
H            8.84246447595028        3.65613608726704        0.00863715517778
H            8.97250337434403        5.95036300370432        0.01582440916905
H            5.35184849166451        8.53964424307547        0.02099833741575
H           -7.57573790529047        8.36134262487404       -0.02695757492536
H            8.83253515899455        1.23876143484972        0.00104839139411
H           -3.29635201418215        8.28965639304064       -0.01111381772425
H           -0.92710871057886        8.27821553652961       -0.00376588285908
H           -8.83752293588914        1.17103043426469       -0.00242084502932
H            3.34416541882732        8.26592617698553        0.01660016473438
H           -8.84546691825966        6.23810994144843       -0.02049093161515
H            8.00589347014987        8.17170621064418        0.02158517037686
H           -5.15743937378616        8.31241179293160       -0.02232084475195
H            9.10272972403150       -3.69414111020580       -0.01429427128690
H           -9.10273154558801        3.69415219474814       -0.01052197599300
B            7.93194260542955       -3.70057190144267       -0.01228733695261
B           -5.81875725599564       -7.46558494349848        0.01404014932701
B           -7.93194288354534        3.70057934393430       -0.00982305064579
B            5.81874968460671        7.46557795287194        0.01782669653451
 
 Bond Distances (Angstroems)
 ---------------------------
C1-C7=1.3591         C1-C8=1.4107         C1-H101=1.0751       C2-C9=1.3616         C2-C10=1.4033        C2-H102=1.0767       
C3-C7=1.4098         C3-C10=1.4301        C3-C11=1.4067        C4-C17=1.3736        C4-C18=1.4041        C4-H103=1.0773       
C5-C9=1.4036         C5-C18=1.4381        C5-C19=1.4088        C6-C10=1.4125        C6-C19=1.4218        C6-C20=1.4220        
C7-C1=1.3591         C7-C3=1.4098         C7-H105=1.0771       C8-C1=1.4107         C8-C28=1.4250        C8-C30=1.4191        
C9-C2=1.3616         C9-C5=1.4036         C9-H106=1.0766       C10-C2=1.4033        C10-C3=1.4301        C10-C6=1.4125        
C11-C3=1.4067        C11-C30=1.4215       C11-C33=1.4240       C12-C17=1.3842       C12-C21=1.3900       C12-H107=1.0802      
C13-C18=1.4130       C13-C21=1.4209       C13-C22=1.4426       C14-C19=1.4294       C14-C22=1.4139       C14-C23=1.4241       
C15-C22=1.4243       C15-C24=1.4324       C15-C25=1.4148       C16-C24=1.3728       C16-C26=1.4055       C16-H108=1.0809      
C17-C4=1.3736        C17-C12=1.3842       C17-H109=1.0803      C18-C4=1.4041        C18-C5=1.4381        C18-C13=1.4130       
C19-C5=1.4088        C19-C6=1.4218        C19-C14=1.4294       C20-C6=1.4220        C20-C33=1.4122       C20-C43=1.4174       
C21-C12=1.3900       C21-C13=1.4209       C21-B129=1.5277      C22-C13=1.4426       C22-C14=1.4139       C22-C15=1.4243       
C23-C14=1.4241       C23-C43=1.4223       C23-C52=1.4109       C24-C15=1.4324       C24-C16=1.3728       C24-B129=1.5306      
C25-C15=1.4148       C25-C52=1.4196       C25-C59=1.4184       C26-C16=1.4055       C26-C59=1.4190       C26-C66=1.3943       
C27-C37=1.3460       C27-H110=1.0837      C27-B130=1.5288      C28-C8=1.4250        C28-C38=1.4021       C28-B130=1.5506      
C29-C37=1.4389       C29-C38=1.4421       C29-C39=1.3677       C30-C8=1.4191        C30-C11=1.4215       C30-C40=1.4131       
C31-C38=1.4259       C31-C40=1.4142       C31-C41=1.4133       C32-C39=1.4128       C32-C41=1.4234       C32-C42=1.3847       
C33-C11=1.4240       C33-C20=1.4122       C33-C72=1.4159       C34-C40=1.4212       C34-C72=1.4180       C34-C75=1.4089       
C35-C41=1.4116       C35-C75=1.4178       C35-C77=1.4121       C36-C42=1.3943       C36-C77=1.4190       C36-C79=1.4055       
C37-C27=1.3460       C37-C29=1.4389       C37-H111=1.0849      C38-C28=1.4021       C38-C29=1.4421       C38-C31=1.4259       
C39-C29=1.3677       C39-C32=1.4128       C39-H112=1.0820      C40-C30=1.4131       C40-C31=1.4142       C40-C34=1.4212       
C41-C31=1.4133       C41-C32=1.4234       C41-C35=1.4116       C42-C32=1.3847       C42-C36=1.3943       C42-H113=1.0809      
C43-C20=1.4174       C43-C23=1.4223       C43-C81=1.4147       C44-C79=1.3728       C44-C86=1.4324       C44-B131=1.5306      
C45-C80=1.4098       C45-C87=1.3591       C45-H114=1.0771      C46-C72=1.4137       C46-C81=1.4180       C46-C82=1.4189       
C47-C73=1.4128       C47-C83=1.3677       C47-H115=1.0820      C48-C75=1.4167       C48-C82=1.4122       C48-C84=1.4200       
C49-C76=1.4259       C49-C83=1.4421       C49-C85=1.4021       C50-C77=1.4184       C50-C84=1.4196       C50-C86=1.4148       
C51-C78=1.4191       C51-C85=1.4250       C51-C87=1.4107       C52-C23=1.4109       C52-C25=1.4196       C52-C88=1.4200       
C53-C86=1.4243       C53-C89=1.4426       C53-C94=1.4139       C54-C81=1.4179       C54-C88=1.4122       C54-C90=1.4189       
C55-C89=1.4209       C55-C91=1.3900       C55-B131=1.5277      C56-C82=1.4179       C56-C90=1.4180       C56-C92=1.4147       
C57-C83=1.4389       C57-C93=1.3460       C57-H116=1.0849      C58-C84=1.4109       C58-C92=1.4223       C58-C94=1.4241       
C59-C25=1.4184       C59-C26=1.4190       C59-C95=1.4121       C60-C94=1.4294       C60-C96=1.4088       C60-C100=1.4218      
C61-C88=1.4167       C61-C95=1.4178       C61-C97=1.4089       C62-C89=1.4130       C62-C96=1.4381       C62-C98=1.4041       
C63-C90=1.4137       C63-C97=1.4180       C63-C99=1.4159       C64-C91=1.3842       C64-C98=1.3736       C64-H118=1.0803      
C65-C92=1.4174       C65-C99=1.4122       C65-C100=1.4220      C66-C26=1.3943       C66-C73=1.3847       C66-H119=1.0809      
C67-C74=1.4033       C67-C80=1.4301       C67-C100=1.4125      C68-C73=1.4234       C68-C76=1.4133       C68-C95=1.4116       
C69-C74=1.3616       C69-C96=1.4036       C69-H120=1.0766      C70-C76=1.4142       C70-C78=1.4131       C70-C97=1.4212       
C71-C78=1.4215       C71-C80=1.4067       C71-C99=1.4240       C72-C33=1.4159       C72-C34=1.4180       C72-C46=1.4137       
C73-C47=1.4128       C73-C66=1.3847       C73-C68=1.4234       C74-C67=1.4033       C74-C69=1.3616       C74-H121=1.0767      
C75-C34=1.4089       C75-C35=1.4178       C75-C48=1.4167       C76-C49=1.4259       C76-C68=1.4133       C76-C70=1.4142       
C77-C35=1.4121       C77-C36=1.4190       C77-C50=1.4184       C78-C51=1.4191       C78-C70=1.4131       C78-C71=1.4215       
C79-C36=1.4055       C79-C44=1.3728       C79-H122=1.0809      C80-C45=1.4098       C80-C67=1.4301       C80-C71=1.4067       
C81-C43=1.4147       C81-C46=1.4180       C81-C54=1.4179       C82-C46=1.4189       C82-C48=1.4122       C82-C56=1.4179       
C83-C47=1.3677       C83-C49=1.4421       C83-C57=1.4389       C84-C48=1.4200       C84-C50=1.4196       C84-C58=1.4109       
C85-C49=1.4021       C85-C51=1.4250       C85-B132=1.5506      C86-C44=1.4324       C86-C50=1.4148       C86-C53=1.4243       
C87-C45=1.3591       C87-C51=1.4107       C87-H123=1.0751      C88-C52=1.4200       C88-C54=1.4122       C88-C61=1.4167       
C89-C53=1.4426       C89-C55=1.4209       C89-C62=1.4130       C90-C54=1.4189       C90-C56=1.4180       C90-C63=1.4137       
C91-C55=1.3900       C91-C64=1.3842       C91-H124=1.0802      C92-C56=1.4147       C92-C58=1.4223       C92-C65=1.4174       
C93-C57=1.3460       C93-H125=1.0837      C93-B132=1.5288      C94-C53=1.4139       C94-C58=1.4241       C94-C60=1.4294       
C95-C59=1.4121       C95-C61=1.4178       C95-C68=1.4116       C96-C60=1.4088       C96-C62=1.4381       C96-C69=1.4036       
C97-C61=1.4089       C97-C63=1.4180       C97-C70=1.4212       C98-C62=1.4041       C98-C64=1.3736       C98-H126=1.0773      
C99-C63=1.4159       C99-C65=1.4122       C99-C71=1.4240       C100-C60=1.4218      C100-C65=1.4220      C100-C67=1.4125      
H101-C1=1.0751       H102-C2=1.0767       H103-C4=1.0773       H104-B130=1.1712     H105-C7=1.0771       H106-C9=1.0766       
H107-C12=1.0802      H108-C16=1.0809      H109-C17=1.0803      H110-C27=1.0837      H111-C37=1.0849      H112-C39=1.0820      
H113-C42=1.0809      H114-C45=1.0771      H115-C47=1.0820      H116-C57=1.0849      H117-B132=1.1712     H118-C64=1.0803      
H119-C66=1.0809      H120-C69=1.0766      H121-C74=1.0767      H122-C79=1.0809      H123-C87=1.0751      H124-C91=1.0802      
H125-C93=1.0837      H126-C98=1.0773      H127-B129=1.1708     H128-B131=1.1708     B129-C21=1.5277      B129-C24=1.5306      
B129-H127=1.1708     B130-C27=1.5288      B130-C28=1.5506      B130-H104=1.1712     B131-C44=1.5306      B131-C55=1.5277      
B131-H128=1.1708     B132-C85=1.5506      B132-C93=1.5288      B132-H117=1.1712     
 B  H  Rav=1.1710 sigma=0.0002  Rmin=1.1708  Rmax=1.1712     4
 C  H  Rav=1.0796 sigma=0.0029  Rmin=1.0751  Rmax=1.0849    24
 C  B  Rav=1.5344 sigma=0.0094  Rmin=1.5277  Rmax=1.5506     8
 C  C  Rav=1.4113 sigma=0.0188  Rmin=1.3460  Rmax=1.4426   134
 
 selected bond angles (degree)
 --------------------
C8-C1-C7=121.93                H101-C1-C7=119.01              H101-C1-C8=119.06              C10-C2-C9=121.39               
H102-C2-C9=118.07              H102-C2-C10=120.54             C10-C3-C7=121.83               C11-C3-C7=118.26               
C11-C3-C10=119.91              C18-C4-C17=121.90              H103-C4-C17=117.75             H103-C4-C18=120.35             
C18-C5-C9=121.17               C19-C5-C9=118.64               C19-C5-C18=120.19              C19-C6-C10=120.15              
C20-C6-C10=119.46              C20-C6-C19=120.38              C3-C7-C1=121.81                H105-C7-C1=117.94              
H105-C7-C3=120.24              C28-C8-C1=120.90               C30-C8-C1=117.33               C30-C8-C28=121.76              
C5-C9-C2=121.68                H106-C9-C2=117.74              H106-C9-C5=120.59              C3-C10-C2=121.20               
C6-C10-C2=118.43               C6-C10-C3=120.37               
 
 selected dihedral angles (degree)
 ---------------------------------
C3-C7-C1-C8=  0.00            C3-C7-C1-H101=180.00          H105-C7-C1-C8=180.01          H105-C7-C1-H101=  0.00        
C1-C7-C3-C10=180.02           C1-C7-C3-C11=  0.00           H105-C7-C3-C10=  0.03         H105-C7-C3-C11=180.02         
C28-C8-C1-C7=179.98           C28-C8-C1-H101=  0.00         C30-C8-C1-C7=  0.00           C30-C8-C1-H101=179.99         
C5-C9-C2-C10=  0.00           C5-C9-C2-H102=180.00          H106-C9-C2-C10=179.99         H106-C9-C2-H102=  0.00        
C2-C9-C5-C18=180.03           C2-C9-C5-C19=  0.05           H106-C9-C5-C18=  0.05         H106-C9-C5-C19=180.07         
C3-C10-C2-C9=179.96           C3-C10-C2-H102=359.97         C6-C10-C2-C9=359.96           C6-C10-C2-H102=179.97         
C2-C10-C3-C7=  0.03           C2-C10-C3-C11=180.04          C6-C10-C3-C7=180.03           C6-C10-C3-C11=  0.04          
C2-C10-C6-C19=  0.00          C2-C10-C6-C20=180.00          C3-C10-C6-C19=180.01          C3-C10-C6-C20=  0.00          
           -------------------------------------------------
          |                Final Singlepoint                |
           -------------------------------------------------

          ...................................................
          :                      SETUP                      :
          :.................................................:
          :  # basis functions                 444          :
          :  # atomic orbitals                 444          :
          :  # shells                          236          :
          :  # electrons                       440          :
          :  max. iterations                   250          :
          :  Hamiltonian                  GFN2-xTB          :
          :  restarted?                      false          :
          :  GBSA solvation                  false          :
          :  PC potential                    false          :
          :  electronic temp.          300.0000000     K    :
          :  accuracy                    1.0000000          :
          :  -> integral cutoff          0.2500000E+02      :
          :  -> integral neglect         0.1000000E-07      :
          :  -> SCF convergence          0.1000000E-05 Eh   :
          :  -> wf. convergence          0.1000000E-03 e    :
          :  Broyden damping             0.4000000          :
          :  net charge                          0          :
          :  unpaired electrons                  0          :
          ...................................................

 iter      E             dE          RMSdq      gap      omega  full diag
   1   -238.6469588 -0.238647E+03  0.582E-05    0.99       0.0  T
   2   -238.6469588  0.139522E-09  0.567E-05    0.99     153.5  T
   3   -238.6469588 -0.585800E-09  0.193E-05    0.99     451.9  T

   *** convergence criteria satisfied after 3 iterations ***

         #    Occupation            Energy/Eh            Energy/eV
      -------------------------------------------------------------
         1        2.0000           -0.6663401             -18.1320
       ...           ...                  ...                  ...
       214        2.0000           -0.3814733             -10.3804
       215        2.0000           -0.3812302             -10.3738
       216        2.0000           -0.3776542             -10.2765
       217        2.0000           -0.3766086             -10.2480
       218        2.0000           -0.3700143             -10.0686
       219        2.0000           -0.3596926              -9.7877
       220        2.0000           -0.3516839              -9.5698 (HOMO)
       221                         -0.3151321              -8.5752 (LUMO)
       222                         -0.3042503              -8.2791
       223                         -0.3040434              -8.2734
       224                         -0.2950046              -8.0275
       225                         -0.2827918              -7.6952
       ...                                ...                  ...
       444                          0.7795004              21.2113
      -------------------------------------------------------------
                  HL-Gap            0.0365518 Eh            0.9946 eV
             Fermi-level           -0.3334079 Eh           -9.0725 eV

 SCC (total)                   0 d,  0 h,  0 min,  0.424 sec
 SCC setup                      ...        0 min,  0.002 sec (  0.472%)
 Dispersion                     ...        0 min,  0.005 sec (  1.179%)
 classical contributions        ...        0 min,  0.001 sec (  0.236%)
 integral evaluation            ...        0 min,  0.044 sec ( 10.377%)
 iterations                     ...        0 min,  0.181 sec ( 42.689%)
 molecular gradient             ...        0 min,  0.186 sec ( 43.868%)
 printout                       ...        0 min,  0.005 sec (  1.179%)

         :::::::::::::::::::::::::::::::::::::::::::::::::::::
         ::                     SUMMARY                     ::
         :::::::::::::::::::::::::::::::::::::::::::::::::::::
         :: total energy            -234.083481542329 Eh    ::
         :: gradient norm              0.000489161716 Eh/a0 ::
         :: HOMO-LUMO gap              0.994624813141 eV    ::
         ::.................................................::
         :: SCC energy              -238.654841857876 Eh    ::
         :: -> isotropic ES            0.079996958898 Eh    ::
         :: -> anisotropic ES          0.020302703858 Eh    ::
         :: -> anisotropic XC          0.085602400843 Eh    ::
         :: -> dispersion             -0.287042664852 Eh    ::
         :: repulsion energy           4.571360315546 Eh    ::
         :: add. restraining           0.000000000000 Eh    ::
         :: total charge               0.000000000002 e     ::
         :::::::::::::::::::::::::::::::::::::::::::::::::::::

           -------------------------------------------------
          |                Property Printout                |
           -------------------------------------------------

    * Orbital Energies and Occupations

         #    Occupation            Energy/Eh            Energy/eV
      -------------------------------------------------------------
         1        2.0000           -0.6663401             -18.1320
       ...           ...                  ...                  ...
       208        2.0000           -0.3897696             -10.6062
       209        2.0000           -0.3873098             -10.5392
       210        2.0000           -0.3850203             -10.4769
       211        2.0000           -0.3833320             -10.4310
       212        2.0000           -0.3820826             -10.3970
       213        2.0000           -0.3819888             -10.3944
       214        2.0000           -0.3814733             -10.3804
       215        2.0000           -0.3812302             -10.3738
       216        2.0000           -0.3776542             -10.2765
       217        2.0000           -0.3766086             -10.2480
       218        2.0000           -0.3700143             -10.0686
       219        2.0000           -0.3596926              -9.7877
       220        2.0000           -0.3516839              -9.5698 (HOMO)
       221                         -0.3151321              -8.5752 (LUMO)
       222                         -0.3042503              -8.2791
       223                         -0.3040434              -8.2734
       224                         -0.2950046              -8.0275
       225                         -0.2827918              -7.6952
       226                         -0.2711457              -7.3782
       227                         -0.2676252              -7.2825
       228                         -0.2634803              -7.1697
       229                         -0.2531290              -6.8880
       230                         -0.2510411              -6.8312
       231                         -0.2435197              -6.6265
       ...                                ...                  ...
       444                          0.7795004              21.2113
      -------------------------------------------------------------
                  HL-Gap            0.0365518 Eh            0.9946 eV
             Fermi-level           -0.3334079 Eh           -9.0725 eV

     #   Z          covCN         q      C6AA      α(0)
     1   6 C        2.919    -0.041    29.007     8.832
     2   6 C        2.919    -0.036    28.904     8.816
     3   6 C        2.982     0.005    27.914     8.667
     4   6 C        2.926    -0.029    28.721     8.789
     5   6 C        2.982     0.006    27.891     8.663
     6   6 C        2.989     0.000    28.009     8.681
     7   6 C        2.917    -0.036    28.891     8.814
     8   6 C        2.980     0.013    27.721     8.637
     9   6 C        2.920    -0.038    28.935     8.821
    10   6 C        2.983     0.005    27.904     8.665
    11   6 C        2.990    -0.000    28.022     8.683
    12   6 C        2.923    -0.024    28.605     8.771
    13   6 C        2.980     0.006    27.880     8.661
    14   6 C        2.981     0.003    27.945     8.671
    15   6 C        2.981     0.004    27.926     8.668
    16   6 C        2.924    -0.027    28.666     8.780
    17   6 C        2.910    -0.032    28.798     8.800
    18   6 C        2.979     0.005    27.902     8.665
    19   6 C        2.987     0.001    28.005     8.681
    20   6 C        2.986     0.000    28.017     8.683
    21   6 C        2.891    -0.071    29.777     8.947
    22   6 C        2.974    -0.004    28.115     8.698
    23   6 C        2.984    -0.001    28.049     8.687
    24   6 C        2.887    -0.071    29.775     8.946
    25   6 C        2.985     0.000    28.020     8.683
    26   6 C        2.980     0.009    27.823     8.652
    27   6 C        2.819    -0.110    30.771     9.089
    28   6 C        2.887    -0.075    29.869     8.960
    29   6 C        2.972     0.008    27.832     8.654
    30   6 C        2.990    -0.000    28.028     8.684
    31   6 C        2.986     0.000    28.019     8.683
    32   6 C        2.979     0.009    27.807     8.650
    33   6 C        2.986     0.000    28.015     8.682
    34   6 C        2.987    -0.001    28.055     8.688
    35   6 C        2.990    -0.000    28.024     8.684
    36   6 C        2.980     0.009    27.823     8.652
    37   6 C        2.909    -0.025    28.633     8.774
    38   6 C        2.982     0.004    27.928     8.669
    39   6 C        2.930    -0.031    28.782     8.798
    40   6 C        2.989     0.004    27.916     8.667
    41   6 C        2.994     0.000    28.017     8.683
    42   6 C        2.927    -0.036    28.902     8.816
    43   6 C        2.985     0.000    28.021     8.683
    44   6 C        2.887    -0.071    29.775     8.946
    45   6 C        2.917    -0.036    28.891     8.814
    46   6 C        2.987    -0.001    28.043     8.687
    47   6 C        2.930    -0.031    28.782     8.798
    48   6 C        2.987    -0.001    28.034     8.685
    49   6 C        2.982     0.004    27.928     8.669
    50   6 C        2.985     0.000    28.020     8.683
    51   6 C        2.980     0.013    27.721     8.637
    52   6 C        2.987    -0.001    28.047     8.687
    53   6 C        2.974    -0.004    28.115     8.698
    54   6 C        2.988     0.001    27.991     8.679
    55   6 C        2.891    -0.071    29.777     8.947
    56   6 C        2.987    -0.001    28.045     8.687
    57   6 C        2.909    -0.025    28.633     8.774
    58   6 C        2.984    -0.001    28.049     8.687
    59   6 C        2.994     0.005    27.898     8.664
    60   6 C        2.987     0.001    28.005     8.681
    61   6 C        2.990    -0.001    28.040     8.686
    62   6 C        2.979     0.005    27.902     8.665
    63   6 C        2.988     0.000    28.017     8.683
    64   6 C        2.910    -0.032    28.798     8.800
    65   6 C        2.986     0.000    28.017     8.683
    66   6 C        2.927    -0.036    28.902     8.816
    67   6 C        2.983     0.005    27.904     8.665
    68   6 C        2.994     0.000    28.017     8.683
    69   6 C        2.920    -0.038    28.935     8.821
    70   6 C        2.989     0.004    27.916     8.667
    71   6 C        2.990    -0.000    28.022     8.683
    72   6 C        2.988     0.000    28.017     8.683
    73   6 C        2.979     0.009    27.807     8.650
    74   6 C        2.919    -0.036    28.904     8.816
    75   6 C        2.990    -0.001    28.040     8.686
    76   6 C        2.986     0.000    28.019     8.683
    77   6 C        2.994     0.005    27.898     8.664
    78   6 C        2.990    -0.000    28.028     8.684
    79   6 C        2.924    -0.027    28.666     8.780
    80   6 C        2.982     0.005    27.914     8.667
    81   6 C        2.987    -0.001    28.045     8.687
    82   6 C        2.988     0.001    27.991     8.679
    83   6 C        2.972     0.008    27.832     8.654
    84   6 C        2.987    -0.001    28.047     8.687
    85   6 C        2.887    -0.075    29.869     8.960
    86   6 C        2.981     0.004    27.926     8.668
    87   6 C        2.919    -0.041    29.007     8.832
    88   6 C        2.987    -0.001    28.034     8.685
    89   6 C        2.980     0.006    27.880     8.661
    90   6 C        2.987    -0.001    28.043     8.687
    91   6 C        2.923    -0.024    28.605     8.771
    92   6 C        2.985     0.000    28.021     8.683
    93   6 C        2.819    -0.110    30.771     9.089
    94   6 C        2.981     0.003    27.945     8.671
    95   6 C        2.990    -0.000    28.024     8.684
    96   6 C        2.982     0.006    27.891     8.663
    97   6 C        2.987    -0.001    28.055     8.689
    98   6 C        2.926    -0.029    28.721     8.789
    99   6 C        2.986     0.000    28.015     8.682
   100   6 C        2.989     0.000    28.009     8.681
   101   1 H        0.926     0.046     2.369     2.407
   102   1 H        0.926     0.036     2.507     2.476
   103   1 H        0.926     0.034     2.529     2.487
   104   1 H        0.939    -0.110     5.936     3.809
   105   1 H        0.926     0.034     2.524     2.484
   106   1 H        0.926     0.034     2.525     2.485
   107   1 H        0.926     0.034     2.534     2.490
   108   1 H        0.926     0.036     2.497     2.471
   109   1 H        0.926     0.028     2.608     2.525
   110   1 H        0.925     0.018     2.762     2.599
   111   1 H        0.925     0.022     2.701     2.570
   112   1 H        0.925     0.035     2.510     2.477
   113   1 H        0.926     0.037     2.495     2.470
   114   1 H        0.926     0.034     2.524     2.484
   115   1 H        0.925     0.035     2.510     2.477
   116   1 H        0.925     0.022     2.701     2.570
   117   1 H        0.939    -0.110     5.936     3.809
   118   1 H        0.926     0.028     2.608     2.525
   119   1 H        0.926     0.037     2.495     2.470
   120   1 H        0.926     0.034     2.525     2.485
   121   1 H        0.926     0.036     2.507     2.476
   122   1 H        0.926     0.036     2.497     2.471
   123   1 H        0.926     0.046     2.369     2.407
   124   1 H        0.926     0.034     2.534     2.490
   125   1 H        0.925     0.018     2.762     2.599
   126   1 H        0.926     0.034     2.529     2.487
   127   1 H        0.939    -0.105     5.718     3.739
   128   1 H        0.939    -0.105     5.718     3.739
   129   5 B        2.759     0.213    18.140     7.126
   130   5 B        2.755     0.211    18.168     7.133
   131   5 B        2.759     0.213    18.140     7.126
   132   5 B        2.755     0.211    18.168     7.133

 Mol. C6AA /au·bohr⁶  :     356435.004527
 Mol. C8AA /au·bohr⁸  :    9831730.625743
 Mol. α(0) /au        :        976.263646


Wiberg/Mayer (AO) data.
largest (>0.10) Wiberg bond orders for each atom

 ---------------------------------------------------------------------------
     #   Z sym  total        # sym  WBO       # sym  WBO       # sym  WBO
 ---------------------------------------------------------------------------
     1   6 C    3.952 --     7 C    1.571     8 C    1.264   101 H    0.960
     2   6 C    3.961 --     9 C    1.537    10 C    1.297   102 H    0.959
     3   6 C    3.948 --    11 C    1.297     7 C    1.272    10 C    1.184
     4   6 C    3.974 --    17 C    1.482    18 C    1.332   103 H    0.959
     5   6 C    3.960 --    19 C    1.302     9 C    1.301    18 C    1.155
     6   6 C    3.976 --    10 C    1.281    19 C    1.248    20 C    1.223
     7   6 C    3.970 --     1 C    1.571     3 C    1.272   105 H    0.959
     8   6 C    3.966 --     1 C    1.264    30 C    1.256    28 C    1.249
     9   6 C    3.965 --     2 C    1.537     5 C    1.301   106 H    0.958
    10   6 C    3.959 --     2 C    1.297     6 C    1.281     3 C    1.184
    11   6 C    3.980 --     3 C    1.297    30 C    1.239    33 C    1.217
    12   6 C    3.970 --    21 C    1.420    17 C    1.398   107 H    0.970
    13   6 C    3.974 --    18 C    1.294    21 C    1.278    22 C    1.180
    14   6 C    3.970 --    22 C    1.305    23 C    1.236    19 C    1.204
    15   6 C    3.946 --    25 C    1.279    22 C    1.248    24 C    1.207
    16   6 C    3.942 --    24 C    1.508    26 C    1.258   108 H    0.966
    17   6 C    3.977 --     4 C    1.482    12 C    1.398   109 H    0.970
    18   6 C    3.974 --     4 C    1.332    13 C    1.294     5 C    1.155
    19   6 C    3.983 --     5 C    1.302     6 C    1.248    14 C    1.204
    20   6 C    3.962 --    33 C    1.277    43 C    1.243     6 C    1.223
    21   6 C    3.952 --    12 C    1.420    13 C    1.278   129 B    1.075
    22   6 C    3.952 --    14 C    1.305    15 C    1.248    13 C    1.180
    23   6 C    3.965 --    52 C    1.276    14 C    1.236    43 C    1.233
    24   6 C    3.937 --    16 C    1.508    15 C    1.207   129 B    1.063
    25   6 C    3.975 --    15 C    1.279    59 C    1.246    52 C    1.231
    26   6 C    3.973 --    66 C    1.332    16 C    1.258    59 C    1.223
    27   6 C    3.933 --    37 C    1.737   130 B    1.097   110 H    0.972
    28   6 C    3.887 --    38 C    1.372     8 C    1.249   130 B    1.064
    29   6 C    3.971 --    39 C    1.521    38 C    1.153    37 C    1.144
    30   6 C    3.977 --     8 C    1.256    40 C    1.255    11 C    1.239
    31   6 C    3.968 --    40 C    1.261    41 C    1.260    38 C    1.229
    32   6 C    3.975 --    42 C    1.387    39 C    1.230    41 C    1.202
    33   6 C    3.960 --    20 C    1.277    72 C    1.248    11 C    1.217
    34   6 C    3.963 --    75 C    1.279    72 C    1.237    40 C    1.228
    35   6 C    3.979 --    41 C    1.271    77 C    1.263    75 C    1.223
    36   6 C    3.973 --    42 C    1.332    79 C    1.258    77 C    1.223
    37   6 C    3.976 --    27 C    1.737    29 C    1.144   111 H    0.964
    38   6 C    3.970 --    28 C    1.372    31 C    1.229    29 C    1.153
    39   6 C    3.970 --    29 C    1.521    32 C    1.230   112 H    0.964
    40   6 C    3.977 --    31 C    1.261    30 C    1.255    34 C    1.228
    41   6 C    3.963 --    35 C    1.271    31 C    1.260    32 C    1.202
    42   6 C    3.896 --    32 C    1.387    36 C    1.332   113 H    0.965
    43   6 C    3.956 --    81 C    1.267    20 C    1.243    23 C    1.233
    44   6 C    3.937 --    79 C    1.508    86 C    1.207   131 B    1.063
    45   6 C    3.970 --    87 C    1.571    80 C    1.272   114 H    0.959
    46   6 C    3.964 --    72 C    1.261    82 C    1.243    81 C    1.242
    47   6 C    3.970 --    83 C    1.521    73 C    1.230   115 H    0.964
    48   6 C    3.961 --    82 C    1.265    75 C    1.242    84 C    1.238
    49   6 C    3.970 --    85 C    1.372    76 C    1.229    83 C    1.153
    50   6 C    3.975 --    86 C    1.279    77 C    1.246    84 C    1.231
    51   6 C    3.966 --    87 C    1.264    78 C    1.256    85 C    1.249
    52   6 C    3.965 --    23 C    1.276    88 C    1.238    25 C    1.231
    53   6 C    3.952 --    94 C    1.305    86 C    1.248    89 C    1.180
    54   6 C    3.960 --    88 C    1.265    90 C    1.243    81 C    1.237
    55   6 C    3.952 --    91 C    1.420    89 C    1.278   131 B    1.075
    56   6 C    3.964 --    92 C    1.267    90 C    1.242    82 C    1.237
    57   6 C    3.976 --    93 C    1.737    83 C    1.144   116 H    0.964
    58   6 C    3.965 --    84 C    1.276    94 C    1.236    92 C    1.233
    59   6 C    3.962 --    95 C    1.263    25 C    1.246    26 C    1.223
    60   6 C    3.983 --    96 C    1.302   100 C    1.248    94 C    1.204
    61   6 C    3.962 --    97 C    1.279    88 C    1.242    95 C    1.223
    62   6 C    3.974 --    98 C    1.332    89 C    1.294    96 C    1.155
    63   6 C    3.961 --    90 C    1.261    99 C    1.248    97 C    1.237
    64   6 C    3.977 --    98 C    1.482    91 C    1.398   118 H    0.970
    65   6 C    3.962 --    99 C    1.277    92 C    1.243   100 C    1.223
    66   6 C    3.896 --    73 C    1.387    26 C    1.332   119 H    0.965
    67   6 C    3.959 --    74 C    1.297   100 C    1.281    80 C    1.184
    68   6 C    3.963 --    95 C    1.271    76 C    1.260    73 C    1.202
    69   6 C    3.965 --    74 C    1.537    96 C    1.301   120 H    0.958
    70   6 C    3.977 --    76 C    1.261    78 C    1.255    97 C    1.228
    71   6 C    3.980 --    80 C    1.297    78 C    1.239    99 C    1.217
    72   6 C    3.961 --    46 C    1.261    33 C    1.248    34 C    1.237
    73   6 C    3.975 --    66 C    1.387    47 C    1.230    68 C    1.202
    74   6 C    3.961 --    69 C    1.537    67 C    1.297   121 H    0.959
    75   6 C    3.962 --    34 C    1.279    48 C    1.242    35 C    1.223
    76   6 C    3.968 --    70 C    1.261    68 C    1.260    49 C    1.229
    77   6 C    3.962 --    35 C    1.263    50 C    1.246    36 C    1.223
    78   6 C    3.977 --    51 C    1.256    70 C    1.255    71 C    1.239
    79   6 C    3.942 --    44 C    1.508    36 C    1.258   122 H    0.966
    80   6 C    3.948 --    71 C    1.297    45 C    1.272    67 C    1.184
    81   6 C    3.964 --    43 C    1.267    46 C    1.242    54 C    1.237
    82   6 C    3.960 --    48 C    1.265    46 C    1.243    56 C    1.237
    83   6 C    3.971 --    47 C    1.521    49 C    1.153    57 C    1.144
    84   6 C    3.965 --    58 C    1.276    48 C    1.238    50 C    1.231
    85   6 C    3.887 --    49 C    1.372    51 C    1.249   132 B    1.064
    86   6 C    3.946 --    50 C    1.279    53 C    1.248    44 C    1.207
    87   6 C    3.952 --    45 C    1.571    51 C    1.264   123 H    0.960
    88   6 C    3.961 --    54 C    1.265    61 C    1.242    52 C    1.238
    89   6 C    3.974 --    62 C    1.294    55 C    1.278    53 C    1.180
    90   6 C    3.964 --    63 C    1.261    54 C    1.243    56 C    1.242
    91   6 C    3.970 --    55 C    1.420    64 C    1.398   124 H    0.970
    92   6 C    3.956 --    56 C    1.267    65 C    1.243    58 C    1.233
    93   6 C    3.933 --    57 C    1.737   132 B    1.097   125 H    0.972
    94   6 C    3.970 --    53 C    1.305    58 C    1.236    60 C    1.204
    95   6 C    3.979 --    68 C    1.271    59 C    1.263    61 C    1.223
    96   6 C    3.960 --    60 C    1.302    69 C    1.301    62 C    1.155
    97   6 C    3.963 --    61 C    1.279    63 C    1.237    70 C    1.228
    98   6 C    3.974 --    64 C    1.482    62 C    1.332   126 H    0.959
    99   6 C    3.960 --    65 C    1.277    63 C    1.248    71 C    1.217
   100   6 C    3.976 --    67 C    1.281    60 C    1.248    65 C    1.223
   101   1 H    0.997 --     1 C    0.960
   102   1 H    0.997 --     2 C    0.959
   103   1 H    0.998 --     4 C    0.959
   104   1 H    0.987 --   130 B    0.963
   105   1 H    0.998 --     7 C    0.959
   106   1 H    0.998 --     9 C    0.958
   107   1 H    0.998 --    12 C    0.970
   108   1 H    0.997 --    16 C    0.966
   109   1 H    0.998 --    17 C    0.970
   110   1 H    0.998 --    27 C    0.972
   111   1 H    0.999 --    37 C    0.964
   112   1 H    0.997 --    39 C    0.964
   113   1 H    0.997 --    42 C    0.965
   114   1 H    0.998 --    45 C    0.959
   115   1 H    0.997 --    47 C    0.964
   116   1 H    0.999 --    57 C    0.964
   117   1 H    0.987 --   132 B    0.963
   118   1 H    0.998 --    64 C    0.970
   119   1 H    0.997 --    66 C    0.965
   120   1 H    0.998 --    69 C    0.958
   121   1 H    0.997 --    74 C    0.959
   122   1 H    0.997 --    79 C    0.966
   123   1 H    0.997 --    87 C    0.960
   124   1 H    0.998 --    91 C    0.970
   125   1 H    0.998 --    93 C    0.972
   126   1 H    0.998 --    98 C    0.959
   127   1 H    0.988 --   129 B    0.970
   128   1 H    0.988 --   131 B    0.970
   129   5 B    3.350 --    21 C    1.075    24 C    1.063   127 H    0.970
   130   5 B    3.343 --    27 C    1.097    28 C    1.064   104 H    0.963
   131   5 B    3.350 --    55 C    1.075    44 C    1.063   128 H    0.970
   132   5 B    3.343 --    93 C    1.097    85 C    1.064   117 H    0.963
 ---------------------------------------------------------------------------

Topologies differ in total number of bonds
Writing topology from bond orders to xtbtopo.mol

molecular dipole:
                 x           y           z       tot (Debye)
 q only:        0.000       0.000      -0.003
   full:        0.000       0.000      -0.004       0.010
molecular quadrupole (traceless):
                xx          xy          yy          xz          yz          zz
 q only:        7.566     -23.018       0.863      -0.004      -0.015      -8.429
  q+dip:       35.531     -25.161      20.460      -0.008      -0.029     -55.991
   full:       13.108     -24.565      -2.397       0.001      -0.030     -10.711

           -------------------------------------------------
          |                Geometry Summary                 |
           -------------------------------------------------

      molecular mass/u    :     1272.5400432
   center of mass at/Å    :        0.0000000      -0.0000001       0.0000002
  moments of inertia/u·Å² :        0.2753956E+05   0.3104809E+05   0.5858746E+05
rotational constants/cm⁻¹ :        0.6121243E-03   0.5429523E-03   0.2877345E-03

 * 162 selected distances

     #   Z          #   Z                                           value/Å
     1   6 C        7   6 C                                       1.3591106
     3   6 C        7   6 C                                       1.4097969
     1   6 C        8   6 C                                       1.4107429
     2   6 C        9   6 C                                       1.3615546
     5   6 C        9   6 C                                       1.4035901
     2   6 C       10   6 C                                       1.4033210
     3   6 C       10   6 C                                       1.4300953
     6   6 C       10   6 C                                       1.4125250
     3   6 C       11   6 C                                       1.4067305
     4   6 C       17   6 C                                       1.3735976
    12   6 C       17   6 C                                       1.3842038
     4   6 C       18   6 C                                       1.4041151
    13   6 C       18   6 C                                       1.4129548
     5   6 C       19   6 C                                       1.4088377
     6   6 C       19   6 C                                       1.4218058
    14   6 C       19   6 C                                       1.4293529
     6   6 C       20   6 C                                       1.4220213
    12   6 C       21   6 C                                       1.3899918
    13   6 C       21   6 C                                       1.4209476
    14   6 C       22   6 C                                       1.4139307
    15   6 C       22   6 C                                       1.4243457
    14   6 C       23   6 C                                       1.4240751
    15   6 C       24   6 C                                       1.4324370
    16   6 C       24   6 C                                       1.3728196
    15   6 C       25   6 C                                       1.4148211
    16   6 C       26   6 C                                       1.4054652
     8   6 C       28   6 C                                       1.4250376
     8   6 C       30   6 C                                       1.4190996
    11   6 C       30   6 C                                       1.4214748
    11   6 C       33   6 C                                       1.4239720
    20   6 C       33   6 C                                       1.4122349
    27   6 C       37   6 C                                       1.3459807
    28   6 C       38   6 C                                       1.4021026
    31   6 C       38   6 C                                       1.4259324
    29   6 C       39   6 C                                       1.3676920
    32   6 C       39   6 C                                       1.4128037
    30   6 C       40   6 C                                       1.4131360
    31   6 C       40   6 C                                       1.4142008
    34   6 C       40   6 C                                       1.4212140
    31   6 C       41   6 C                                       1.4133186
    32   6 C       41   6 C                                       1.4233511
    35   6 C       41   6 C                                       1.4115722
    32   6 C       42   6 C                                       1.3846663
    36   6 C       42   6 C                                       1.3942928
    20   6 C       43   6 C                                       1.4173736
    23   6 C       43   6 C                                       1.4223458
    23   6 C       52   6 C                                       1.4109029
    25   6 C       52   6 C                                       1.4196176
    25   6 C       59   6 C                                       1.4184076
    26   6 C       59   6 C                                       1.4190153
    26   6 C       66   6 C                                       1.3942929
    33   6 C       72   6 C                                       1.4159340
    34   6 C       72   6 C                                       1.4179518
    46   6 C       72   6 C                                       1.4137325
    47   6 C       73   6 C                                       1.4128038
    66   6 C       73   6 C                                       1.3846663
    68   6 C       73   6 C                                       1.4233510
    67   6 C       74   6 C                                       1.4033208
    69   6 C       74   6 C                                       1.3615549
    34   6 C       75   6 C                                       1.4088604
    35   6 C       75   6 C                                       1.4178052
    48   6 C       75   6 C                                       1.4166520
    49   6 C       76   6 C                                       1.4259323
    68   6 C       76   6 C                                       1.4133186
    70   6 C       76   6 C                                       1.4142006
    35   6 C       77   6 C                                       1.4121328
    36   6 C       77   6 C                                       1.4190153
    50   6 C       77   6 C                                       1.4184075
    51   6 C       78   6 C                                       1.4190995
    70   6 C       78   6 C                                       1.4131359
    71   6 C       78   6 C                                       1.4214744
    36   6 C       79   6 C                                       1.4054653
    44   6 C       79   6 C                                       1.3728196
    45   6 C       80   6 C                                       1.4097968
    67   6 C       80   6 C                                       1.4300951
    71   6 C       80   6 C                                       1.4067302
    43   6 C       81   6 C                                       1.4147385
    46   6 C       81   6 C                                       1.4179733
    54   6 C       81   6 C                                       1.4179112
    46   6 C       82   6 C                                       1.4188745
    48   6 C       82   6 C                                       1.4122332
    56   6 C       82   6 C                                       1.4179111
    47   6 C       83   6 C                                       1.3676921
    48   6 C       84   6 C                                       1.4200397
    50   6 C       84   6 C                                       1.4196174
    58   6 C       84   6 C                                       1.4109028
    49   6 C       85   6 C                                       1.4021028
    51   6 C       85   6 C                                       1.4250377
    44   6 C       86   6 C                                       1.4324369
    50   6 C       86   6 C                                       1.4148212
    53   6 C       86   6 C                                       1.4243457
    45   6 C       87   6 C                                       1.3591109
    51   6 C       87   6 C                                       1.4107432
    52   6 C       88   6 C                                       1.4200395
    54   6 C       88   6 C                                       1.4122332
    61   6 C       88   6 C                                       1.4166521
    55   6 C       89   6 C                                       1.4209476
    62   6 C       89   6 C                                       1.4129550
    54   6 C       90   6 C                                       1.4188744
    56   6 C       90   6 C                                       1.4179731
    63   6 C       90   6 C                                       1.4137323
    55   6 C       91   6 C                                       1.3899918
    64   6 C       91   6 C                                       1.3842038
    56   6 C       92   6 C                                       1.4147384
    58   6 C       92   6 C                                       1.4223455
    65   6 C       92   6 C                                       1.4173732
    57   6 C       93   6 C                                       1.3459808
    53   6 C       94   6 C                                       1.4139304
    58   6 C       94   6 C                                       1.4240751
    60   6 C       94   6 C                                       1.4293528
    59   6 C       95   6 C                                       1.4121326
    61   6 C       95   6 C                                       1.4178051
    68   6 C       95   6 C                                       1.4115722
    60   6 C       96   6 C                                       1.4088377
    69   6 C       96   6 C                                       1.4035904
    61   6 C       97   6 C                                       1.4088602
    63   6 C       97   6 C                                       1.4179515
    70   6 C       97   6 C                                       1.4212139
    62   6 C       98   6 C                                       1.4041151
    64   6 C       98   6 C                                       1.3735977
    63   6 C       99   6 C                                       1.4159337
    65   6 C       99   6 C                                       1.4122345
    71   6 C       99   6 C                                       1.4239717
    60   6 C      100   6 C                                       1.4218055
    65   6 C      100   6 C                                       1.4220211
    67   6 C      100   6 C                                       1.4125247
     1   6 C      101   1 H                                       1.0750832 (min)
     2   6 C      102   1 H                                       1.0767305
     4   6 C      103   1 H                                       1.0772858
     7   6 C      105   1 H                                       1.0771439
     9   6 C      106   1 H                                       1.0766422
    12   6 C      107   1 H                                       1.0801505
    16   6 C      108   1 H                                       1.0808637
    17   6 C      109   1 H                                       1.0803209
    27   6 C      110   1 H                                       1.0836688
    37   6 C      111   1 H                                       1.0849295
    39   6 C      112   1 H                                       1.0820241
    42   6 C      113   1 H                                       1.0809454
    45   6 C      114   1 H                                       1.0771441
    47   6 C      115   1 H                                       1.0820241
    57   6 C      116   1 H                                       1.0849295
    64   6 C      118   1 H                                       1.0803210
    66   6 C      119   1 H                                       1.0809454
    69   6 C      120   1 H                                       1.0766422
    74   6 C      121   1 H                                       1.0767307
    79   6 C      122   1 H                                       1.0808637
    87   6 C      123   1 H                                       1.0750832
    91   6 C      124   1 H                                       1.0801505
    93   6 C      125   1 H                                       1.0836688
    98   6 C      126   1 H                                       1.0772858
    21   6 C      129   5 B                                       1.5277378
    24   6 C      129   5 B                                       1.5305826
   127   1 H      129   5 B                                       1.1708066
    27   6 C      130   5 B                                       1.5287765
    28   6 C      130   5 B                                       1.5505874 (max)
   104   1 H      130   5 B                                       1.1711641
    44   6 C      131   5 B                                       1.5305827
    55   6 C      131   5 B                                       1.5277380
   128   1 H      131   5 B                                       1.1708066
    85   6 C      132   5 B                                       1.5505873
    93   6 C      132   5 B                                       1.5287766
   117   1 H      132   5 B                                       1.1711641

 * 4 distinct bonds (by element types)

   Z      Z             #   av. dist./Å        max./Å        min./Å
   1 H    5 B           4     1.1709854     1.1711641     1.1708066
   1 H    6 C          24     1.0796491     1.0849295     1.0750832
   5 B    6 C           8     1.5344211     1.5505874     1.5277378
   6 C    6 C         126     1.4094884     1.4324370     1.3459807


optimized geometry written to: xtbopt.xyz


           -------------------------------------------------
          | TOTAL ENERGY             -234.083481542329 Eh   |
          | GRADIENT NORM               0.000489161716 Eh/α |
          | HOMO-LUMO GAP               0.994624813141 eV   |
           -------------------------------------------------

------------------------------------------------------------------------
 * finished run on 2025/12/08 at 00:32:22.536     
------------------------------------------------------------------------
 total:
 * wall-time:     0 d,  0 h,  0 min,  5.306 sec
 *  cpu-time:     0 d,  0 h,  0 min, 20.766 sec
 * ratio c/w:     3.914 speedup
 SCF:
 * wall-time:     0 d,  0 h,  0 min,  1.028 sec
 *  cpu-time:     0 d,  0 h,  0 min,  4.109 sec
 * ratio c/w:     3.997 speedup
 ANC optimizer:
 * wall-time:     0 d,  0 h,  0 min,  4.149 sec
 *  cpu-time:     0 d,  0 h,  0 min, 16.281 sec
 * ratio c/w:     3.924 speedup

normal termination of xtb
