      -----------------------------------------------------------      
     |                   =====================                   |     
     |                           x T B                           |     
     |                   =====================                   |     
     |                         S. Grimme                         |     
     |          Mulliken Center for Theoretical Chemistry        |     
     |                    University of Bonn                     |     
      -----------------------------------------------------------      

   * xtb version 6.7.1pre (5071a88) compiled by 'Marcel@Raven' on 2024-07-23

   xtb is free software: you can redistribute it and/or modify it under
   the terms of the GNU Lesser General Public License as published by
   the Free Software Foundation, either version 3 of the License, or
   (at your option) any later version.
   
   xtb is distributed in the hope that it will be useful,
   but WITHOUT ANY WARRANTY; without even the implied warranty of
   MERCHANTABILITY or FITNESS FOR A PARTICULAR PURPOSE.  See the
   GNU Lesser General Public License for more details.
   
   Cite this work as:
   * C. Bannwarth, E. Caldeweyher, S. Ehlert, A. Hansen, P. Pracht,
     J. Seibert, S. Spicher, S. Grimme, WIREs Comput. Mol. Sci., 2020, 11,
     e01493. DOI: 10.1002/wcms.1493
   
   for GFN2-xTB:
   * C. Bannwarth, S. Ehlert and S. Grimme., J. Chem. Theory Comput., 2019,
     15, 1652-1671. DOI: 10.1021/acs.jctc.8b01176
   for GFN1-xTB:
   * S. Grimme, C. Bannwarth, P. Shushkov, J. Chem. Theory Comput., 2017,
     13, 1989-2009. DOI: 10.1021/acs.jctc.7b00118
   for GFN0-xTB:
   * P. Pracht, E. Caldeweyher, S. Ehlert, S. Grimme, ChemRxiv, 2019, preprint.
     DOI: 10.26434/chemrxiv.8326202.v1
   for GFN-FF:
   * S. Spicher and S. Grimme, Angew. Chem. Int. Ed., 2020, 59, 15665-15673.
     DOI: 10.1002/anie.202004239
   
   for ALPB and GBSA implicit solvation:
   * S. Ehlert, M. Stahn, S. Spicher, S. Grimme, J. Chem. Theory Comput.,
     2021, 17, 4250-4261. DOI: 10.1021/acs.jctc.1c00471
   
   for ddCOSMO and CPCM-X implicit solvation:
   * M. Stahn, S. Ehlert, S. Grimme, J. Phys. Chem. A,
     2023, XX, XXXX-XXXX. DOI: 10.1021/acs.jpca.3c04382
   
   for DFT-D4:
   * E. Caldeweyher, C. Bannwarth and S. Grimme, J. Chem. Phys., 2017,
     147, 034112. DOI: 10.1063/1.4993215
   * E. Caldeweyher, S. Ehlert, A. Hansen, H. Neugebauer, S. Spicher,
     C. Bannwarth and S. Grimme, J. Chem. Phys., 2019, 150, 154122.
     DOI: 10.1063/1.5090222
   * E. Caldeweyher, J.-M. Mewes, S. Ehlert and S. Grimme, Phys. Chem. Chem. Phys.
     2020, 22, 8499-8512. DOI: 10.1039/D0CP00502A
   
   for sTDA-xTB:
   * S. Grimme and C. Bannwarth, J. Chem. Phys., 2016, 145, 054103.
     DOI: 10.1063/1.4959605
   
   in the mass-spec context:
   * V. Asgeirsson, C. Bauer and S. Grimme, Chem. Sci., 2017, 8, 4879.
     DOI: 10.1039/c7sc00601b
   * J. Koopman and S. Grimme, ACS Omega 2019, 4, 12, 15120-15133.
     DOI: 10.1021/acsomega.9b02011
   
   for metadynamics refer to:
   * S. Grimme, J. Chem. Theory Comput., 2019, 155, 2847-2862
     DOI: 10.1021/acs.jctc.9b00143
   
   for SPH calculations refer to:
   * S. Spicher and S. Grimme, J. Chem. Theory Comput., 2021, 17, 1701-1714
     DOI: 10.1021/acs.jctc.0c01306
   
   for ONIOM refer to:
   * C. Plett, A. Katbashev, S. Ehlert, S. Grimme, M. Bursch,
     Phys. Chem. Chem. Phys., 2023, 25, 17860-17868. DOI: 10.1039/D3CP02178E
   
   for DIPRO refer to:
   * J. Kohn, N. Gildemeister, S. Grimme, D. Fazzi, A. Hansen,
     J. Chem. Phys., 2023, just accepted.
   
   for PTB refer to:
   * S. Grimme, M. Mueller, A. Hansen, J. Chem. Phys., 2023, 158, 124111.
     DOI: 10.1063/5.0137838
   
   with help from (in alphabetical order)
   P. Atkinson, C. Bannwarth, F. Bohle, G. Brandenburg, E. Caldeweyher
   M. Checinski, S. Dohm, S. Ehlert, S. Ehrlich, I. Gerasimov, C. Hölzer
   A. Katbashev, J. Kohn, J. Koopman, C. Lavigne, S. Lehtola, F. März, M. Müller,
   F. Musil, H. Neugebauer, J. Pisarek, C. Plett, P. Pracht, F. Pultar,
   J. Seibert, P. Shushkov, S. Spicher, M. Stahn, M. Steiner, T. Strunk,
   J. Stückrath, T. Rose, and J. Unsleber
   
 * started run on 2025/12/08 at 00:32:22.572     
   ID    Z sym.   atoms
    1    6 C      1-100
    2    1 H      101-128
    3    5 B      129-132

           -------------------------------------------------
          |                Calculation Setup                |
           -------------------------------------------------

          program call               : xtb "C:\Users\LENOVO GAMING\Documents\GitHub\molecular-conductivity-sim\results\1.5nm-4Bdoped-3percent\xtbopt.xyz" --sp
          coordinate file            : C:\Users\LENOVO GAMING\Documents\GitHub\molecular-conductivity-sim\results\1.5nm-4Bdoped-3percent\xtbopt.xyz
          omp threads                :                    16


           -------------------------------------------------
          |                 G F N 2 - x T B                 |
           -------------------------------------------------

        Reference                      10.1021/acs.jctc.8b01176
      * Hamiltonian:
        H0-scaling (s, p, d)           1.850000    2.230000    2.230000
        zeta-weighting                 0.500000
      * Dispersion:
        s8                             2.700000
        a1                             0.520000
        a2                             5.000000
        s9                             5.000000
      * Repulsion:
        kExp                           1.500000    1.000000
        rExp                           1.000000
      * Coulomb:
        alpha                          2.000000
        third order                    shell-resolved
        anisotropic                    true
        a3                             3.000000
        a5                             4.000000
        cn-shift                       1.200000
        cn-exp                         4.000000
        max-rad                        5.000000

q/qsh data taken from xtbrestart
CAMM data taken from xtbrestart

          ...................................................
          :                      SETUP                      :
          :.................................................:
          :  # basis functions                 444          :
          :  # atomic orbitals                 444          :
          :  # shells                          236          :
          :  # electrons                       440          :
          :  max. iterations                   250          :
          :  Hamiltonian                  GFN2-xTB          :
          :  restarted?                       true          :
          :  GBSA solvation                  false          :
          :  PC potential                    false          :
          :  electronic temp.          300.0000000     K    :
          :  accuracy                    1.0000000          :
          :  -> integral cutoff          0.2500000E+02      :
          :  -> integral neglect         0.1000000E-07      :
          :  -> SCF convergence          0.1000000E-05 Eh   :
          :  -> wf. convergence          0.1000000E-03 e    :
          :  Broyden damping             0.4000000          :
          :  net charge                          0          :
          :  unpaired electrons                  0          :
          ...................................................

 iter      E             dE          RMSdq      gap      omega  full diag
   1   -238.6469588 -0.238647E+03  0.146E-05    0.99       0.0  T
   2   -238.6469588  0.235616E-10  0.169E-05    0.99     514.7  T
   3   -238.6469588 -0.464979E-10  0.517E-06    0.99    1683.8  T

   *** convergence criteria satisfied after 3 iterations ***

         #    Occupation            Energy/Eh            Energy/eV
      -------------------------------------------------------------
         1        2.0000           -0.6663401             -18.1320
       ...           ...                  ...                  ...
       214        2.0000           -0.3814733             -10.3804
       215        2.0000           -0.3812302             -10.3738
       216        2.0000           -0.3776543             -10.2765
       217        2.0000           -0.3766086             -10.2480
       218        2.0000           -0.3700144             -10.0686
       219        2.0000           -0.3596926              -9.7877
       220        2.0000           -0.3516839              -9.5698 (HOMO)
       221                         -0.3151321              -8.5752 (LUMO)
       222                         -0.3042502              -8.2791
       223                         -0.3040433              -8.2734
       224                         -0.2950046              -8.0275
       225                         -0.2827919              -7.6952
       ...                                ...                  ...
       444                          0.7795004              21.2113
      -------------------------------------------------------------
                  HL-Gap            0.0365518 Eh            0.9946 eV
             Fermi-level           -0.3334079 Eh           -9.0725 eV

 SCC (total)                   0 d,  0 h,  0 min,  0.282 sec
 SCC setup                      ...        0 min,  0.001 sec (  0.355%)
 Dispersion                     ...        0 min,  0.009 sec (  3.191%)
 classical contributions        ...        0 min,  0.000 sec (  0.000%)
 integral evaluation            ...        0 min,  0.027 sec (  9.575%)
 iterations                     ...        0 min,  0.167 sec ( 59.220%)
 molecular gradient             ...        0 min,  0.073 sec ( 25.887%)
 printout                       ...        0 min,  0.005 sec (  1.773%)

         :::::::::::::::::::::::::::::::::::::::::::::::::::::
         ::                     SUMMARY                     ::
         :::::::::::::::::::::::::::::::::::::::::::::::::::::
         :: total energy            -234.083481542354 Eh    ::
         :: gradient norm              0.000488882129 Eh/a0 ::
         :: HOMO-LUMO gap              0.994624604594 eV    ::
         ::.................................................::
         :: SCC energy              -238.654841857900 Eh    ::
         :: -> isotropic ES            0.079997335127 Eh    ::
         :: -> anisotropic ES          0.020302727822 Eh    ::
         :: -> anisotropic XC          0.085602433115 Eh    ::
         :: -> dispersion             -0.287042659222 Eh    ::
         :: repulsion energy           4.571360315546 Eh    ::
         :: add. restraining           0.000000000000 Eh    ::
         :: total charge               0.000000000002 e     ::
         :::::::::::::::::::::::::::::::::::::::::::::::::::::

           -------------------------------------------------
          |                Property Printout                |
           -------------------------------------------------

    * Orbital Energies and Occupations

         #    Occupation            Energy/Eh            Energy/eV
      -------------------------------------------------------------
         1        2.0000           -0.6663401             -18.1320
       ...           ...                  ...                  ...
       208        2.0000           -0.3897697             -10.6062
       209        2.0000           -0.3873098             -10.5392
       210        2.0000           -0.3850204             -10.4769
       211        2.0000           -0.3833320             -10.4310
       212        2.0000           -0.3820826             -10.3970
       213        2.0000           -0.3819888             -10.3944
       214        2.0000           -0.3814733             -10.3804
       215        2.0000           -0.3812302             -10.3738
       216        2.0000           -0.3776543             -10.2765
       217        2.0000           -0.3766086             -10.2480
       218        2.0000           -0.3700144             -10.0686
       219        2.0000           -0.3596926              -9.7877
       220        2.0000           -0.3516839              -9.5698 (HOMO)
       221                         -0.3151321              -8.5752 (LUMO)
       222                         -0.3042502              -8.2791
       223                         -0.3040433              -8.2734
       224                         -0.2950046              -8.0275
       225                         -0.2827919              -7.6952
       226                         -0.2711457              -7.3782
       227                         -0.2676252              -7.2825
       228                         -0.2634803              -7.1697
       229                         -0.2531290              -6.8880
       230                         -0.2510411              -6.8312
       231                         -0.2435197              -6.6265
       ...                                ...                  ...
       444                          0.7795004              21.2113
      -------------------------------------------------------------
                  HL-Gap            0.0365518 Eh            0.9946 eV
             Fermi-level           -0.3334079 Eh           -9.0725 eV

     #   Z          covCN         q      C6AA      α(0)
     1   6 C        2.919    -0.041    29.007     8.832
     2   6 C        2.919    -0.036    28.904     8.816
     3   6 C        2.982     0.005    27.914     8.667
     4   6 C        2.926    -0.029    28.721     8.789
     5   6 C        2.982     0.006    27.891     8.663
     6   6 C        2.989     0.000    28.009     8.681
     7   6 C        2.917    -0.036    28.891     8.814
     8   6 C        2.980     0.013    27.721     8.637
     9   6 C        2.920    -0.038    28.935     8.821
    10   6 C        2.983     0.005    27.904     8.665
    11   6 C        2.990    -0.000    28.022     8.683
    12   6 C        2.923    -0.024    28.605     8.771
    13   6 C        2.980     0.006    27.880     8.661
    14   6 C        2.981     0.003    27.945     8.671
    15   6 C        2.981     0.004    27.926     8.668
    16   6 C        2.924    -0.027    28.666     8.780
    17   6 C        2.910    -0.032    28.798     8.800
    18   6 C        2.979     0.005    27.902     8.665
    19   6 C        2.987     0.001    28.005     8.681
    20   6 C        2.986     0.000    28.017     8.683
    21   6 C        2.891    -0.071    29.777     8.947
    22   6 C        2.974    -0.004    28.115     8.698
    23   6 C        2.984    -0.001    28.049     8.687
    24   6 C        2.887    -0.071    29.775     8.946
    25   6 C        2.985     0.000    28.020     8.683
    26   6 C        2.980     0.009    27.823     8.652
    27   6 C        2.819    -0.110    30.771     9.089
    28   6 C        2.887    -0.075    29.869     8.960
    29   6 C        2.972     0.008    27.832     8.654
    30   6 C        2.990    -0.000    28.028     8.684
    31   6 C        2.986     0.000    28.019     8.683
    32   6 C        2.979     0.009    27.807     8.650
    33   6 C        2.986     0.000    28.015     8.682
    34   6 C        2.987    -0.001    28.055     8.688
    35   6 C        2.990    -0.000    28.024     8.684
    36   6 C        2.980     0.009    27.823     8.652
    37   6 C        2.909    -0.025    28.633     8.774
    38   6 C        2.982     0.004    27.928     8.669
    39   6 C        2.930    -0.031    28.782     8.798
    40   6 C        2.989     0.004    27.916     8.667
    41   6 C        2.994     0.000    28.017     8.683
    42   6 C        2.927    -0.036    28.902     8.816
    43   6 C        2.985     0.000    28.021     8.683
    44   6 C        2.887    -0.071    29.775     8.946
    45   6 C        2.917    -0.036    28.891     8.814
    46   6 C        2.987    -0.001    28.043     8.687
    47   6 C        2.930    -0.031    28.782     8.798
    48   6 C        2.987    -0.001    28.034     8.685
    49   6 C        2.982     0.004    27.928     8.669
    50   6 C        2.985     0.000    28.020     8.683
    51   6 C        2.980     0.013    27.721     8.637
    52   6 C        2.987    -0.001    28.047     8.687
    53   6 C        2.974    -0.004    28.115     8.698
    54   6 C        2.988     0.001    27.991     8.679
    55   6 C        2.891    -0.071    29.777     8.947
    56   6 C        2.987    -0.001    28.045     8.687
    57   6 C        2.909    -0.025    28.633     8.774
    58   6 C        2.984    -0.001    28.049     8.687
    59   6 C        2.994     0.005    27.898     8.664
    60   6 C        2.987     0.001    28.005     8.681
    61   6 C        2.990    -0.001    28.040     8.686
    62   6 C        2.979     0.005    27.902     8.665
    63   6 C        2.988     0.000    28.017     8.683
    64   6 C        2.910    -0.032    28.798     8.800
    65   6 C        2.986     0.000    28.017     8.683
    66   6 C        2.927    -0.036    28.902     8.816
    67   6 C        2.983     0.005    27.904     8.665
    68   6 C        2.994     0.000    28.017     8.683
    69   6 C        2.920    -0.038    28.935     8.821
    70   6 C        2.989     0.004    27.916     8.667
    71   6 C        2.990    -0.000    28.022     8.683
    72   6 C        2.988     0.000    28.017     8.683
    73   6 C        2.979     0.009    27.807     8.650
    74   6 C        2.919    -0.036    28.904     8.816
    75   6 C        2.990    -0.001    28.040     8.686
    76   6 C        2.986     0.000    28.019     8.683
    77   6 C        2.994     0.005    27.898     8.664
    78   6 C        2.990    -0.000    28.028     8.684
    79   6 C        2.924    -0.027    28.666     8.780
    80   6 C        2.982     0.005    27.914     8.667
    81   6 C        2.987    -0.001    28.045     8.687
    82   6 C        2.988     0.001    27.991     8.679
    83   6 C        2.972     0.008    27.832     8.654
    84   6 C        2.987    -0.001    28.047     8.687
    85   6 C        2.887    -0.075    29.869     8.960
    86   6 C        2.981     0.004    27.926     8.668
    87   6 C        2.919    -0.041    29.007     8.832
    88   6 C        2.987    -0.001    28.034     8.685
    89   6 C        2.980     0.006    27.880     8.661
    90   6 C        2.987    -0.001    28.043     8.687
    91   6 C        2.923    -0.024    28.605     8.771
    92   6 C        2.985     0.000    28.021     8.683
    93   6 C        2.819    -0.110    30.771     9.089
    94   6 C        2.981     0.003    27.945     8.671
    95   6 C        2.990    -0.000    28.024     8.684
    96   6 C        2.982     0.006    27.891     8.663
    97   6 C        2.987    -0.001    28.055     8.688
    98   6 C        2.926    -0.029    28.721     8.789
    99   6 C        2.986     0.000    28.015     8.682
   100   6 C        2.989     0.000    28.009     8.681
   101   1 H        0.926     0.046     2.369     2.407
   102   1 H        0.926     0.036     2.507     2.476
   103   1 H        0.926     0.034     2.529     2.487
   104   1 H        0.939    -0.110     5.936     3.809
   105   1 H        0.926     0.034     2.524     2.484
   106   1 H        0.926     0.034     2.525     2.485
   107   1 H        0.926     0.034     2.534     2.490
   108   1 H        0.926     0.036     2.497     2.471
   109   1 H        0.926     0.028     2.608     2.525
   110   1 H        0.925     0.018     2.762     2.599
   111   1 H        0.925     0.022     2.701     2.570
   112   1 H        0.925     0.035     2.510     2.477
   113   1 H        0.926     0.037     2.495     2.470
   114   1 H        0.926     0.034     2.524     2.484
   115   1 H        0.925     0.035     2.510     2.477
   116   1 H        0.925     0.022     2.701     2.570
   117   1 H        0.939    -0.110     5.936     3.809
   118   1 H        0.926     0.028     2.608     2.525
   119   1 H        0.926     0.037     2.495     2.470
   120   1 H        0.926     0.034     2.525     2.485
   121   1 H        0.926     0.036     2.507     2.476
   122   1 H        0.926     0.036     2.497     2.471
   123   1 H        0.926     0.046     2.369     2.407
   124   1 H        0.926     0.034     2.534     2.490
   125   1 H        0.925     0.018     2.762     2.599
   126   1 H        0.926     0.034     2.529     2.487
   127   1 H        0.939    -0.105     5.718     3.739
   128   1 H        0.939    -0.105     5.718     3.739
   129   5 B        2.759     0.213    18.140     7.126
   130   5 B        2.755     0.211    18.168     7.133
   131   5 B        2.759     0.213    18.140     7.126
   132   5 B        2.755     0.211    18.168     7.133

 Mol. C6AA /au·bohr⁶  :     356434.995005
 Mol. C8AA /au·bohr⁸  :    9831730.447409
 Mol. α(0) /au        :        976.263634


Wiberg/Mayer (AO) data.
largest (>0.10) Wiberg bond orders for each atom

 ---------------------------------------------------------------------------
     #   Z sym  total        # sym  WBO       # sym  WBO       # sym  WBO
 ---------------------------------------------------------------------------
     1   6 C    3.952 --     7 C    1.571     8 C    1.264   101 H    0.960
     2   6 C    3.961 --     9 C    1.537    10 C    1.297   102 H    0.959
     3   6 C    3.948 --    11 C    1.297     7 C    1.272    10 C    1.184
     4   6 C    3.974 --    17 C    1.482    18 C    1.332   103 H    0.959
     5   6 C    3.960 --    19 C    1.302     9 C    1.301    18 C    1.155
     6   6 C    3.976 --    10 C    1.281    19 C    1.248    20 C    1.223
     7   6 C    3.970 --     1 C    1.571     3 C    1.272   105 H    0.959
     8   6 C    3.966 --     1 C    1.264    30 C    1.256    28 C    1.249
     9   6 C    3.965 --     2 C    1.537     5 C    1.301   106 H    0.958
    10   6 C    3.959 --     2 C    1.297     6 C    1.281     3 C    1.184
    11   6 C    3.980 --     3 C    1.297    30 C    1.239    33 C    1.217
    12   6 C    3.970 --    21 C    1.420    17 C    1.398   107 H    0.970
    13   6 C    3.974 --    18 C    1.294    21 C    1.278    22 C    1.180
    14   6 C    3.970 --    22 C    1.305    23 C    1.236    19 C    1.204
    15   6 C    3.946 --    25 C    1.279    22 C    1.248    24 C    1.207
    16   6 C    3.942 --    24 C    1.508    26 C    1.258   108 H    0.966
    17   6 C    3.977 --     4 C    1.482    12 C    1.398   109 H    0.970
    18   6 C    3.974 --     4 C    1.332    13 C    1.294     5 C    1.155
    19   6 C    3.983 --     5 C    1.302     6 C    1.248    14 C    1.204
    20   6 C    3.962 --    33 C    1.277    43 C    1.243     6 C    1.223
    21   6 C    3.952 --    12 C    1.420    13 C    1.278   129 B    1.075
    22   6 C    3.952 --    14 C    1.305    15 C    1.248    13 C    1.180
    23   6 C    3.965 --    52 C    1.276    14 C    1.236    43 C    1.233
    24   6 C    3.937 --    16 C    1.508    15 C    1.207   129 B    1.063
    25   6 C    3.975 --    15 C    1.279    59 C    1.246    52 C    1.231
    26   6 C    3.973 --    66 C    1.332    16 C    1.258    59 C    1.223
    27   6 C    3.933 --    37 C    1.737   130 B    1.097   110 H    0.972
    28   6 C    3.887 --    38 C    1.372     8 C    1.249   130 B    1.064
    29   6 C    3.971 --    39 C    1.521    38 C    1.153    37 C    1.144
    30   6 C    3.977 --     8 C    1.256    40 C    1.255    11 C    1.239
    31   6 C    3.968 --    40 C    1.261    41 C    1.260    38 C    1.229
    32   6 C    3.975 --    42 C    1.387    39 C    1.230    41 C    1.202
    33   6 C    3.960 --    20 C    1.277    72 C    1.248    11 C    1.217
    34   6 C    3.963 --    75 C    1.279    72 C    1.237    40 C    1.228
    35   6 C    3.979 --    41 C    1.271    77 C    1.263    75 C    1.223
    36   6 C    3.973 --    42 C    1.332    79 C    1.258    77 C    1.223
    37   6 C    3.976 --    27 C    1.737    29 C    1.144   111 H    0.964
    38   6 C    3.970 --    28 C    1.372    31 C    1.229    29 C    1.153
    39   6 C    3.970 --    29 C    1.521    32 C    1.230   112 H    0.964
    40   6 C    3.977 --    31 C    1.261    30 C    1.255    34 C    1.228
    41   6 C    3.963 --    35 C    1.271    31 C    1.260    32 C    1.202
    42   6 C    3.896 --    32 C    1.387    36 C    1.332   113 H    0.965
    43   6 C    3.956 --    81 C    1.267    20 C    1.243    23 C    1.233
    44   6 C    3.937 --    79 C    1.508    86 C    1.207   131 B    1.063
    45   6 C    3.970 --    87 C    1.571    80 C    1.272   114 H    0.959
    46   6 C    3.964 --    72 C    1.261    82 C    1.243    81 C    1.242
    47   6 C    3.970 --    83 C    1.521    73 C    1.230   115 H    0.964
    48   6 C    3.961 --    82 C    1.265    75 C    1.242    84 C    1.238
    49   6 C    3.970 --    85 C    1.372    76 C    1.229    83 C    1.153
    50   6 C    3.975 --    86 C    1.279    77 C    1.246    84 C    1.231
    51   6 C    3.966 --    87 C    1.264    78 C    1.256    85 C    1.249
    52   6 C    3.965 --    23 C    1.276    88 C    1.238    25 C    1.231
    53   6 C    3.952 --    94 C    1.305    86 C    1.248    89 C    1.180
    54   6 C    3.960 --    88 C    1.265    90 C    1.243    81 C    1.237
    55   6 C    3.952 --    91 C    1.420    89 C    1.278   131 B    1.075
    56   6 C    3.964 --    92 C    1.267    90 C    1.242    82 C    1.237
    57   6 C    3.976 --    93 C    1.737    83 C    1.144   116 H    0.964
    58   6 C    3.965 --    84 C    1.276    94 C    1.236    92 C    1.233
    59   6 C    3.962 --    95 C    1.263    25 C    1.246    26 C    1.223
    60   6 C    3.983 --    96 C    1.302   100 C    1.248    94 C    1.204
    61   6 C    3.962 --    97 C    1.279    88 C    1.242    95 C    1.223
    62   6 C    3.974 --    98 C    1.332    89 C    1.294    96 C    1.155
    63   6 C    3.961 --    90 C    1.261    99 C    1.248    97 C    1.237
    64   6 C    3.977 --    98 C    1.482    91 C    1.398   118 H    0.970
    65   6 C    3.962 --    99 C    1.277    92 C    1.243   100 C    1.223
    66   6 C    3.896 --    73 C    1.387    26 C    1.332   119 H    0.965
    67   6 C    3.959 --    74 C    1.297   100 C    1.281    80 C    1.184
    68   6 C    3.963 --    95 C    1.271    76 C    1.260    73 C    1.202
    69   6 C    3.965 --    74 C    1.537    96 C    1.301   120 H    0.958
    70   6 C    3.977 --    76 C    1.261    78 C    1.255    97 C    1.228
    71   6 C    3.980 --    80 C    1.297    78 C    1.239    99 C    1.217
    72   6 C    3.961 --    46 C    1.261    33 C    1.248    34 C    1.237
    73   6 C    3.975 --    66 C    1.387    47 C    1.230    68 C    1.202
    74   6 C    3.961 --    69 C    1.537    67 C    1.297   121 H    0.959
    75   6 C    3.962 --    34 C    1.279    48 C    1.242    35 C    1.223
    76   6 C    3.968 --    70 C    1.261    68 C    1.260    49 C    1.229
    77   6 C    3.962 --    35 C    1.263    50 C    1.246    36 C    1.223
    78   6 C    3.977 --    51 C    1.256    70 C    1.255    71 C    1.239
    79   6 C    3.942 --    44 C    1.508    36 C    1.258   122 H    0.966
    80   6 C    3.948 --    71 C    1.297    45 C    1.272    67 C    1.184
    81   6 C    3.964 --    43 C    1.267    46 C    1.242    54 C    1.237
    82   6 C    3.960 --    48 C    1.265    46 C    1.243    56 C    1.237
    83   6 C    3.971 --    47 C    1.521    49 C    1.153    57 C    1.144
    84   6 C    3.965 --    58 C    1.276    48 C    1.238    50 C    1.231
    85   6 C    3.887 --    49 C    1.372    51 C    1.249   132 B    1.064
    86   6 C    3.946 --    50 C    1.279    53 C    1.248    44 C    1.207
    87   6 C    3.952 --    45 C    1.571    51 C    1.264   123 H    0.960
    88   6 C    3.961 --    54 C    1.265    61 C    1.242    52 C    1.238
    89   6 C    3.974 --    62 C    1.294    55 C    1.278    53 C    1.180
    90   6 C    3.964 --    63 C    1.261    54 C    1.243    56 C    1.242
    91   6 C    3.970 --    55 C    1.420    64 C    1.398   124 H    0.970
    92   6 C    3.956 --    56 C    1.267    65 C    1.243    58 C    1.233
    93   6 C    3.933 --    57 C    1.737   132 B    1.097   125 H    0.972
    94   6 C    3.970 --    53 C    1.305    58 C    1.236    60 C    1.204
    95   6 C    3.979 --    68 C    1.271    59 C    1.263    61 C    1.223
    96   6 C    3.960 --    60 C    1.302    69 C    1.301    62 C    1.155
    97   6 C    3.963 --    61 C    1.279    63 C    1.237    70 C    1.228
    98   6 C    3.974 --    64 C    1.482    62 C    1.332   126 H    0.959
    99   6 C    3.960 --    65 C    1.277    63 C    1.248    71 C    1.217
   100   6 C    3.976 --    67 C    1.281    60 C    1.248    65 C    1.223
   101   1 H    0.997 --     1 C    0.960
   102   1 H    0.997 --     2 C    0.959
   103   1 H    0.998 --     4 C    0.959
   104   1 H    0.987 --   130 B    0.963
   105   1 H    0.998 --     7 C    0.959
   106   1 H    0.998 --     9 C    0.958
   107   1 H    0.998 --    12 C    0.970
   108   1 H    0.997 --    16 C    0.966
   109   1 H    0.998 --    17 C    0.970
   110   1 H    0.998 --    27 C    0.972
   111   1 H    0.999 --    37 C    0.964
   112   1 H    0.997 --    39 C    0.964
   113   1 H    0.997 --    42 C    0.965
   114   1 H    0.998 --    45 C    0.959
   115   1 H    0.997 --    47 C    0.964
   116   1 H    0.999 --    57 C    0.964
   117   1 H    0.987 --   132 B    0.963
   118   1 H    0.998 --    64 C    0.970
   119   1 H    0.997 --    66 C    0.965
   120   1 H    0.998 --    69 C    0.958
   121   1 H    0.997 --    74 C    0.959
   122   1 H    0.997 --    79 C    0.966
   123   1 H    0.997 --    87 C    0.960
   124   1 H    0.998 --    91 C    0.970
   125   1 H    0.998 --    93 C    0.972
   126   1 H    0.998 --    98 C    0.959
   127   1 H    0.988 --   129 B    0.970
   128   1 H    0.988 --   131 B    0.970
   129   5 B    3.350 --    21 C    1.075    24 C    1.063   127 H    0.970
   130   5 B    3.343 --    27 C    1.097    28 C    1.064   104 H    0.963
   131   5 B    3.350 --    55 C    1.075    44 C    1.063   128 H    0.970
   132   5 B    3.343 --    93 C    1.097    85 C    1.064   117 H    0.963
 ---------------------------------------------------------------------------

Topologies differ in total number of bonds
Writing topology from bond orders to xtbtopo.mol

molecular dipole:
                 x           y           z       tot (Debye)
 q only:        0.000       0.000      -0.003
   full:        0.000       0.000      -0.004       0.010
molecular quadrupole (traceless):
                xx          xy          yy          xz          yz          zz
 q only:        7.567     -23.018       0.862      -0.004      -0.015      -8.429
  q+dip:       35.531     -25.162      20.460      -0.008      -0.029     -55.990
   full:       13.108     -24.565      -2.397       0.001      -0.030     -10.711


           -------------------------------------------------
          | TOTAL ENERGY             -234.083481542354 Eh   |
          | GRADIENT NORM               0.000488882129 Eh/α |
          | HOMO-LUMO GAP               0.994624604594 eV   |
           -------------------------------------------------

------------------------------------------------------------------------
 * finished run on 2025/12/08 at 00:32:22.937     
------------------------------------------------------------------------
 total:
 * wall-time:     0 d,  0 h,  0 min,  0.362 sec
 *  cpu-time:     0 d,  0 h,  0 min,  4.359 sec
 * ratio c/w:    12.042 speedup
 SCF:
 * wall-time:     0 d,  0 h,  0 min,  0.284 sec
 *  cpu-time:     0 d,  0 h,  0 min,  3.547 sec
 * ratio c/w:    12.489 speedup

normal termination of xtb
