132
 energy: -234.083481542329 gnorm: 0.000489161716 xtb: 6.7.1pre (5071a88)
C           -2.82234194442030       -7.32599774164854        0.00874923045821
C            1.43718677646124       -7.32996540607758       -0.00020054729924
C           -0.71948131898482       -6.12898904924819        0.00365118728782
C            5.68590035363899       -7.37365814784014       -0.01596846769798
C            3.54010597591185       -6.14311807431615       -0.00651562973694
C            1.42507365990149       -4.91087454246030       -0.00130125575048
C           -1.46323372091460       -7.32663329239009        0.00637946879456
C           -3.56793962259598       -6.12838384456987        0.00842357987262
C            2.79872750217105       -7.33492986943024       -0.00379508657334
C            0.71061072156370       -6.12938394558612        0.00070337175282
C           -1.42066312593286       -4.90946688454867        0.00367587099888
C            7.76543583900829       -6.22234749282139       -0.01809046292047
C            5.69694701858643       -4.94457697984870       -0.01062960239002
C            3.57211829312389       -3.68495755698118       -0.00499970281210
C            5.68159800208195       -2.44629514370660       -0.00610227315606
C            7.75691359667410       -1.19449618061207       -0.00545555589973
C            7.05893900606315       -7.41267518830224       -0.01952687370920
C            4.97809723668252       -6.16100439640949       -0.01101702998704
C            2.84686422805105       -4.91664561645125       -0.00440923277927
C            0.71083686415131       -3.68123677029140       -0.00032979281305
C            7.11707083220093       -4.99284275247866       -0.01386536269004
C            4.98604060148087       -3.68925891872323       -0.00720800409308
C            2.84592746028342       -2.45995471219270       -0.00288885088123
C            7.11350025578474       -2.40719863076834       -0.00778348682362
C            4.95845484342019       -1.23024665330167       -0.00321216871102
C            7.06652292113552        0.02970933628747       -0.00174871618698
C           -7.34025416584266       -7.31658274118122        0.01566189762950
C           -4.99275732229888       -6.15332251717347        0.01054630984542
C           -7.11075655486563       -4.88571693479794        0.01091122933337
C           -2.84213612578569       -4.90893898996265        0.00580956327551
C           -4.95681671639330       -3.68992034454347        0.00658503910213
C           -7.07051307259537       -2.44965249050732        0.00605538897399
C           -0.70139633386130       -3.68050508062866        0.00166143989211
C           -2.82746106263441       -2.45349329144073        0.00287626726313
C           -4.94307834276490       -1.23326095908633        0.00250311685206
C           -7.06652336040736       -0.02970204305088        0.00076686421331
C           -7.89673576846768       -6.09102592460041        0.01407717348700
C           -5.66916406257138       -4.92516779042785        0.00938020907997
C           -7.76076047198176       -3.68235793031010        0.00916403295850
C           -3.54264097047004       -3.68164702369420        0.00510896452064
C           -5.64717981647393       -2.45668652080872        0.00507440899625
C           -7.75160357461190       -1.24407753338909        0.00380552872284
C            1.42358792069253       -2.45611123126366       -0.00127314645148
C           -7.11350063566480        2.40720582568950       -0.00534500618743
C            1.46322518005134        7.32662738572151        0.00944668622974
C           -0.70482769914316       -1.22876948699459        0.00038340028154
C            7.76075845374815        3.68236213246955        0.00824894995186
C           -2.82627983932532        0.00260280342814        0.00008514562351
C            5.66916010850195        4.92516705586214        0.01048434002545
C           -4.95845488200141        1.23024999934535       -0.00198801377013
C            3.56793338821487        6.12838017087098        0.01098824134426
C            3.53883791042739       -1.23092202581283       -0.00220144244439
C           -4.98603873317563        3.68926064537074       -0.00702864143039
C            1.41404866866776       -0.00013728834937       -0.00020135022033
C           -7.11706879435946        4.99284453279064       -0.01353512879002
C           -0.71313990320357        1.23269389094653       -0.00032677818489
C            7.89673115540659        6.09102498174541        0.01541035554534
C           -2.84592685336342        2.45995504513851       -0.00267454996896
C            5.64765226931331        0.00946399490781       -0.00116735297229
C           -2.84686026915741        4.91664491778371       -0.00568600586313
C            3.52527761242403        1.22959148010455        0.00132153299415
C           -4.97809014700797        6.16100118217488       -0.01345328778330
C            1.40950957398576        2.45435403325092        0.00165287376706
C           -7.05893330603526        7.41266759324281       -0.02228501223264
C           -0.71083650901144        3.68123556588423       -0.00037268790076
C            7.75160295463300        1.24408511453634        0.00125633167862
C           -0.71060725129944        6.12938250467682       -0.00043001339014
C            5.64717863201841        2.45668918592416        0.00433029332977
C           -2.79871310684043        7.33492756560013       -0.00853652220077
C            3.54263891278622        3.68164630884713        0.00564037482051
C            1.42066147151377        4.90946479939786        0.00439462245434
C           -1.40951019525213       -2.45435521331224        0.00160147511281
C            7.07051214325902        2.44965748680772        0.00458456891651
C           -1.43717478761104        7.32996382681897       -0.00403353742720
C           -3.52527821275539       -1.22959075976517        0.00179758379837
C            4.95681459833443        3.68992071989873        0.00688228786225
C           -5.64765259904185       -0.00945968436599        0.00044135564438
C            2.84213309471985        4.90893691453582        0.00709854633411
C           -7.75691430993340        1.19450515278221       -0.00228904526227
C            0.71947944616754        6.12898650400178        0.00442919783637
C            0.71313976624204       -1.23269495452411       -0.00045085726211
C           -1.41404890808384        0.00013641118259       -0.00003606589071
C            7.11075316458123        4.88571767251402        0.01140594117160
C           -3.53883778276758        1.23092309712330       -0.00157877624320
C            4.99275126136643        6.15331869292602        0.01306337401765
C           -5.68159751026566        2.44629912018300       -0.00479978493737
C            2.82233178974761        7.32599079588702        0.01274127793397
C            2.82627960480688       -0.00260230442110       -0.00040952443976
C           -5.69694321135425        4.94457738037994       -0.01123732560166
C            0.70482746100959        1.22876841212735        0.00032372606490
C           -7.76543283612271        6.22234562236053       -0.01883591317791
C           -1.42358748838998        2.45611034764957       -0.00120392489196
C            7.34024758655089        7.31657793245664        0.01856136288965
C           -3.57211608018788        3.68495785627040       -0.00527451972281
C            4.94307777375742        1.23326372421180        0.00152177056028
C           -3.54009751819474        6.14311631279101       -0.00933140609461
C            2.82746021407486        2.45349313492463        0.00284682179946
C           -5.68589285885078        7.37365019749469       -0.01949207964379
C            0.70139607137627        3.68050369410169        0.00177814023088
C           -1.42507123046895        4.91087347686663       -0.00207615596493
H           -3.34417956327240       -8.26593651650144        0.01079440712725
H            0.92712797059018       -8.27821870124546        0.00179912335740
H            5.15744825589913       -8.31242371120233       -0.01739508770988
H           -5.35185817872296       -8.53965557621047        0.01568118115415
H           -0.95893367441387       -8.27843161134855        0.00670263818034
H            3.29637280211738       -8.28965878505775       -0.00414840393468
H            8.84546855536940       -6.23811044858419       -0.02048307804299
H            8.83752167879441       -1.17101932917355       -0.00648883260916
H            7.57574415142498       -8.36135385923137       -0.02331397885179
H           -8.00590080943089       -8.17171243320465        0.01804813630114
H           -8.97250732998062       -5.95036207147179        0.01511033745371
H           -8.84246608793662       -3.65612998957450        0.01011957434282
H           -8.83253568097455       -1.23875215762202        0.00428490680239
H            0.95891878664133        8.27842109152838        0.01118237181544
H            8.84246447595028        3.65613608726704        0.00863715517778
H            8.97250337434403        5.95036300370432        0.01582440916905
H            5.35184849166451        8.53964424307547        0.02099833741575
H           -7.57573790529047        8.36134262487404       -0.02695757492536
H            8.83253515899455        1.23876143484972        0.00104839139411
H           -3.29635201418215        8.28965639304064       -0.01111381772425
H           -0.92710871057886        8.27821553652961       -0.00376588285908
H           -8.83752293588914        1.17103043426469       -0.00242084502932
H            3.34416541882732        8.26592617698553        0.01660016473438
H           -8.84546691825966        6.23810994144843       -0.02049093161515
H            8.00589347014987        8.17170621064418        0.02158517037686
H           -5.15743937378616        8.31241179293160       -0.02232084475195
H            9.10272972403150       -3.69414111020580       -0.01429427128690
H           -9.10273154558801        3.69415219474814       -0.01052197599300
B            7.93194260542955       -3.70057190144267       -0.01228733695261
B           -5.81875725599564       -7.46558494349848        0.01404014932701
B           -7.93194288354534        3.70057934393430       -0.00982305064579
B            5.81874968460671        7.46557795287194        0.01782669653451
