132
 energy: -234.068088355909 gnorm: 0.059483874428 xtb: 6.7.1pre (5071a88)
C           -2.84502000000000       -7.37882600000000        0.00875000000000
C            1.44800800000000       -7.38234500000000       -0.00041300000000
C           -0.72773800000000       -6.17242200000000        0.00362800000000
C            5.73583600000000       -7.41907700000000       -0.01583000000000
C            3.56435100000000       -6.18687600000000       -0.00653000000000
C            1.43173300000000       -4.94728000000000       -0.00113000000000
C           -1.47732600000000       -7.37873000000000        0.00642600000000
C           -3.59579900000000       -6.17215400000000        0.00846200000000
C            2.81731800000000       -7.38741000000000       -0.00389700000000
C            0.71397100000000       -6.17394900000000        0.00071700000000
C           -1.43138000000000       -4.94496800000000        0.00352200000000
C            7.82956500000000       -6.25406200000000       -0.01817500000000
C            5.73781900000000       -4.97667500000000       -0.01067200000000
C            3.59504800000000       -3.71002700000000       -0.00479300000000
C            5.71882600000000       -2.45998200000000       -0.00624800000000
C            7.81451300000000       -1.20539200000000       -0.00584600000000
C            7.11915800000000       -7.45654800000000       -0.01946500000000
C            5.01474100000000       -6.20046600000000       -0.01089700000000
C            2.86575700000000       -4.95336700000000       -0.00437200000000
C            0.71361400000000       -3.70696500000000       -0.00089200000000
C            7.17105300000000       -5.02035300000000       -0.01391200000000
C            5.01767600000000       -3.71150900000000       -0.00720700000000
C            2.86415500000000       -2.47463000000000       -0.00346000000000
C            7.16312900000000       -2.42217200000000       -0.00802300000000
C            4.99053900000000       -1.23822100000000       -0.00347600000000
C            7.11964400000000        0.02733500000000       -0.00197900000000
C           -7.39367500000000       -7.36745400000000        0.01581900000000
C           -5.03440000000000       -6.18843500000000        0.01054700000000
C           -7.16818200000000       -4.91361200000000        0.01101900000000
C           -2.86480400000000       -4.94405900000000        0.00591700000000
C           -4.99355200000000       -3.70905100000000        0.00669700000000
C           -7.12287200000000       -2.46192800000000        0.00614400000000
C           -0.70704100000000       -3.70584200000000        0.00243600000000
C           -2.84901100000000       -2.46908300000000        0.00375400000000
C           -4.97898000000000       -1.23922400000000        0.00281500000000
C           -7.11964500000000       -0.02732900000000        0.00073500000000
C           -7.95611700000000       -6.12920000000000        0.01424100000000
C           -5.71321300000000       -4.95229400000000        0.00946100000000
C           -7.81934300000000       -3.70304100000000        0.00936200000000
C           -3.57049700000000       -3.70699600000000        0.00489200000000
C           -5.68864300000000       -2.46817800000000        0.00513600000000
C           -7.80709500000000       -1.25060600000000        0.00391900000000
C            1.43101700000000       -2.47254500000000       -0.00005800000000
C           -7.16312900000000        2.42217800000000       -0.00550700000000
C            1.47732200000000        7.37872600000000        0.00947900000000
C           -0.71056800000000       -1.23829500000000        0.00238800000000
C            7.81934200000000        3.70304500000000        0.00834200000000
C           -2.84455700000000        0.00150200000000        0.00143100000000
C            5.71321000000000        4.95229200000000        0.01059300000000
C           -4.99053900000000        1.23822500000000       -0.00179000000000
C            3.59579500000000        6.17214900000000        0.01112800000000
C            3.56154500000000       -1.23928300000000       -0.00152500000000
C           -5.01767400000000        3.71151100000000       -0.00709400000000
C            1.42473300000000       -0.00008400000000        0.00172600000000
C           -7.17105300000000        5.02035300000000       -0.01365100000000
C           -0.71726000000000        1.24130300000000        0.00161500000000
C            7.95611400000000        6.12919700000000        0.01570500000000
C           -2.86415500000000        2.47463200000000       -0.00198100000000
C            5.68966900000000        0.00808600000000       -0.00128000000000
C           -2.86575300000000        4.95336600000000       -0.00573900000000
C            3.55103800000000        1.23823300000000        0.00205700000000
C           -5.01473600000000        6.20046200000000       -0.01354700000000
C            1.42033500000000        2.47066700000000        0.00291200000000
C           -7.11915400000000        7.45653900000000       -0.02231500000000
C           -0.71361600000000        3.70696500000000        0.00026000000000
C            7.80709500000000        1.25061300000000        0.00102800000000
C           -0.71396700000000        6.17395100000000       -0.00055700000000
C            5.68864200000000        2.46818100000000        0.00433100000000
C           -2.81730700000000        7.38740600000000       -0.00870100000000
C            3.57049500000000        3.70699500000000        0.00597000000000
C            1.43137800000000        4.94496800000000        0.00461700000000
C           -1.42033900000000       -2.47066800000000        0.00048400000000
C            7.12287200000000        2.46193200000000        0.00458100000000
C           -1.44800000000000        7.38234500000000       -0.00420400000000
C           -3.55104000000000       -1.23823400000000        0.00111500000000
C            4.99355000000000        3.70905200000000        0.00689400000000
C           -5.68967000000000       -0.00808200000000        0.00044700000000
C            2.86480100000000        4.94405800000000        0.00713200000000
C           -7.81451400000000        1.20540000000000       -0.00240300000000
C            0.72773700000000        6.17242300000000        0.00447900000000
C            0.71725800000000       -1.24130200000000       -0.00222800000000
C           -1.42473300000000        0.00008300000000       -0.00181800000000
C            7.16818000000000        4.91361200000000        0.01160100000000
C           -3.56154400000000        1.23928200000000       -0.00220400000000
C            5.03439600000000        6.18843100000000        0.01324400000000
C           -5.71882500000000        2.45998600000000       -0.00482500000000
C            2.84501300000000        7.37881800000000        0.01288300000000
C            2.84455700000000       -0.00149800000000       -0.00162100000000
C           -5.73781600000000        4.97667500000000       -0.01127400000000
C            0.71056900000000        1.23829700000000       -0.00150500000000
C           -7.82956400000000        6.25405900000000       -0.01893600000000
C           -1.43101400000000        2.47254500000000       -0.00233000000000
C            7.39367000000000        7.36744800000000        0.01888500000000
C           -3.59504500000000        3.71002700000000       -0.00544300000000
C            4.97897900000000        1.23922800000000        0.00122500000000
C           -3.56434500000000        6.18687300000000       -0.00937300000000
C            2.84901100000000        2.46908600000000        0.00208100000000
C           -5.73583000000000        7.41906800000000       -0.01949700000000
C            0.70704300000000        3.70584300000000        0.00109500000000
C           -1.43173000000000        4.94728100000000       -0.00224400000000
H           -3.37095800000000       -8.32412300000000        0.01094700000000
H            0.93602800000000       -8.33566100000000        0.00152500000000
H            5.20417600000000       -8.36225100000000       -0.01716900000000
H           -5.36494400000000       -8.57684900000000        0.01534000000000
H           -0.96995100000000       -8.33501400000000        0.00664300000000
H            3.31892100000000       -8.34606000000000       -0.00443600000000
H            8.91647300000000       -6.26686800000000       -0.02063800000000
H            8.90180200000000       -1.18480900000000       -0.00693200000000
H            7.63693000000000       -8.41107800000000       -0.02326100000000
H           -8.06218500000000       -8.22794500000000        0.01827000000000
H           -9.03792100000000       -5.99140800000000        0.01531900000000
H           -8.90659100000000       -3.68062700000000        0.01034900000000
H           -8.89400800000000       -1.24717700000000        0.00426300000000
H            0.96994900000000        8.33500900000000        0.01142900000000
H            8.90659000000000        3.68063100000000        0.00887000000000
H            9.03791800000000        5.99140700000000        0.01617200000000
H            5.36493700000000        8.57683700000000        0.02069500000000
H           -7.63692600000000        8.41106600000000       -0.02694400000000
H            8.89400800000000        1.24718600000000        0.00092200000000
H           -3.31890600000000        8.34605600000000       -0.01103300000000
H           -0.93602100000000        8.33566300000000       -0.00429800000000
H           -8.90180400000000        1.18481900000000       -0.00278200000000
H            3.37094900000000        8.32411200000000        0.01661600000000
H           -8.91647400000000        6.26686600000000       -0.02063700000000
H            8.06218000000000        8.22793700000000        0.02197000000000
H           -5.20416900000000        8.36223700000000       -0.02233000000000
H            9.16461100000000       -3.71171800000000       -0.01445800000000
H           -9.16461400000000        3.71172600000000       -0.01091600000000
B            7.96569600000000       -3.72091000000000       -0.01243900000000
B           -5.87092800000000       -7.49146400000000        0.01401800000000
B           -7.96569700000000        3.72091600000000       -0.01006700000000
B            5.87092200000000        7.49145600000000        0.01787800000000
132
 energy: -234.079129895192 gnorm: 0.022603934179 xtb: 6.7.1pre (5071a88)
C           -2.83729185322903       -7.35145139108404        0.00874971256094
C            1.44743232845973       -7.35656325364107       -0.00037613478769
C           -0.72459373211266       -6.15313585271074        0.00362930604519
C            5.72121445770953       -7.39819174589476       -0.01579085444225
C            3.55830204812101       -6.16789675150116       -0.00649565605357
C            1.43111787640199       -4.93269623264259       -0.00121688479763
C           -1.47509755364023       -7.35226193885865        0.00634463951060
C           -3.58718956279942       -6.15166526826579        0.00840548446878
C            2.81214892366650       -7.36172767619053       -0.00392690357921
C            0.71350963489484       -6.15452179298941        0.00065149645373
C           -1.42838613749455       -4.93026213662017        0.00363006474734
C            7.80268427492015       -6.24132686208046       -0.01807901091645
C            5.72286906184294       -4.96531505600536       -0.01059502538022
C            3.58850066168172       -3.70112523193832       -0.00488552460043
C            5.70423413700171       -2.45523864924617       -0.00616712098544
C            7.78712072793094       -1.20017223071878       -0.00573104130112
C            7.09689307844118       -7.43544241584084       -0.01939517689112
C            5.00335217681619       -6.18497742416115       -0.01091863075518
C            2.86060907947313       -4.93880277633007       -0.00437072158483
C            0.71319018792554       -3.69757342771074       -0.00043082271714
C            7.14921964689579       -5.01143959599571       -0.01387306154926
C            5.00727480139356       -3.70419639668347       -0.00722029191238
C            2.85872648325829       -2.47020585460574       -0.00297343208202
C            7.14216331381245       -2.41562815102171       -0.00797119938304
C            4.97897722837030       -1.23551070837556       -0.00333870876073
C            7.09626088118700        0.02919877164955       -0.00196192012149
C           -7.37550248423105       -7.34299206685231        0.01574508224587
C           -5.01938901692508       -6.17343117217151        0.01053556711341
C           -7.14480691281616       -4.90380950885551        0.01098472720132
C           -2.85731499056025       -4.92915969422372        0.00584878470606
C           -4.98015863422424       -3.70252358801720        0.00665421584111
C           -7.10095974862954       -2.45874805280869        0.00613392568568
C           -0.70490981681933       -3.69628222577726        0.00189959904118
C           -2.84164152574932       -2.46349971661189        0.00314785883169
C           -4.96585798902842       -1.23757030994130        0.00264299922478
C           -7.09626183516262       -0.02919178758760        0.00074820464592
C           -7.93231558966521       -6.11371091611288        0.01418221398728
C           -5.69631853109808       -4.94185830064509        0.00940031255507
C           -7.79350130778887       -3.69661117486628        0.00928319326940
C           -3.56095617593402       -3.69718956603818        0.00506900758493
C           -5.67257404797256       -2.46492161480144        0.00511330361903
C           -7.78148170337211       -1.24903429573883        0.00383523483617
C            1.42932502146945       -2.46706913590725       -0.00092806199729
C           -7.14216367552517        2.41563460743102       -0.00547886778377
C            1.47509006379447        7.35225735438590        0.00946182147442
C           -0.70850450272510       -1.23486199772492        0.00089017283197
C            7.79349999357779        3.69661462570659        0.00833796571837
C           -2.83847824359193        0.00218788157121        0.00047715154001
C            5.69631534429620        4.94185684247295        0.01056113801282
C           -4.97897718021650        1.23551447415651       -0.00189942076168
C            3.58718468004086        6.15166125608889        0.01102178096671
C            3.55385365572243       -1.23676502989457       -0.00201224793566
C           -5.00727318269899        3.70419838846456       -0.00702324245569
C            1.42114116382577       -0.00028042133723        0.00025710583380
C           -7.14921898811786        5.01144004334625       -0.01360979679900
C           -0.71619222876734        1.23861342135695        0.00014311358542
C            7.93231231629516        6.11370828270314        0.01562918894857
C           -2.85872584555359        2.47020692435369       -0.00247456470093
C            5.67267459111913        0.00889350605083       -0.00126063892098
C           -2.86060525335161        4.93880233812278       -0.00568807557064
C            3.54194828932481        1.23515842911213        0.00151733262240
C           -5.00334665000323        6.18497399805256       -0.01342324643856
C            1.41676648247557        2.46480291953341        0.00196678814672
C           -7.09688905542863        7.43543377600989       -0.02221161860065
C           -0.71319018596178        3.69757351268775       -0.00019816168790
C            7.78148130005441        1.24904137049581        0.00110965191762
C           -0.71350593394544        6.15452216009324       -0.00052073179732
C            5.67257307141356        2.46492443980443        0.00432570369557
C           -2.81213624299593        7.36172481954690       -0.00858492533205
C            3.56095436175275        3.69718881162222        0.00573896904487
C            1.42838482116464        4.93026187881767        0.00444645812183
C           -1.41676801341572       -2.46480300608260        0.00139889099346
C            7.10095929467846        2.45875238051673        0.00455694417482
C           -1.44742128858612        7.35656261060071       -0.00421537778084
C           -3.54194942255927       -1.23515772852717        0.00166417212761
C            4.98015674671233        3.70252439170928        0.00687969498158
C           -5.67267534633245       -0.00888896929702        0.00044531053948
C            2.85731223736993        4.92915834446437        0.00709450671672
C           -7.78712178238855        1.20018074809621       -0.00243837481026
C            0.72459212065263        6.15313533485885        0.00437900818284
C            0.71619202981933       -1.23861346739511       -0.00075516849559
C           -1.42114116019896        0.00028030377504       -0.00033531633619
C            7.14480457367201        4.90380942179917        0.01153693136627
C           -3.55385330412386        1.23676582396862       -0.00169006380173
C            5.01938441877396        6.17342741764731        0.01310795026032
C           -5.70423350553065        2.45524254902044       -0.00484192345059
C            2.83728305979369        7.35144436856150        0.01274626177492
C            2.83847824752033       -0.00218622353134       -0.00068584212214
C           -5.72286598060894        4.96531499229681       -0.01126385711376
C            0.70850451055807        1.23486204777291       -0.00002232304512
C           -7.80268280317764        6.24132387185242       -0.01885121472327
C           -1.42932408076094        2.46706941793418       -0.00141973234280
C            7.37549752017751        7.34298596285201        0.01877631406929
C           -3.58849833850937        3.70112573689829       -0.00531595828624
C            4.96585720251082        1.23757389340850        0.00138486754209
C           -3.55829500847301        6.16789482201198       -0.00932581249880
C            2.84164071000254        2.46350067027617        0.00265455604806
C           -5.72120845937820        7.39818329014518       -0.01940517555853
C            0.70491033252065        3.69628242735128        0.00160116432859
C           -1.43111536649434        4.93269666440023       -0.00215983565583
H           -3.35910992732851       -8.29460406620102        0.01085949980878
H            0.93898068433979       -8.30846567699399        0.00150178069326
H            5.19569786428337       -8.34089855336445       -0.01709733198783
H           -5.37928971545154       -8.56320778725464        0.01537993287035
H           -0.97235448486731       -8.30758317039774        0.00665180947555
H            3.31108767431503       -8.31877701931281       -0.00443230125209
H            8.88546260927497       -6.25726202243028       -0.02054085590530
H            8.87054707403293       -1.17945416038785       -0.00685137937272
H            7.61597768791055       -8.38570759281597       -0.02315087780657
H           -8.04439309407797       -8.19872073726301        0.01818576147053
H           -9.01109887244751       -5.97797500078620        0.01526967821037
H           -8.87780727808537       -3.67312873622578        0.01029030435023
H           -8.86512418703760       -1.24452907880418        0.00426675119162
H            0.97234388467510        8.30757582672743        0.01128458870402
H            8.87780630706436        3.67313286578616        0.00880304038618
H            9.01109604254113        5.97797417812269        0.01611154034968
H            5.37928246336139        8.56319632693353        0.02071918467538
H           -7.61597353526398        8.38569541533805       -0.02683284899797
H            8.86512383769873        1.24453798794592        0.00091159060690
H           -3.31106990070895        8.31877392063897       -0.01107680115813
H           -0.93896559875439        8.30846516121871       -0.00415335447031
H           -8.87054884902048        1.17946489454787       -0.00270659389187
H            3.35909827680572        8.29459350473839        0.01656962673854
H           -8.88546275805959        6.25725993962736       -0.02055633114549
H            8.04438794164619        8.19871267917476        0.02186215423928
H           -5.19569073266482        8.34088581028720       -0.02222092552405
H            9.13648207634566       -3.70826324929391       -0.01441485061776
H           -9.13648466709072        3.70827143715633       -0.01086017280444
B            7.95490870543994       -3.71373972241208       -0.01238946070518
B           -5.85342513485249       -7.48212738296184        0.01398080572610
B           -7.95490963886530        3.71374577088977       -0.01002257718184
B            5.85341925222175        7.48211970377751        0.01781646298721
132
 energy: -234.083069808191 gnorm: 0.006817976507 xtb: 6.7.1pre (5071a88)
C           -2.82861560890953       -7.33021752951376        0.00871511757681
C            1.44219533972034       -7.33525920839302       -0.00034783217598
C           -0.72105895969653       -6.13527210619469        0.00359700351326
C            5.69975251396812       -7.37971608242862       -0.01573107421271
C            3.54824033169166       -6.14953902892655       -0.00648489389949
C            1.42822270527841       -4.91737986442382       -0.00129068073245
C           -1.46873384179568       -7.33125674210592        0.00631322207826
C           -3.57620794106445       -6.13362250911643        0.00838447451334
C            2.80466773739975       -7.34023120129793       -0.00392485238158
C            0.71190760925654       -6.13610848760438        0.00065441580941
C           -1.42394519373921       -4.91545240857785        0.00367915056492
C            7.77770961583078       -6.22701775156882       -0.01800936225133
C            5.70630345288349       -4.95132194320573       -0.01057162787590
C            3.57865901595354       -3.69021843413539       -0.00494369891893
C            5.68879849824012       -2.44948476160442       -0.00614561014273
C            7.76381129089434       -1.19558639295838       -0.00563656963305
C            7.07265718725233       -7.41732795086189       -0.01933189196712
C            4.98816961359192       -6.16837362809989       -0.01090993725130
C            2.85253666586526       -4.92319261752042       -0.00434945999557
C            0.71195760431998       -3.68654390105720       -0.00021439084476
C            7.12742644325973       -4.99873335652817       -0.01382730194612
C            4.99393861196633       -3.69455603206356       -0.00717315725781
C            2.85078779560320       -2.46374764573086       -0.00276948947416
C            7.12175564088126       -2.40918419905335       -0.00789494226746
C            4.96539392611576       -1.23217646771912       -0.00323628641471
C            7.07446363498570        0.03005523147451       -0.00189692663813
C           -7.35433628745364       -7.32175559950390        0.01567167050006
C           -5.00272559708318       -6.15888091684752        0.01049892112729
C           -7.12225973512546       -4.89108658487689        0.01093990593247
C           -2.84799995634817       -4.91452301070734        0.00577942187650
C           -4.96512683436002       -3.69447479472718        0.00659265457603
C           -7.07972660516117       -2.45290337670363        0.00609649126614
C           -0.70259556339741       -3.68550749244061        0.00163444257247
C           -2.83244617784308       -2.45681833004105        0.00285246222276
C           -4.95058162629532       -1.23493477480000        0.00252689920154
C           -7.07446429910923       -0.03004798202804        0.00073807206621
C           -7.90950320258709       -6.09661662067051        0.01411756215286
C           -5.67901602443610       -4.93049413705825        0.00937293263979
C           -7.77025950125809       -3.68682768575953        0.00921771370102
C           -3.54933762200076       -3.68636608515081        0.00513920294184
C           -5.65546355074823       -2.45981647746556        0.00511240510126
C           -7.75901260241552       -1.24582555351676        0.00379366945402
C            1.42603385877950       -2.45992758673376       -0.00128714345823
C           -7.12175617304413        2.40919090251892       -0.00544076476958
C            1.46872595726522        7.33125173388170        0.00937216680083
C           -0.70600882780879       -1.23076450602912        0.00031921760063
C            7.77025786656997        3.68683106026900        0.00829751636145
C           -2.83053716818860        0.00260449743003        0.00005123748474
C            5.67901263040253        4.93049316359333        0.01049593561331
C           -4.96539389567193        1.23217981581859       -0.00197950110861
C            3.57620248875754        6.13361898428199        0.01093569647911
C            3.54407875884850       -1.23307511369095       -0.00223710582618
C           -4.99393700453012        3.69455762371562       -0.00702684148712
C            1.41648679847791       -0.00025689345186       -0.00028605762466
C           -7.12742502784607        4.99873442345210       -0.01354668627794
C           -0.71436162473886        1.23483150232638       -0.00040546425258
C            7.90949948830870        6.09661448934243        0.01554558817640
C           -2.85078704514837        2.46374823548946       -0.00268006517678
C            5.65506629832587        0.00940257305902       -0.00125646168901
C           -2.85253291125783        4.92319226162376       -0.00567326258873
C            3.53088913334786        1.23142554676153        0.00124407724702
C           -4.98816335972356        6.16837028649667       -0.01336109795366
C            1.41213159723786        2.45780462540773        0.00156383751174
C           -7.07265250672267        7.41731986688202       -0.02212889790598
C           -0.71195695504696        3.68654376434846       -0.00042791778341
C            7.75901201975602        1.24583279022650        0.00115111095561
C           -0.71190431111912        6.13610807954681       -0.00050057111659
C            5.65546257317076        2.45981914048798        0.00429741620745
C           -2.80465481672887        7.34022895775789       -0.00854056223797
C            3.54933573660238        3.68636550535809        0.00560631890810
C            1.42394389812618        4.91545149454685        0.00433568114812
C           -1.41213193772726       -2.45780462770566        0.00176745365433
C            7.07972580684652        2.45290797055986        0.00454848847275
C           -1.44218422915590        7.33525821128454       -0.00414315951917
C           -3.53088960578242       -1.23142416354478        0.00192897365434
C            4.96512491403304        3.69447521325131        0.00688364218896
C           -5.65506672737030       -0.00939800397867        0.00046846231694
C            2.84799717418730        4.91452122803163        0.00707400970186
C           -7.76381228743249        1.19559512144972       -0.00240544088724
C            0.72105714799706        6.13527069397197        0.00435241105499
C            0.71436179718946       -1.23483179856260       -0.00022308660623
C           -1.41648693062261        0.00025700676095        0.00019531056737
C            7.12225695381639        4.89108655166150        0.01146686919291
C           -3.54407868379174        1.23307668756266       -0.00145684610002
C            5.00272034985537        6.15887702802363        0.01303446383120
C           -5.68879813322797        2.44948858270635       -0.00481208560451
C            2.82860641553121        7.33021084535169        0.01266225271254
C            2.83053706902716       -0.00260385808378       -0.00027669254176
C           -5.70630029079165        4.95132198456699       -0.01120987644829
C            0.70600851697715        1.23076405840748        0.00052447040611
C           -7.77770744671635        6.22701511005946       -0.01878845134013
C           -1.42603367282396        2.45992769545116       -0.00106183178516
C            7.35433095788686        7.32174971732534        0.01866538785229
C           -3.57865703709987        3.69021899604756       -0.00523082146190
C            4.95058112758715        1.23493776260293        0.00149476853192
C           -3.54823272539101        6.14953743961710       -0.00929224366373
C            2.83244519725992        2.45681831273210        0.00291142187560
C           -5.69974585458801        7.37970790852190       -0.01932793395347
C            0.70259516795899        3.68550706021676        0.00183029805331
C           -1.42822056053167        4.91737976330373       -0.00207943462406
H           -3.34987163912469       -8.27121991110926        0.01078405143058
H            0.93354314101815       -8.28514006301295        0.00153043759729
H            5.17496318006282       -8.32098846556276       -0.01702679145794
H           -5.36776308246028       -8.54597767083662        0.01538259061675
H           -0.96612121447458       -8.28472222382280        0.00663368477421
H            3.30345484650015       -8.29531476981209       -0.00441207995632
H            8.85809541870080       -6.24408203349611       -0.02045176497049
H            8.84483138395792       -1.17393736698490       -0.00675830641425
H            7.59212481376492       -8.36511840634632       -0.02306962924999
H           -8.02178565352933       -8.17589987029022        0.01809432084322
H           -8.98611306201806       -5.95948080193884        0.01520902840908
H           -8.85248420893597       -3.66190740055076        0.01021742955608
H           -8.84040781972953       -1.24056299741035        0.00426429623287
H            0.96610809299457        8.28471329621495        0.01110243618614
H            8.85248305275630        3.66191221772314        0.00872351989743
H            8.98611007055892        5.95948024550442        0.01602984281090
H            5.36775487205564        8.54596655665254        0.02072199258955