      -----------------------------------------------------------      
     |                   =====================                   |     
     |                           x T B                           |     
     |                   =====================                   |     
     |                         S. Grimme                         |     
     |          Mulliken Center for Theoretical Chemistry        |     
     |                    University of Bonn                     |     
      -----------------------------------------------------------      

   * xtb version 6.7.1pre (5071a88) compiled by 'Marcel@Raven' on 2024-07-23

   xtb is free software: you can redistribute it and/or modify it under
   the terms of the GNU Lesser General Public License as published by
   the Free Software Foundation, either version 3 of the License, or
   (at your option) any later version.
   
   xtb is distributed in the hope that it will be useful,
   but WITHOUT ANY WARRANTY; without even the implied warranty of
   MERCHANTABILITY or FITNESS FOR A PARTICULAR PURPOSE.  See the
   GNU Lesser General Public License for more details.
   
   Cite this work as:
   * C. Bannwarth, E. Caldeweyher, S. Ehlert, A. Hansen, P. Pracht,
     J. Seibert, S. Spicher, S. Grimme, WIREs Comput. Mol. Sci., 2020, 11,
     e01493. DOI: 10.1002/wcms.1493
   
   for GFN2-xTB:
   * C. Bannwarth, S. Ehlert and S. Grimme., J. Chem. Theory Comput., 2019,
     15, 1652-1671. DOI: 10.1021/acs.jctc.8b01176
   for GFN1-xTB:
   * S. Grimme, C. Bannwarth, P. Shushkov, J. Chem. Theory Comput., 2017,
     13, 1989-2009. DOI: 10.1021/acs.jctc.7b00118
   for GFN0-xTB:
   * P. Pracht, E. Caldeweyher, S. Ehlert, S. Grimme, ChemRxiv, 2019, preprint.
     DOI: 10.26434/chemrxiv.8326202.v1
   for GFN-FF:
   * S. Spicher and S. Grimme, Angew. Chem. Int. Ed., 2020, 59, 15665-15673.
     DOI: 10.1002/anie.202004239
   
   for ALPB and GBSA implicit solvation:
   * S. Ehlert, M. Stahn, S. Spicher, S. Grimme, J. Chem. Theory Comput.,
     2021, 17, 4250-4261. DOI: 10.1021/acs.jctc.1c00471
   
   for ddCOSMO and CPCM-X implicit solvation:
   * M. Stahn, S. Ehlert, S. Grimme, J. Phys. Chem. A,
     2023, XX, XXXX-XXXX. DOI: 10.1021/acs.jpca.3c04382
   
   for DFT-D4:
   * E. Caldeweyher, C. Bannwarth and S. Grimme, J. Chem. Phys., 2017,
     147, 034112. DOI: 10.1063/1.4993215
   * E. Caldeweyher, S. Ehlert, A. Hansen, H. Neugebauer, S. Spicher,
     C. Bannwarth and S. Grimme, J. Chem. Phys., 2019, 150, 154122.
     DOI: 10.1063/1.5090222
   * E. Caldeweyher, J.-M. Mewes, S. Ehlert and S. Grimme, Phys. Chem. Chem. Phys.
     2020, 22, 8499-8512. DOI: 10.1039/D0CP00502A
   
   for sTDA-xTB:
   * S. Grimme and C. Bannwarth, J. Chem. Phys., 2016, 145, 054103.
     DOI: 10.1063/1.4959605
   
   in the mass-spec context:
   * V. Asgeirsson, C. Bauer and S. Grimme, Chem. Sci., 2017, 8, 4879.
     DOI: 10.1039/c7sc00601b
   * J. Koopman and S. Grimme, ACS Omega 2019, 4, 12, 15120-15133.
     DOI: 10.1021/acsomega.9b02011
   
   for metadynamics refer to:
   * S. Grimme, J. Chem. Theory Comput., 2019, 155, 2847-2862
     DOI: 10.1021/acs.jctc.9b00143
   
   for SPH calculations refer to:
   * S. Spicher and S. Grimme, J. Chem. Theory Comput., 2021, 17, 1701-1714
     DOI: 10.1021/acs.jctc.0c01306
   
   for ONIOM refer to:
   * C. Plett, A. Katbashev, S. Ehlert, S. Grimme, M. Bursch,
     Phys. Chem. Chem. Phys., 2023, 25, 17860-17868. DOI: 10.1039/D3CP02178E
   
   for DIPRO refer to:
   * J. Kohn, N. Gildemeister, S. Grimme, D. Fazzi, A. Hansen,
     J. Chem. Phys., 2023, just accepted.
   
   for PTB refer to:
   * S. Grimme, M. Mueller, A. Hansen, J. Chem. Phys., 2023, 158, 124111.
     DOI: 10.1063/5.0137838
   
   with help from (in alphabetical order)
   P. Atkinson, C. Bannwarth, F. Bohle, G. Brandenburg, E. Caldeweyher
   M. Checinski, S. Dohm, S. Ehlert, S. Ehrlich, I. Gerasimov, C. Hölzer
   A. Katbashev, J. Kohn, J. Koopman, C. Lavigne, S. Lehtola, F. März, M. Müller,
   F. Musil, H. Neugebauer, J. Pisarek, C. Plett, P. Pracht, F. Pultar,
   J. Seibert, P. Shushkov, S. Spicher, M. Stahn, M. Steiner, T. Strunk,
   J. Stückrath, T. Rose, and J. Unsleber
   
 * started run on 2025/12/08 at 00:33:00.769     
   ID    Z sym.   atoms
    1    6 C      1-3, 5-40, 42-48, 50-73, 75-84, 86-101, 103, 104
    2    5 B      4, 41, 49, 74, 85, 102
    3    1 H      105-132

           -------------------------------------------------
          |                Calculation Setup                |
           -------------------------------------------------

          program call               : xtb "C:\Users\LENOVO GAMING\Documents\GitHub\molecular-conductivity-sim\dataset\1.5nm-6Bdoped-5percent.xyz" --opt --parallel 4
          coordinate file            : C:\Users\LENOVO GAMING\Documents\GitHub\molecular-conductivity-sim\dataset\1.5nm-6Bdoped-5percent.xyz
          omp threads                :                     4


           -------------------------------------------------
          |                 G F N 2 - x T B                 |
           -------------------------------------------------

        Reference                      10.1021/acs.jctc.8b01176
      * Hamiltonian:
        H0-scaling (s, p, d)           1.850000    2.230000    2.230000
        zeta-weighting                 0.500000
      * Dispersion:
        s8                             2.700000
        a1                             0.520000
        a2                             5.000000
        s9                             5.000000
      * Repulsion:
        kExp                           1.500000    1.000000
        rExp                           1.000000
      * Coulomb:
        alpha                          2.000000
        third order                    shell-resolved
        anisotropic                    true
        a3                             3.000000
        a5                             4.000000
        cn-shift                       1.200000
        cn-exp                         4.000000
        max-rad                        5.000000


          ...................................................
          :                      SETUP                      :
          :.................................................:
          :  # basis functions                 444          :
          :  # atomic orbitals                 444          :
          :  # shells                          236          :
          :  # electrons                       438          :
          :  max. iterations                   250          :
          :  Hamiltonian                  GFN2-xTB          :
          :  restarted?                      false          :
          :  GBSA solvation                  false          :
          :  PC potential                    false          :
          :  electronic temp.          300.0000000     K    :
          :  accuracy                    1.0000000          :
          :  -> integral cutoff          0.2500000E+02      :
          :  -> integral neglect         0.1000000E-07      :
          :  -> SCF convergence          0.1000000E-05 Eh   :
          :  -> wf. convergence          0.1000000E-03 e    :
          :  Broyden damping             0.4000000          :
          :  net charge                          0          :
          :  unpaired electrons                  0          :
          ...................................................

 iter      E             dE          RMSdq      gap      omega  full diag
   1   -235.7340250 -0.235734E+03  0.681E+00    0.37       0.0  T
   2   -236.1065665 -0.372541E+00  0.441E+00    0.32       1.0  T
   3   -235.2179348  0.888632E+00  0.240E+00    0.15       1.0  T
   4   -235.5595305 -0.341596E+00  0.169E+00    0.38       1.0  T
   5   -236.2719604 -0.712430E+00  0.760E-01    0.24       1.0  T
   6   -236.3434616 -0.715011E-01  0.454E-01    0.46       1.0  T
   7   -236.3447004 -0.123877E-02  0.270E-01    0.33       1.0  T
   8   -236.3328661  0.118343E-01  0.274E-01    0.45       1.0  T
   9   -236.3480212 -0.151551E-01  0.104E-01    0.36       1.0  T
  10   -236.3501922 -0.217096E-02  0.313E-02    0.38       1.0  T
  11   -236.3502847 -0.924872E-04  0.163E-02    0.38       1.0  T
  12   -236.3502766  0.808592E-05  0.981E-03    0.38       1.0  T
  13   -236.3502893 -0.127817E-04  0.501E-03    0.38       1.7  T
  14   -236.3502925 -0.310669E-05  0.181E-03    0.38       4.8  T
  15   -236.3502928 -0.334560E-06  0.576E-04    0.38      15.1  T
  16   -236.3502928 -0.296524E-07  0.356E-04    0.38      24.5  T

   *** convergence criteria satisfied after 16 iterations ***

         #    Occupation            Energy/Eh            Energy/eV
      -------------------------------------------------------------
         1        2.0000           -0.6639834             -18.0679
       ...           ...                  ...                  ...
       213        2.0000           -0.3752736             -10.2117
       214        2.0000           -0.3740628             -10.1788
       215        2.0000           -0.3732288             -10.1561
       216        2.0000           -0.3702199             -10.0742
       217        2.0000           -0.3619119              -9.8481
       218        2.0000           -0.3595456              -9.7837
       219        1.9986           -0.3543030              -9.6411 (HOMO)
       220        0.0014           -0.3404411              -9.2639 (LUMO)
       221                         -0.3133776              -8.5274
       222                         -0.3041907              -8.2775
       223                         -0.2960727              -8.0565
       224                         -0.2928064              -7.9677
       ...                                ...                  ...
       444                          0.7460455              20.3009
      -------------------------------------------------------------
                  HL-Gap            0.0138619 Eh            0.3772 eV
             Fermi-level           -0.3473700 Eh           -9.4524 eV

 SCC (total)                   0 d,  0 h,  0 min,  1.286 sec
 SCC setup                      ...        0 min,  0.003 sec (  0.233%)
 Dispersion                     ...        0 min,  0.007 sec (  0.544%)
 classical contributions        ...        0 min,  0.001 sec (  0.078%)
 integral evaluation            ...        0 min,  0.047 sec (  3.655%)
 iterations                     ...        0 min,  1.027 sec ( 79.860%)
 molecular gradient             ...        0 min,  0.195 sec ( 15.163%)
 printout                       ...        0 min,  0.006 sec (  0.467%)

         :::::::::::::::::::::::::::::::::::::::::::::::::::::
         ::                     SUMMARY                     ::
         :::::::::::::::::::::::::::::::::::::::::::::::::::::
         :: total energy            -232.138488735447 Eh    ::
         :: gradient norm              0.070388819813 Eh/a0 ::
         :: HOMO-LUMO gap              0.377201285905 eV    ::
         ::.................................................::
         :: SCC energy              -236.357883292147 Eh    ::
         :: -> isotropic ES            0.119243828982 Eh    ::
         :: -> anisotropic ES          0.023925512227 Eh    ::
         :: -> anisotropic XC          0.091237419530 Eh    ::
         :: -> dispersion             -0.280741225205 Eh    ::
         :: repulsion energy           4.219394556700 Eh    ::
         :: add. restraining           0.000000000000 Eh    ::
         :: total charge               0.000000000006 e     ::
         :::::::::::::::::::::::::::::::::::::::::::::::::::::

      ----------------------------------------------------------- 
     |                   =====================                   |
     |                        A N C O P T                        |
     |                   =====================                   |
     |               Approximate Normal Coordinate               |
     |                Rational Function Optimizer                |
      ----------------------------------------------------------- 
      ----------------------------------------------------------- 
     |                   =====================                   |
     |                        A N C O P T                        |
     |                   =====================                   |
     |               Approximate Normal Coordinate               |
     |                Rational Function Optimizer                |
      ----------------------------------------------------------- 

          ...................................................
          :                      SETUP                      :
          :.................................................:
          :   optimization level            normal          :
          :   max. optcycles                   396          :
          :   ANC micro-cycles                  20          :
          :   degrees of freedom               390          :
          :.................................................:
          :   RF solver                   davidson          :
          :   write xtbopt.log                true          :
          :   linear?                        false          :
          :   energy convergence         0.5000000E-05 Eh   :
          :   grad. convergence          0.1000000E-02 Eh/α :
          :   maxmium RF displ.          1.0000000          :
          :   Hlow (freq-cutoff)         0.1000000E-01      :
          :   Hmax (freq-cutoff)         5.0000000          :
          :   S6 in model hess.         20.0000000          :
          ...................................................

generating ANC from exact Hessian ...
Using Lindh-Hessian (1995)
 Shifting diagonal of input Hessian by   9.896308305008913E-003
 Lowest  eigenvalues of input Hessian
    0.000000    0.000000    0.000000    0.000000    0.000000    0.000000
    0.010000    0.010129    0.010191    0.010359    0.010420    0.011126
    0.011180    0.011300    0.011420    0.011726    0.012547    0.012613
 Highest eigenvalues
    2.052425    2.059807    2.072730    2.092457    2.116356    2.120462
 

........................................................................
.............................. CYCLE    1 ..............................
........................................................................

 iter      E             dE          RMSdq      gap      omega  full diag
   1   -236.3502928 -0.236350E+03  0.117E-04    0.38       0.0  T
   2   -236.3502928  0.935046E-09  0.124E-04    0.38      70.0  T
   3   -236.3502928 -0.209735E-08  0.548E-05    0.38     158.8  T
     SCC iter.                  ...        0 min,  0.193 sec
     gradient                   ...        0 min,  0.181 sec
 * total energy  :  -232.1384888 Eh     change       -0.2322136E-07 Eh
   gradient norm :     0.0703820 Eh/α   predicted     0.0000000E+00 (-100.00%)
   displ. norm   :     0.4540243 α      lambda       -0.1590095E-01
   maximum displ.:     0.2803877 α      in ANC's #47, #44, #71, ...

........................................................................
.............................. CYCLE    2 ..............................
........................................................................

 iter      E             dE          RMSdq      gap      omega  full diag
   1   -236.4868336 -0.236487E+03  0.119E-01    0.37       0.0  T
   2   -236.4838568  0.297675E-02  0.127E-01    0.35       1.0  T
   3   -236.4791838  0.467298E-02  0.181E-01    0.38       1.0  T
   4   -236.4867926 -0.760875E-02  0.353E-02    0.37       1.0  T
   5   -236.4870023 -0.209675E-03  0.106E-02    0.36       1.0  T
   6   -236.4870194 -0.171132E-04  0.476E-03    0.36       1.8  T
   7   -236.4870218 -0.238506E-05  0.288E-03    0.36       3.0  T
   8   -236.4870224 -0.670356E-06  0.144E-03    0.36       6.1  T
   9   -236.4870227 -0.301879E-06  0.544E-04    0.36      16.0  T
  10   -236.4870228 -0.484083E-07  0.210E-04    0.36      41.5  T
     SCC iter.                  ...        0 min,  0.600 sec
     gradient                   ...        0 min,  0.173 sec
 * total energy  :  -232.1500985 Eh     change       -0.1160974E-01 Eh
   gradient norm :     0.0283470 Eh/α   predicted    -0.9589937E-02 ( -17.40%)
   displ. norm   :     0.4464502 α      lambda       -0.6578417E-02
   maximum displ.:     0.2837912 α      in ANC's #47, #44, #71, ...

........................................................................
.............................. CYCLE    3 ..............................
........................................................................

 iter      E             dE          RMSdq      gap      omega  full diag
   1   -236.5958352 -0.236596E+03  0.935E-02    0.35       0.0  T
   2   -236.5943393  0.149587E-02  0.905E-02    0.33       1.0  T
   3   -236.5887174  0.562186E-02  0.171E-01    0.36       1.0  T
   4   -236.5958386 -0.712112E-02  0.218E-02    0.35       1.0  T
   5   -236.5959075 -0.689429E-04  0.783E-03    0.34       1.1  T
   6   -236.5959174 -0.990551E-05  0.340E-03    0.34       2.6  T
   7   -236.5959188 -0.137276E-05  0.213E-03    0.34       4.1  T
   8   -236.5959191 -0.309978E-06  0.102E-03    0.34       8.5  T
   9   -236.5959193 -0.202631E-06  0.435E-04    0.34      20.0  T
  10   -236.5959193 -0.374527E-07  0.163E-04    0.34      53.5  T
     SCC iter.                  ...        0 min,  0.616 sec
     gradient                   ...        0 min,  0.181 sec
 * total energy  :  -232.1540782 Eh     change       -0.3979711E-02 Eh
   gradient norm :     0.0087104 Eh/α   predicted    -0.3945212E-02 (  -0.87%)
   displ. norm   :     0.1783898 α      lambda       -0.7139331E-03
   maximum displ.:     0.1255010 α      in ANC's #47, #44, #22, ...

........................................................................
.............................. CYCLE    4 ..............................
........................................................................

 iter      E             dE          RMSdq      gap      omega  full diag
   1   -236.6281570 -0.236628E+03  0.363E-02    0.34       0.0  T
   2   -236.6281548  0.220996E-05  0.226E-02    0.34       1.0  T
   3   -236.6280567  0.981235E-04  0.207E-02    0.33       1.0  T
   4   -236.6281572 -0.100505E-03  0.451E-03    0.34       1.9  T
   5   -236.6281553  0.181961E-05  0.479E-03    0.34       1.8  T
   6   -236.6281611 -0.574372E-05  0.140E-03    0.34       6.2  T
   7   -236.6281615 -0.399307E-06  0.514E-04    0.34      16.9  T
   8   -236.6281615 -0.283087E-07  0.263E-04    0.34      33.0  T
     SCC iter.                  ...        0 min,  0.488 sec
     gradient                   ...        0 min,  0.185 sec
 * total energy  :  -232.1544888 Eh     change       -0.4105631E-03 Eh
   gradient norm :     0.0047370 Eh/α   predicted    -0.3683280E-03 ( -10.29%)
   displ. norm   :     0.0433673 α      lambda       -0.5924977E-04
   maximum displ.:     0.0255149 α      in ANC's #44, #47, #22, ...

........................................................................
.............................. CYCLE    5 ..............................
........................................................................

 iter      E             dE          RMSdq      gap      omega  full diag
   1   -236.6324976 -0.236632E+03  0.116E-02    0.34       0.0  T
   2   -236.6324776  0.200091E-04  0.114E-02    0.34       1.0  T
   3   -236.6324106  0.669820E-04  0.188E-02    0.34       1.0  T
   4   -236.6324867 -0.760876E-04  0.750E-03    0.34       1.2  T
   5   -236.6324992 -0.125187E-04  0.849E-04    0.34      10.3  T
   6   -236.6324994 -0.138468E-06  0.394E-04    0.34      22.1  T
   7   -236.6324994 -0.178221E-07  0.228E-04    0.34      38.2  T
     SCC iter.                  ...        0 min,  0.419 sec
     gradient                   ...        0 min,  0.176 sec
 * total energy  :  -232.1545204 Eh     change       -0.3163027E-04 Eh
   gradient norm :     0.0013835 Eh/α   predicted    -0.2969162E-04 (  -6.13%)
   displ. norm   :     0.0139265 α      lambda       -0.4275775E-05
   maximum displ.:     0.0095270 α      in ANC's #17, #32, #25, ...

........................................................................
.............................. CYCLE    6 ..............................
........................................................................

 iter      E             dE          RMSdq      gap      omega  full diag
   1   -236.6317581 -0.236632E+03  0.471E-03    0.34       0.0  T
   2   -236.6317543  0.379652E-05  0.467E-03    0.34       1.9  T
   3   -236.6317425  0.117679E-04  0.796E-03    0.34       1.1  T
   4   -236.6317565 -0.140341E-04  0.285E-03    0.34       3.1  T
   5   -236.6317583 -0.182319E-05  0.409E-04    0.34      21.3  T
   6   -236.6317584 -0.233437E-07  0.217E-04    0.34      40.1  T
   7   -236.6317584 -0.773201E-08  0.964E-05    0.34      90.3  T
     SCC iter.                  ...        0 min,  0.441 sec
     gradient                   ...        0 min,  0.184 sec
 * total energy  :  -232.1545223 Eh     change       -0.1847013E-05 Eh
   gradient norm :     0.0006678 Eh/α   predicted    -0.2158716E-05 (  16.88%)
   displ. norm   :     0.0054940 α      lambda       -0.9822012E-06
   maximum displ.:     0.0025680 α      in ANC's #47, #32, #22, ...

   *** GEOMETRY OPTIMIZATION CONVERGED AFTER 6 ITERATIONS ***

------------------------------------------------------------------------
 total energy gain   :        -0.0160335 Eh      -10.0612 kcal/mol
 total RMSD          :         0.0947192 a0        0.0501 Å
 total power (kW/mol):        -7.0159978 (step)   -9.6728 (real)
------------------------------------------------------------------------

 ANCopt (total)                0 d,  0 h,  0 min,  4.352 sec
 optimizer setup                ...        0 min,  0.001 sec (  0.023%)
 model hessian                  ...        0 min,  0.128 sec (  2.941%)
 ANC generation                 ...        0 min,  0.036 sec (  0.827%)
 coordinate transformation      ...        0 min,  0.000 sec (  0.000%)
 single point calculation       ...        0 min,  4.165 sec ( 95.703%)
 optimization log               ...        0 min,  0.015 sec (  0.345%)
 hessian update                 ...        0 min,  0.002 sec (  0.046%)
 rational function              ...        0 min,  0.005 sec (  0.115%)

================
 final structure:
================
132
 xtb: 6.7.1pre (5071a88)
C           -2.88967635230591       -7.30588765093637       -0.00000082931250
C            1.36503075489937       -7.34090043286707        0.00000084415298
C           -0.79204336907767       -6.11846828109453        0.00000004410933
B            5.71256020917608       -7.52991159515824        0.00000259308156
C            3.48083107172820       -6.16331525167785        0.00000216617610
C            1.34878301502910       -4.92088802639736        0.00000106506420
C           -5.77365166469032       -7.31786430032636       -0.00000128147409
C           -1.52997630461839       -7.31384071153300       -0.00000039543828
C           -3.61902425452918       -6.10509264703766       -0.00000085639127
C            2.72269321183472       -7.35422790530032        0.00000163706746
C            0.63504340141196       -6.13389425105174        0.00000065338909
C           -1.49330258342272       -4.89239890458406       -0.00000001262175
C            7.80619372837711       -6.18178066520564        0.00000491041232
C            5.59382701746373       -4.98548453521241        0.00000328045686
C            3.48257169789495       -3.71512873697413        0.00000200411009
C            7.70008427087185       -3.77231917037814        0.00000431564736
C            5.60107061070377       -2.51637042717317        0.00000283008888
C            7.72335331217737       -1.33837905632689        0.00000345024459
C            7.23509064463171       -7.40075038736716        0.00000458963402
C            4.90320384463936       -6.20687007317742        0.00000295860360
C            2.76941229069706       -4.93528591185328        0.00000177482833
C            0.64297479128512       -3.68536268064924        0.00000076907077
C            7.03541114296149       -4.96720860983586        0.00000411803205
C            4.89595335541891       -3.74275373731954        0.00000272995591
C            2.78130727461164       -2.47754773259681        0.00000151317716
C            7.02441875389335       -2.53260813190368        0.00000360684134
C            4.91410647862127       -1.28431459622845        0.00000209585301
C            7.05674246664920       -0.11499651359933        0.00000250106953
C           -7.14623410030694       -7.34459795857298       -0.00000136699706
C           -5.05458229750229       -6.11081852049517       -0.00000125321048
C           -7.18181537587018       -4.92403696507637       -0.00000189168077
C           -2.91430191788162       -4.88471865392532       -0.00000048330344
C           -5.03778724276814       -3.63995188346291       -0.00000117310350
C           -7.14934762365800       -2.34306252347801       -0.00000154774358
C           -0.76757879745209       -3.66982548254199        0.00000024171602
C           -2.88775675813097       -2.42482032646587       -0.00000067663254
C           -4.98725442126266       -1.17537107381791       -0.00000111242396
C           -7.07648098459722        0.08533732204254       -0.00000137245323
C           -7.84131391150408       -6.14679118910276       -0.00000142046068
C           -5.76101932311305       -4.88655916702533       -0.00000147515622
B           -7.98337482433929       -3.62442488386701       -0.00000179822382
C           -3.62699382465018       -3.64627079239539       -0.00000067662413
C           -5.72341294998624       -2.38661068385850       -0.00000126975968
C           -7.78215349598767       -1.12059905198061       -0.00000163510629
C            1.36502617109943       -2.46496221067479        0.00000088320076
C           -7.08972800638818        2.51725555653790       -0.00000124679389
C            1.53223670913022        7.42234292915786       -0.00000187718173
C           -0.74726588282708       -1.21647201647591        0.00000002698442
B            7.99443624325954        3.59688776512564        0.00000020740702
C           -2.85073361133419        0.03720882434611       -0.00000070653187
C            5.78295696774197        4.88408908210858       -0.00000044921073
C           -4.95904949735958        1.30220252897807       -0.00000119995918
C            3.65930057406357        6.12645609214573       -0.00000122307760
C            3.49415806809780       -1.25807719144604        0.00000151474912
C           -4.95734979482062        3.77301118821205       -0.00000103404401
C            1.39616974093584       -0.01382664433085        0.00000063772585
C           -7.06616828814694        5.09930520882658       -0.00000103856333
C           -0.71644195208683        1.24756920025985       -0.00000012662605
C            7.87931855314264        6.12047254381298       -0.00000100515973
C           -2.84212445500518        2.50197129384844       -0.00000085932776
C            5.82964954388586        7.32303969434720       -0.00000150317861
C            5.63689684290627       -0.07008677972383        0.00000194019508
C           -2.79505188479866        4.96582255674370       -0.00000087764736
C            3.54176887653038        1.20955778563895        0.00000081822511
C           -4.91594732732523        6.26500626699222       -0.00000114036514
C            1.42821583345535        2.43985181575539       -0.00000026886614
C           -7.20144887951064        7.55313445102589       -0.00000118905416
C           -0.69811729896316        3.69138725392042       -0.00000068791711
C            7.77617156935841        1.09145079030754        0.00000206551758
C           -0.66975663026053        6.21111181860038       -0.00000114333200
C            5.72647392505111        2.37626654538693        0.00000083628299
C           -2.76574381366131        7.41731331748904       -0.00000121244650
C            3.64837782181367        3.65567243683191       -0.00000019016976
B            1.47663260311583        4.93632320710337       -0.00000075947645
C           -1.46912092265523       -2.43577471829645       -0.00000026095376
C            7.15611208419473        2.31508863679102        0.00000111301741
C           -1.41936536316843        7.41542305379018       -0.00000156316040
C           -3.56902769941356       -1.18764254235500       -0.00000085610937
C            5.05955047337334        3.63469675654192        0.00000004750155
C           -5.66519527087519        0.06978524388405       -0.00000121759189
C            2.98309161091848        4.90983666288862       -0.00000073079838
C           -7.75096983441002        1.31466770484168       -0.00000144917005
C            0.72849738611945        6.25486795555132       -0.00000120732404
C            0.67186236483701       -1.23279122944184        0.00000050138458
B           -7.89031962987907        3.81814574263421       -0.00000106745487
C           -1.43911416126844        0.02224189656612       -0.00000026033108
C            7.20482355726929        4.90521768746125       -0.00000041615711
C           -3.54629912541571        1.27916524678492       -0.00000096787158
C            5.09247521161630        6.12667955735133       -0.00000107759964
C           -5.66136173064195        2.53464905277766       -0.00000111980459
C            2.89309997674992        7.34150330693946       -0.00000200428765
C            2.81041412054924       -0.01883910142292        0.00000098847786
C           -5.65865219230071        5.04567630502095       -0.00000109756264
C            0.70196574565066        1.22234620531494        0.00000033109857
C           -7.78785973433992        6.33411349685881       -0.00000096641382
C           -1.42564538910775        2.48039101551012       -0.00000059556642
C            7.20209562020014        7.32959002768402       -0.00000145655973
C           -3.54344499223923        3.74475306165020       -0.00000095567707
C            4.96901588913364        1.18036098484164        0.00000119705251
C           -3.51737301619453        6.20887764715846       -0.00000092943497
C            2.86982488163862        2.44563073122062        0.00000011263542
B           -5.68524588287522        7.62894506545051       -0.00000109351588
C            0.70423232079171        3.64460381633670       -0.00000055808619
C           -1.38769808653422        4.95664977213798       -0.00000096812417
H           -3.39742998286146       -8.25507505287529       -0.00000126765727
H            0.85046341305850       -8.28699146140482        0.00000049171470
H            5.23213829524523       -8.59795266815922        0.00000344727583
H           -5.25378240254896       -8.26131267603092       -0.00000110038640
H           -1.02830770047279       -8.26636624921739       -0.00000044335832
H            3.23556354659108       -8.29892109543048        0.00000191103122
H            8.88353921859415       -6.05395950528680        0.00000517632668
H            8.78193963120729       -3.75844424014296        0.00000501519677
H            8.80421273113105       -1.34907070064835        0.00000400171394
H            7.89023827638441       -8.26387537170078        0.00000440591299
H           -7.67218325294964       -8.28816456470450       -0.00000122747552
H           -8.92140810699242       -6.15217252542809       -0.00000174125545
H           -9.15376860419011       -3.60454137482250       -0.00000164286016
H           -8.86221905988760       -1.08424781814372       -0.00000169476102
H            1.09606849105085        8.41263981342707       -0.00000224235801
H            9.16518351919422        3.56887636065111        0.00000062682213
H            8.95965096130417        6.11209689823142       -0.00000071946149
H            5.31678537889366        8.27119110843448       -0.00000181381666
H           -7.84013043400789        8.42826189912231       -0.00000116402769
H            8.85593655099635        1.04348346017371        0.00000236391367
H           -3.28728939325409        8.35482903153332       -0.00000101418187
H           -0.89175261052882        8.35531539970040       -0.00000157697504
H           -8.83172841122843        1.30444214024571       -0.00000151181956
H           -9.06187559731787        3.81585034143810       -0.00000106315363
H            3.43006511729702        8.27771050162914       -0.00000248624578
H           -8.86766102322253        6.23873487166346       -0.00000069683121
H            7.74367710714083        8.26447864241143       -0.00000160873421
H           -5.17846355877170        8.68376723979963       -0.00000125218538
 
 Bond Distances (Angstroems)
 ---------------------------
C1-C8=1.3597         C1-C9=1.4049         C1-H105=1.0765       C2-C10=1.3577        C2-C11=1.4106        C2-H106=1.0770       
C3-C8=1.4048         C3-C11=1.4272        C3-C12=1.4124        B4-C19=1.5280        B4-C20=1.5510        B4-H107=1.1711       
C5-C10=1.4118        C5-C20=1.4230        C5-C21=1.4192        C6-C11=1.4074        C6-C21=1.4207        C6-C22=1.4229        
C7-C29=1.3728        C7-C30=1.4050        C7-H108=1.0772       C8-C1=1.3597         C8-C3=1.4048         C8-H109=1.0766       
C9-C1=1.4049         C9-C30=1.4356        C9-C32=1.4092        C10-C2=1.3577        C10-C5=1.4118        C10-H110=1.0749      
C11-C2=1.4106        C11-C3=1.4272        C11-C6=1.4074        C12-C3=1.4124        C12-C32=1.4210       C12-C35=1.4217       
C13-C19=1.3461       C13-C23=1.4385       C13-H111=1.0849      C14-C20=1.4031       C14-C23=1.4417       C14-C24=1.4253       
C15-C21=1.4133       C15-C24=1.4137       C15-C25=1.4225       C16-C23=1.3673       C16-C26=1.4119       C16-H112=1.0819      
C17-C24=1.4146       C17-C26=1.4234       C17-C27=1.4106       C18-C26=1.3837       C18-C28=1.3932       C18-H113=1.0809      
C19-B4=1.5280        C19-C13=1.3461       C19-H114=1.0836      C20-B4=1.5510        C20-C5=1.4230        C20-C14=1.4031       
C21-C5=1.4192        C21-C6=1.4207        C21-C15=1.4133       C22-C6=1.4229        C22-C35=1.4106       C22-C45=1.4180       
C23-C13=1.4385       C23-C14=1.4417       C23-C16=1.3673       C24-C14=1.4253       C24-C15=1.4137       C24-C17=1.4146       
C25-C15=1.4225       C25-C45=1.4163       C25-C54=1.4125       C26-C16=1.4119       C26-C17=1.4234       C26-C18=1.3837       
C27-C17=1.4106       C27-C54=1.4202       C27-C62=1.4131       C28-C18=1.3932       C28-C62=1.4206       C28-C69=1.4047       
C29-C7=1.3728        C29-C39=1.3849       C29-H115=1.0803      C30-C7=1.4050        C30-C9=1.4356        C30-C40=1.4135       
C31-C39=1.3893       C31-C40=1.4213       C31-B41=1.5269       C32-C9=1.4092        C32-C12=1.4210       C32-C42=1.4289       
C33-C40=1.4412       C33-C42=1.4108       C33-C43=1.4286       C34-B41=1.5289       C34-C43=1.4266       C34-C44=1.3765       
C35-C12=1.4217       C35-C22=1.4106       C35-C75=1.4195       C36-C42=1.4277       C36-C75=1.4187       C36-C78=1.4124       
C37-C43=1.4174       C37-C78=1.4183       C37-C80=1.4178       C38-C44=1.3972       C38-C80=1.4114       C38-C82=1.4022       
C39-C29=1.3849       C39-C31=1.3893       C39-H116=1.0801      C40-C30=1.4135       C40-C31=1.4213       C40-C33=1.4412       
B41-C31=1.5269       B41-C34=1.5289       B41-H117=1.1706      C42-C32=1.4289       C42-C33=1.4108       C42-C36=1.4277       
C43-C33=1.4286       C43-C34=1.4266       C43-C37=1.4174       C44-C34=1.3765       C44-C38=1.3972       C44-H118=1.0807      
C45-C22=1.4180       C45-C25=1.4163       C45-C84=1.4138       C46-C82=1.3724       C46-B85=1.5275       C46-C90=1.4285       
C47-C83=1.4174       C47-C91=1.3633       C47-H119=1.0821      C48-C75=1.4170       C48-C84=1.4192       C48-C86=1.4188       
B49-C76=1.5316       B49-C87=1.5281       B49-H120=1.1711      C50-C78=1.4199       C50-C86=1.4117       C50-C88=1.4235       
C51-C79=1.4437       C51-C87=1.4220       C51-C89=1.4215       C52-C80=1.4204       C52-C88=1.4129       C52-C90=1.4185       
C53-C81=1.3919       C53-C89=1.4332       C53-C91=1.4365       C54-C25=1.4125       C54-C27=1.4202       C54-C92=1.4154       
C55-C90=1.4245       C55-C93=1.4531       C55-C98=1.4142       C56-C84=1.4179       C56-C92=1.4143       C56-C94=1.4178       
C57-B85=1.5234       C57-C93=1.4085       C57-C95=1.4302       C58-C86=1.4226       C58-C94=1.4186       C58-C96=1.4223       
C59-C87=1.3899       C59-C97=1.3859       C59-H121=1.0804      C60-C88=1.4111       C60-C96=1.4166       C60-C98=1.4270       
C61-C89=1.4052       C61-C97=1.3725       C61-H122=1.0780      C62-C27=1.4131       C62-C28=1.4206       C62-C99=1.4176       
C63-C98=1.4322       C63-C100=1.4377      C63-C104=1.4074      C64-C92=1.4296       C64-C99=1.4275       C64-C101=1.4069      
C65-C93=1.4277       C65-C100=1.3997      C65-B102=1.5659      C66-C94=1.4177       C66-C101=1.4416      C66-C103=1.4056      
C67-C95=1.3527       C67-B102=1.5181      C67-H123=1.0834      C68-C96=1.4127       C68-C103=1.4031      C68-C104=1.4410      
C69-C28=1.4047       C69-C76=1.3718       C69-H124=1.0808      C70-C77=1.4185       C70-C83=1.3989       C70-C104=1.4454      
C71-C76=1.4309       C71-C79=1.4242       C71-C99=1.4156       C72-C77=1.3464       C72-C100=1.4231      C72-H125=1.0728      
C73-C79=1.4113       C73-C81=1.4197       C73-C101=1.4389      B74-C81=1.5067       B74-C83=1.5160       B74-C103=1.5050      
C75-C35=1.4195       C75-C36=1.4187       C75-C48=1.4170       C76-B49=1.5316       C76-C69=1.3718       C76-C71=1.4309       
C77-C70=1.4185       C77-C72=1.3464       C77-H126=1.0779      C78-C36=1.4124       C78-C37=1.4183       C78-C50=1.4199       
C79-C51=1.4437       C79-C71=1.4242       C79-C73=1.4113       C80-C37=1.4178       C80-C38=1.4114       C80-C52=1.4204       
C81-C53=1.3919       C81-C73=1.4197       C81-B74=1.5067       C82-C38=1.4022       C82-C46=1.3724       C82-H127=1.0808      
C83-C47=1.4174       C83-C70=1.3989       C83-B74=1.5160       C84-C45=1.4138       C84-C48=1.4192       C84-C56=1.4179       
B85-C46=1.5275       B85-C57=1.5234       B85-H128=1.1716      C86-C48=1.4188       C86-C50=1.4117       C86-C58=1.4226       
C87-B49=1.5281       C87-C51=1.4220       C87-C59=1.3899       C88-C50=1.4235       C88-C52=1.4129       C88-C60=1.4111       
C89-C51=1.4215       C89-C53=1.4332       C89-C61=1.4052       C90-C46=1.4285       C90-C52=1.4185       C90-C55=1.4245       
C91-C47=1.3633       C91-C53=1.4365       C91-H129=1.0793      C92-C54=1.4154       C92-C56=1.4143       C92-C64=1.4296       
C93-C55=1.4531       C93-C57=1.4085       C93-C65=1.4277       C94-C56=1.4178       C94-C58=1.4186       C94-C66=1.4177       
C95-C57=1.4302       C95-C67=1.3527       C95-H130=1.0840      C96-C58=1.4223       C96-C60=1.4166       C96-C68=1.4127       
C97-C59=1.3859       C97-C61=1.3725       C97-H131=1.0804      C98-C55=1.4142       C98-C60=1.4270       C98-C63=1.4322       
C99-C62=1.4176       C99-C64=1.4275       C99-C71=1.4156       C100-C63=1.4377      C100-C65=1.3997      C100-C72=1.4231      
C101-C64=1.4069      C101-C66=1.4416      C101-C73=1.4389      B102-C65=1.5659      B102-C67=1.5181      B102-H132=1.1702     
C103-C66=1.4056      C103-C68=1.4031      C103-B74=1.5050      C104-C63=1.4074      C104-C68=1.4410      C104-C70=1.4454      
H105-C1=1.0765       H106-C2=1.0770       H107-B4=1.1711       H108-C7=1.0772       H109-C8=1.0766       H110-C10=1.0749      
H111-C13=1.0849      H112-C16=1.0819      H113-C18=1.0809      H114-C19=1.0836      H115-C29=1.0803      H116-C39=1.0801      
H117-B41=1.1706      H118-C44=1.0807      H119-C47=1.0821      H120-B49=1.1711      H121-C59=1.0804      H122-C61=1.0780      
H123-C67=1.0834      H124-C69=1.0808      H125-C72=1.0728      H126-C77=1.0779      H127-C82=1.0808      H128-B85=1.1716      
H129-C91=1.0793      H130-C95=1.0840      H131-C97=1.0804      H132-B102=1.1702     
 B  H  Rav=1.1709 sigma=0.0005  Rmin=1.1702  Rmax=1.1716     5
 C  H  Rav=1.0798 sigma=0.0030  Rmin=1.0728  Rmax=1.0849    23
 C  B  Rav=1.5275 sigma=0.0157  Rmin=1.5050  Rmax=1.5659    13
 C  C  Rav=1.4125 sigma=0.0202  Rmin=1.3461  Rmax=1.4531   129
 
 selected bond angles (degree)
 --------------------
C9-C1-C8=121.61                H105-C1-C8=117.81              H105-C1-C9=120.58              C11-C2-C10=121.73              
H106-C2-C10=117.98             H106-C2-C11=120.29             C11-C3-C8=121.07               C12-C3-C8=118.54               
C12-C3-C11=120.39              C20-B4-C19=116.61              H107-B4-C19=119.07             H107-B4-C20=124.33             
C20-C5-C10=120.73              C21-C5-C10=117.43              C21-C5-C20=121.84              C21-C6-C11=119.89              
C22-C6-C11=119.79              C22-C6-C21=120.32              C30-C7-C29=121.90              H108-C7-C29=117.74             
H108-C7-C30=120.36             C3-C8-C1=121.35                H109-C8-C1=118.11              H109-C8-C3=120.54              
C30-C9-C1=121.05               C32-C9-C1=118.72               C32-C9-C30=120.23              C5-C10-C2=121.92               
H110-C10-C2=119.06             H110-C10-C5=119.02             
 
 selected dihedral angles (degree)
 ---------------------------------
C3-C8-C1-C9=  0.00            C3-C8-C1-H105=180.00          H109-C8-C1-C9=180.00          H109-C8-C1-H105=  0.00        
C1-C8-C3-C11=180.00           C1-C8-C3-C12=  0.00           H109-C8-C3-C11=  0.00         H109-C8-C3-C12=180.00         
C30-C9-C1-C8=180.00           C30-C9-C1-H105=  0.00         C32-C9-C1-C8=  0.00           C32-C9-C1-H105=180.00         
C5-C10-C2-C11=  0.00          C5-C10-C2-H106=180.00         H110-C10-C2-C11=180.00        H110-C10-C2-H106=  0.00       
C2-C10-C5-C20=180.00          C2-C10-C5-C21=  0.00          H110-C10-C5-C20=  0.00        H110-C10-C5-C21=180.00        
           -------------------------------------------------
          |                Final Singlepoint                |
           -------------------------------------------------

          ...................................................
          :                      SETUP                      :
          :.................................................:
          :  # basis functions                 444          :
          :  # atomic orbitals                 444          :
          :  # shells                          236          :
          :  # electrons                       438          :
          :  max. iterations                   250          :
          :  Hamiltonian                  GFN2-xTB          :
          :  restarted?                      false          :
          :  GBSA solvation                  false          :
          :  PC potential                    false          :
          :  electronic temp.          300.0000000     K    :
          :  accuracy                    1.0000000          :
          :  -> integral cutoff          0.2500000E+02      :
          :  -> integral neglect         0.1000000E-07      :
          :  -> SCF convergence          0.1000000E-05 Eh   :
          :  -> wf. convergence          0.1000000E-03 e    :
          :  Broyden damping             0.4000000          :
          :  net charge                          0          :
          :  unpaired electrons                  0          :
          ...................................................

 iter      E             dE          RMSdq      gap      omega  full diag
   1   -236.6317584 -0.236632E+03  0.421E-05    0.34       0.0  T
   2   -236.6317584  0.299664E-08  0.112E-04    0.34      77.7  T
   3   -236.6317584 -0.258350E-08  0.545E-05    0.34     159.8  T

   *** convergence criteria satisfied after 3 iterations ***

         #    Occupation            Energy/Eh            Energy/eV
      -------------------------------------------------------------
         1        2.0000           -0.6668628             -18.1463
       ...           ...                  ...                  ...
       213        2.0000           -0.3749907             -10.2040
       214        2.0000           -0.3735242             -10.1641
       215        2.0000           -0.3723033             -10.1309
       216        2.0000           -0.3687947             -10.0354
       217        2.0000           -0.3616391              -9.8407
       218        2.0000           -0.3593380              -9.7781
       219        1.9972           -0.3537884              -9.6271 (HOMO)
       220        0.0028           -0.3413327              -9.2881 (LUMO)
       221                         -0.3127648              -8.5108
       222                         -0.3033400              -8.2543
       223                         -0.2948475              -8.0232
       224                         -0.2914176              -7.9299
       ...                                ...                  ...
       444                          0.7772679              21.1505
      -------------------------------------------------------------
                  HL-Gap            0.0124557 Eh            0.3389 eV
             Fermi-level           -0.3475591 Eh           -9.4576 eV

 SCC (total)                   0 d,  0 h,  0 min,  0.420 sec
 SCC setup                      ...        0 min,  0.002 sec (  0.476%)
 Dispersion                     ...        0 min,  0.003 sec (  0.714%)
 classical contributions        ...        0 min,  0.001 sec (  0.238%)
 integral evaluation            ...        0 min,  0.045 sec ( 10.714%)
 iterations                     ...        0 min,  0.184 sec ( 43.810%)
 molecular gradient             ...        0 min,  0.180 sec ( 42.857%)
 printout                       ...        0 min,  0.005 sec (  1.190%)

         :::::::::::::::::::::::::::::::::::::::::::::::::::::
         ::                     SUMMARY                     ::
         :::::::::::::::::::::::::::::::::::::::::::::::::::::
         :: total energy            -232.154522250905 Eh    ::
         :: gradient norm              0.000665482150 Eh/a0 ::
         :: HOMO-LUMO gap              0.338936647491 eV    ::
         ::.................................................::
         :: SCC energy              -236.639488707403 Eh    ::
         :: -> isotropic ES            0.119871806125 Eh    ::
         :: -> anisotropic ES          0.023404718961 Eh    ::
         :: -> anisotropic XC          0.085010779297 Eh    ::
         :: -> dispersion             -0.284093268330 Eh    ::
         :: repulsion energy           4.484966456498 Eh    ::
         :: add. restraining           0.000000000000 Eh    ::
         :: total charge               0.000000000007 e     ::
         :::::::::::::::::::::::::::::::::::::::::::::::::::::

           -------------------------------------------------
          |                Property Printout                |
           -------------------------------------------------

    * Orbital Energies and Occupations

         #    Occupation            Energy/Eh            Energy/eV
      -------------------------------------------------------------
         1        2.0000           -0.6668628             -18.1463
       ...           ...                  ...                  ...
       207        2.0000           -0.3854131             -10.4876
       208        2.0000           -0.3844978             -10.4627
       209        2.0000           -0.3836551             -10.4398
       210        2.0000           -0.3825405             -10.4095
       211        2.0000           -0.3823161             -10.4034
       212        2.0000           -0.3758229             -10.2267
       213        2.0000           -0.3749907             -10.2040
       214        2.0000           -0.3735242             -10.1641
       215        2.0000           -0.3723033             -10.1309
       216        2.0000           -0.3687947             -10.0354
       217        2.0000           -0.3616391              -9.8407
       218        2.0000           -0.3593380              -9.7781
       219        1.9972           -0.3537884              -9.6271 (HOMO)
       220        0.0028           -0.3413327              -9.2881 (LUMO)
       221                         -0.3127648              -8.5108
       222                         -0.3033400              -8.2543
       223                         -0.2948475              -8.0232
       224                         -0.2914176              -7.9299
       225                         -0.2775690              -7.5530
       226                         -0.2673450              -7.2748
       227                         -0.2648881              -7.2080
       228                         -0.2610884              -7.1046
       229                         -0.2508943              -6.8272
       230                         -0.2498343              -6.7983
       ...                                ...                  ...
       444                          0.7772679              21.1505
      -------------------------------------------------------------
                  HL-Gap            0.0124557 Eh            0.3389 eV
             Fermi-level           -0.3475591 Eh           -9.4576 eV

     #   Z          covCN         q      C6AA      α(0)
     1   6 C        2.920    -0.038    28.933     8.821
     2   6 C        2.917    -0.036    28.895     8.815
     3   6 C        2.984     0.005    27.895     8.664
     4   5 B        2.755     0.211    18.172     7.133
     5   6 C        2.981     0.013    27.710     8.635
     6   6 C        2.990     0.000    28.013     8.682
     7   6 C        2.926    -0.028    28.711     8.787
     8   6 C        2.919    -0.036    28.886     8.814
     9   6 C        2.982     0.007    27.860     8.658
    10   6 C        2.919    -0.040    28.991     8.830
    11   6 C        2.983     0.005    27.894     8.663
    12   6 C        2.989     0.000    28.008     8.681
    13   6 C        2.909    -0.025    28.628     8.773
    14   6 C        2.982     0.005    27.913     8.666
    15   6 C        2.989     0.004    27.921     8.668
    16   6 C        2.930    -0.031    28.779     8.798
    17   6 C        2.993     0.001    27.998     8.680
    18   6 C        2.928    -0.035    28.874     8.812
    19   6 C        2.819    -0.110    30.776     9.090
    20   6 C        2.887    -0.075    29.861     8.959
    21   6 C        2.990    -0.000    28.031     8.685
    22   6 C        2.986     0.001    28.006     8.681
    23   6 C        2.972     0.008    27.843     8.655
    24   6 C        2.986     0.000    28.012     8.682
    25   6 C        2.986    -0.001    28.053     8.688
    26   6 C        2.980     0.008    27.824     8.652
    27   6 C        2.988    -0.001    28.038     8.686
    28   6 C        2.981     0.008    27.835     8.654
    29   6 C        2.910    -0.032    28.789     8.798
    30   6 C        2.980     0.005    27.894     8.663
    31   6 C        2.892    -0.071    29.766     8.945
    32   6 C        2.987     0.001    28.002     8.680
    33   6 C        2.975    -0.004    28.119     8.698
    34   6 C        2.889    -0.072    29.802     8.950
    35   6 C        2.986    -0.000    28.026     8.684
    36   6 C        2.984    -0.000    28.032     8.685
    37   6 C        2.986    -0.000    28.031     8.685
    38   6 C        2.981     0.006    27.871     8.660
    39   6 C        2.924    -0.023    28.580     8.767
    40   6 C        2.980     0.006    27.884     8.662
    41   5 B        2.759     0.212    18.151     7.128
    42   6 C        2.981     0.004    27.928     8.669
    43   6 C        2.981     0.007    27.864     8.659
    44   6 C        2.926    -0.025    28.639     8.776
    45   6 C        2.988     0.001    27.995     8.679
    46   6 C        2.889    -0.072    29.802     8.950
    47   6 C        2.901    -0.034    28.839     8.805
    48   6 C        2.986    -0.000    28.033     8.685
    49   5 B        2.759     0.213    18.136     7.125
    50   6 C        2.985    -0.002    28.058     8.689
    51   6 C        2.979     0.008    27.829     8.653
    52   6 C        2.987     0.001    27.995     8.679
    53   6 C        2.970     0.012    27.754     8.641
    54   6 C        2.988     0.001    28.002     8.680
    55   6 C        2.972    -0.003    28.100     8.695
    56   6 C        2.986     0.000    28.014     8.682
    57   6 C        2.885    -0.067    29.675     8.931
    58   6 C        2.985     0.002    27.967     8.675
    59   6 C        2.923    -0.023    28.580     8.767
    60   6 C        2.985    -0.002    28.068     8.690
    61   6 C        2.924    -0.028    28.696     8.785
    62   6 C        2.993     0.005    27.897     8.664
    63   6 C        2.980     0.007    27.859     8.658
    64   6 C        2.983     0.002    27.968     8.675
    65   6 C        2.889    -0.065    29.620     8.923
    66   6 C        2.979     0.007    27.864     8.659
    67   6 C        2.818    -0.112    30.835     9.098
    68   6 C        2.979    -0.000    28.031     8.685
    69   6 C        2.925    -0.026    28.660     8.779
    70   6 C        2.972     0.016    27.657     8.626
    71   6 C        2.981     0.006    27.879     8.661
    72   6 C        2.918    -0.042    29.048     8.838
    73   6 C        2.977     0.005    27.898     8.664
    74   5 B        2.751     0.192    18.453     7.189
    75   6 C        2.985     0.001    27.999     8.680
    76   6 C        2.887    -0.072    29.781     8.947
    77   6 C        2.916    -0.032    28.792     8.799
    78   6 C        2.987    -0.001    28.048     8.687
    79   6 C        2.976    -0.005    28.133     8.700
    80   6 C        2.995     0.007    27.851     8.657
    81   6 C        2.903    -0.080    29.998     8.981
    82   6 C        2.926    -0.023    28.575     8.766
    83   6 C        2.892    -0.061    29.512     8.907
    84   6 C        2.986    -0.001    28.053     8.688
    85   5 B        2.761     0.208    18.206     7.139
    86   6 C        2.986     0.001    28.003     8.680
    87   6 C        2.890    -0.072    29.801     8.950
    88   6 C        2.988    -0.000    28.029     8.684
    89   6 C        2.978     0.007    27.863     8.659
    90   6 C        2.981     0.002    27.970     8.675
    91   6 C        2.912    -0.038    28.947     8.822
    92   6 C        2.984    -0.001    28.035     8.685
    93   6 C        2.966     0.006    27.878     8.661
    94   6 C        2.987     0.001    28.007     8.681
    95   6 C        2.904    -0.021    28.537     8.759
    96   6 C        2.987     0.000    28.010     8.682
    97   6 C        2.910    -0.032    28.810     8.801
    98   6 C        2.980     0.001    28.008     8.681
    99   6 C        2.983    -0.002    28.069     8.691
   100   6 C        2.976     0.022    27.518     8.605
   101   6 C        2.975    -0.007    28.185     8.708
   102   5 B        2.756     0.214    18.125     7.124
   103   6 C        2.902    -0.077    29.928     8.970
   104   6 C        2.975     0.001    27.989     8.678
   105   1 H        0.926     0.035     2.511     2.478
   106   1 H        0.926     0.035     2.515     2.480
   107   1 H        0.939    -0.110     5.935     3.809
   108   1 H        0.926     0.035     2.519     2.482
   109   1 H        0.926     0.037     2.492     2.468
   110   1 H        0.926     0.047     2.356     2.400
   111   1 H        0.925     0.022     2.696     2.568
   112   1 H        0.925     0.036     2.505     2.475
   113   1 H        0.926     0.037     2.488     2.467
   114   1 H        0.925     0.018     2.759     2.598
   115   1 H        0.926     0.029     2.594     2.519
   116   1 H        0.926     0.035     2.516     2.480
   117   1 H        0.939    -0.104     5.691     3.730
   118   1 H        0.926     0.038     2.472     2.459
   119   1 H        0.925     0.023     2.686     2.563
   120   1 H        0.939    -0.106     5.754     3.750
   121   1 H        0.926     0.033     2.546     2.495
   122   1 H        0.926     0.034     2.533     2.489
   123   1 H        0.925     0.016     2.800     2.617
   124   1 H        0.926     0.036     2.500     2.473
   125   1 H        0.926     0.050     2.320     2.382
   126   1 H        0.926     0.039     2.461     2.453
   127   1 H        0.926     0.039     2.464     2.455
   128   1 H        0.938    -0.108     5.859     3.784
   129   1 H        0.926     0.031     2.572     2.508
   130   1 H        0.925     0.025     2.662     2.551
   131   1 H        0.926     0.027     2.623     2.533
   132   1 H        0.939    -0.111     5.969     3.820

 Mol. C6AA /au·bohr⁶  :     355707.375245
 Mol. C8AA /au·bohr⁸  :    9851277.308727
 Mol. α(0) /au        :        975.486362


Wiberg/Mayer (AO) data.
largest (>0.10) Wiberg bond orders for each atom

 ---------------------------------------------------------------------------
     #   Z sym  total        # sym  WBO       # sym  WBO       # sym  WBO
 ---------------------------------------------------------------------------
     1   6 C    3.966 --     8 C    1.547     9 C    1.292   105 H    0.958
     2   6 C    3.971 --    10 C    1.577    11 C    1.267   106 H    0.958
     3   6 C    3.958 --     8 C    1.287    12 C    1.280    11 C    1.193
     4   5 B    3.344 --    19 C    1.099    20 C    1.063   107 H    0.962
     5   6 C    3.965 --    10 C    1.258    20 C    1.256    21 C    1.255
     6   6 C    3.978 --    11 C    1.292    21 C    1.240    22 C    1.221
     7   6 C    3.975 --    29 C    1.487    30 C    1.327   108 H    0.959
     8   6 C    3.961 --     1 C    1.547     3 C    1.287   109 H    0.958
     9   6 C    3.960 --    32 C    1.301     1 C    1.292    30 C    1.163
    10   6 C    3.951 --     2 C    1.577     5 C    1.258   110 H    0.960
    11   6 C    3.946 --     6 C    1.292     2 C    1.267     3 C    1.193
    12   6 C    3.976 --     3 C    1.280    32 C    1.248    35 C    1.224
    13   6 C    3.975 --    19 C    1.735    23 C    1.145   111 H    0.964
    14   6 C    3.967 --    20 C    1.363    24 C    1.235    23 C    1.154
    15   6 C    3.978 --    24 C    1.263    21 C    1.255    25 C    1.227
    16   6 C    3.969 --    23 C    1.519    26 C    1.231   112 H    0.964
    17   6 C    3.960 --    27 C    1.279    24 C    1.252    26 C    1.202
    18   6 C    3.898 --    26 C    1.385    28 C    1.333   113 H    0.965
    19   6 C    3.933 --    13 C    1.735     4 B    1.099   114 H    0.972
    20   6 C    3.883 --    14 C    1.363     5 C    1.256     4 B    1.063
    21   6 C    3.976 --     5 C    1.255    15 C    1.255     6 C    1.240
    22   6 C    3.960 --    35 C    1.284    45 C    1.237     6 C    1.221
    23   6 C    3.970 --    16 C    1.519    14 C    1.154    13 C    1.145
    24   6 C    3.967 --    15 C    1.263    17 C    1.252    14 C    1.235
    25   6 C    3.960 --    54 C    1.267    45 C    1.248    15 C    1.227
    26   6 C    3.975 --    18 C    1.385    16 C    1.231    17 C    1.202
    27   6 C    3.978 --    17 C    1.279    62 C    1.259    54 C    1.217
    28   6 C    3.974 --    18 C    1.333    69 C    1.260    62 C    1.220
    29   6 C    3.976 --     7 C    1.487    39 C    1.393   115 H    0.970
    30   6 C    3.972 --     7 C    1.327    40 C    1.289     9 C    1.163
    31   6 C    3.951 --    39 C    1.424    40 C    1.275    41 B    1.073
    32   6 C    3.983 --     9 C    1.301    12 C    1.248    42 C    1.205
    33   6 C    3.952 --    42 C    1.318    43 C    1.226    40 C    1.188
    34   6 C    3.932 --    44 C    1.471    43 C    1.233    41 B    1.066
    35   6 C    3.963 --    22 C    1.284    75 C    1.234    12 C    1.224
    36   6 C    3.958 --    78 C    1.271    75 C    1.249    42 C    1.222
    37   6 C    3.973 --    43 C    1.273    80 C    1.250    78 C    1.232
    38   6 C    3.970 --    44 C    1.293    82 C    1.265    80 C    1.248
    39   6 C    3.968 --    31 C    1.424    29 C    1.393   116 H    0.969
    40   6 C    3.973 --    30 C    1.289    31 C    1.275    33 C    1.188
    41   5 B    3.348 --    31 C    1.073    34 C    1.066   117 H    0.970
    42   6 C    3.974 --    33 C    1.318    36 C    1.222    32 C    1.205
    43   6 C    3.949 --    37 C    1.273    34 C    1.233    33 C    1.226
    44   6 C    3.948 --    34 C    1.471    38 C    1.293   118 H    0.966
    45   6 C    3.961 --    84 C    1.260    25 C    1.248    22 C    1.237
    46   6 C    3.933 --    82 C    1.498    90 C    1.215    85 B    1.057
    47   6 C    3.965 --    91 C    1.607    83 C    1.248   119 H    0.959
    48   6 C    3.961 --    75 C    1.259    86 C    1.243    84 C    1.242
    49   5 B    3.351 --    87 C    1.077    76 C    1.060   120 H    0.970
    50   6 C    3.959 --    86 C    1.274    78 C    1.242    88 C    1.225
    51   6 C    3.970 --    87 C    1.276    89 C    1.275    79 C    1.193
    52   6 C    3.969 --    90 C    1.267    88 C    1.249    80 C    1.236
    53   6 C    3.950 --    81 C    1.387    91 C    1.186    89 C    1.179
    54   6 C    3.957 --    25 C    1.267    92 C    1.259    27 C    1.217
    55   6 C    3.938 --    98 C    1.311    90 C    1.255    93 C    1.158
    56   6 C    3.961 --    92 C    1.268    84 C    1.244    94 C    1.233
    57   6 C    3.797 --    93 C    1.359    95 C    1.208    85 B    1.089
    58   6 C    3.966 --    94 C    1.264    96 C    1.246    86 C    1.229
    59   6 C    3.965 --    87 C    1.423    97 C    1.390   121 H    0.970
    60   6 C    3.965 --    88 C    1.268    96 C    1.244    98 C    1.230
    61   6 C    3.972 --    97 C    1.489    89 C    1.322   122 H    0.959
    62   6 C    3.961 --    27 C    1.259    99 C    1.253    28 C    1.220
    63   6 C    3.963 --   104 C    1.356    98 C    1.206   100 C    1.181
    64   6 C    3.966 --   101 C    1.322    99 C    1.213    92 C    1.212
    65   6 C    3.835 --   100 C    1.379    93 C    1.245   102 B    1.023
    66   6 C    3.950 --   103 C    1.302    94 C    1.247   101 C    1.193
    67   6 C    3.873 --    95 C    1.667   102 B    1.116   123 H    0.973
    68   6 C    3.955 --   103 C    1.314    96 C    1.255   104 C    1.182
    69   6 C    3.945 --    76 C    1.507    28 C    1.260   124 H    0.966
    70   6 C    3.950 --    83 C    1.354    77 C    1.213   104 C    1.181
    71   6 C    3.950 --    99 C    1.286    79 C    1.235    76 C    1.210
    72   6 C    3.949 --    77 C    1.636   100 C    1.204   125 H    0.956
    73   6 C    3.968 --    79 C    1.305    81 C    1.232   101 C    1.210
    74   5 B    3.415 --    81 C    1.082   103 C    1.068    83 C    1.041
    75   6 C    3.955 --    48 C    1.259    36 C    1.249    35 C    1.234
    76   6 C    3.937 --    69 C    1.507    71 C    1.210    49 B    1.060
    77   6 C    3.970 --    72 C    1.636    70 C    1.213   126 H    0.960
    78   6 C    3.965 --    36 C    1.271    50 C    1.242    37 C    1.232
    79   6 C    3.953 --    73 C    1.305    71 C    1.235    51 C    1.193
    80   6 C    3.974 --    37 C    1.250    38 C    1.248    52 C    1.236
    81   6 C    3.934 --    53 C    1.387    73 C    1.232    74 B    1.082
    82   6 C    3.945 --    46 C    1.498    38 C    1.265   127 H    0.965
    83   6 C    3.814 --    70 C    1.354    47 C    1.248    74 B    1.041
    84   6 C    3.964 --    45 C    1.260    56 C    1.244    48 C    1.242
    85   5 B    3.326 --    57 C    1.089    46 C    1.057   128 H    0.969
    86   6 C    3.962 --    50 C    1.274    48 C    1.243    58 C    1.229
    87   6 C    3.953 --    59 C    1.423    51 C    1.276    49 B    1.077
    88   6 C    3.969 --    60 C    1.268    52 C    1.249    50 C    1.225
    89   6 C    3.969 --    61 C    1.322    51 C    1.275    53 C    1.179
    90   6 C    3.963 --    52 C    1.267    55 C    1.255    46 C    1.215
    91   6 C    3.883 --    47 C    1.607    53 C    1.186   129 H    0.960
    92   6 C    3.955 --    56 C    1.268    54 C    1.259    64 C    1.212
    93   6 C    3.977 --    57 C    1.359    65 C    1.245    55 C    1.158
    94   6 C    3.961 --    58 C    1.264    66 C    1.247    56 C    1.233
    95   6 C    3.974 --    67 C    1.667    57 C    1.208   130 H    0.966
    96   6 C    3.963 --    68 C    1.255    58 C    1.246    60 C    1.244
    97   6 C    3.977 --    61 C    1.489    59 C    1.390   131 H    0.970
    98   6 C    3.972 --    55 C    1.311    60 C    1.230    63 C    1.206
    99   6 C    3.974 --    71 C    1.286    62 C    1.253    64 C    1.213
   100   6 C    3.968 --    65 C    1.379    72 C    1.204    63 C    1.181
   101   6 C    3.951 --    64 C    1.322    73 C    1.210    66 C    1.193
   102   5 B    3.299 --    67 C    1.116    65 C    1.023   132 H    0.959
   103   6 C    3.896 --    68 C    1.314    66 C    1.302    74 B    1.068
   104   6 C    3.933 --    63 C    1.356    68 C    1.182    70 C    1.181
   105   1 H    0.998 --     1 C    0.958
   106   1 H    0.998 --     2 C    0.958
   107   1 H    0.987 --     4 B    0.962
   108   1 H    0.998 --     7 C    0.959
   109   1 H    0.997 --     8 C    0.958
   110   1 H    0.996 --    10 C    0.960
   111   1 H    0.999 --    13 C    0.964
   112   1 H    0.997 --    16 C    0.964
   113   1 H    0.997 --    18 C    0.965
   114   1 H    0.998 --    19 C    0.972
   115   1 H    0.998 --    29 C    0.970
   116   1 H    0.998 --    39 C    0.969
   117   1 H    0.989 --    41 B    0.970
   118   1 H    0.997 --    44 C    0.966
   119   1 H    0.998 --    47 C    0.959
   120   1 H    0.988 --    49 B    0.970
   121   1 H    0.998 --    59 C    0.970
   122   1 H    0.998 --    61 C    0.959
   123   1 H    0.999 --    67 C    0.973
   124   1 H    0.997 --    69 C    0.966
   125   1 H    0.996 --    72 C    0.956
   126   1 H    0.997 --    77 C    0.960
   127   1 H    0.997 --    82 C    0.965
   128   1 H    0.988 --    85 B    0.969
   129   1 H    0.998 --    91 C    0.960
   130   1 H    0.999 --    95 C    0.966
   131   1 H    0.998 --    97 C    0.970
   132   1 H    0.987 --   102 B    0.959
 ---------------------------------------------------------------------------

Topologies differ in total number of bonds
Writing topology from bond orders to xtbtopo.mol

molecular dipole:
                 x           y           z       tot (Debye)
 q only:        0.256      -0.390      -0.000
   full:        0.530      -0.440      -0.000       1.751
molecular quadrupole (traceless):
                xx          xy          yy          xz          yz          zz
 q only:       -1.430      27.280       5.696      -0.000       0.000      -4.266
  q+dip:       21.695      32.440      29.775      -0.000       0.000     -51.471
   full:       -2.573      31.889       6.784      -0.000       0.000      -4.211

           -------------------------------------------------
          |                Geometry Summary                 |
           -------------------------------------------------

      molecular mass/u    :     1270.1406275
   center of mass at/Å    :       -0.0040529       0.0057004       0.0000000
  moments of inertia/u·Å² :        0.2772675E+05   0.3108346E+05   0.5881021E+05
rotational constants/cm⁻¹ :        0.6079917E-03   0.5423345E-03   0.2866447E-03

 * 157 selected distances

     #   Z          #   Z                                           value/Å
     1   6 C        8   6 C                                       1.3597234
     3   6 C        8   6 C                                       1.4047991
     1   6 C        9   6 C                                       1.4049403
     2   6 C       10   6 C                                       1.3577280
     5   6 C       10   6 C                                       1.4117529
     2   6 C       11   6 C                                       1.4105835
     3   6 C       11   6 C                                       1.4271703
     6   6 C       11   6 C                                       1.4074121
     3   6 C       12   6 C                                       1.4124486
     4   5 B       19   6 C                                       1.5279993
    13   6 C       19   6 C                                       1.3461227
     4   5 B       20   6 C                                       1.5509665 (max)
     5   6 C       20   6 C                                       1.4230396
    14   6 C       20   6 C                                       1.4031192
     5   6 C       21   6 C                                       1.4192157
     6   6 C       21   6 C                                       1.4207024
    15   6 C       21   6 C                                       1.4132870
     6   6 C       22   6 C                                       1.4229155
    16   6 C       23   6 C                                       1.3673154
    14   6 C       24   6 C                                       1.4252747
    15   6 C       24   6 C                                       1.4136517
    17   6 C       24   6 C                                       1.4146401
    15   6 C       25   6 C                                       1.4224552
    16   6 C       26   6 C                                       1.4118809
    17   6 C       26   6 C                                       1.4234409
    18   6 C       26   6 C                                       1.3837243
    17   6 C       27   6 C                                       1.4106317
    18   6 C       28   6 C                                       1.3932104
     7   6 C       29   6 C                                       1.3728429
     7   6 C       30   6 C                                       1.4049984
     9   6 C       32   6 C                                       1.4092362
    12   6 C       32   6 C                                       1.4210202
    12   6 C       35   6 C                                       1.4217458
    22   6 C       35   6 C                                       1.4106393
    29   6 C       39   6 C                                       1.3848745
    31   6 C       39   6 C                                       1.3892684
    30   6 C       40   6 C                                       1.4134584
    31   6 C       40   6 C                                       1.4212904
    31   6 C       41   5 B                                       1.5269216
    34   6 C       41   5 B                                       1.5288856
    32   6 C       42   6 C                                       1.4288748
    33   6 C       42   6 C                                       1.4108077
    36   6 C       42   6 C                                       1.4277300
    33   6 C       43   6 C                                       1.4286172
    34   6 C       43   6 C                                       1.4265996
    37   6 C       43   6 C                                       1.4174030
    34   6 C       44   6 C                                       1.3765393
    38   6 C       44   6 C                                       1.3972318
    22   6 C       45   6 C                                       1.4180042
    25   6 C       45   6 C                                       1.4163372
    25   6 C       54   6 C                                       1.4125385
    27   6 C       54   6 C                                       1.4201909
    27   6 C       62   6 C                                       1.4130731
    28   6 C       62   6 C                                       1.4205558
    28   6 C       69   6 C                                       1.4046685
    35   6 C       75   6 C                                       1.4195221
    36   6 C       75   6 C                                       1.4186783
    48   6 C       75   6 C                                       1.4169595
    49   5 B       76   6 C                                       1.5315994
    69   6 C       76   6 C                                       1.3717739
    71   6 C       76   6 C                                       1.4309467
    70   6 C       77   6 C                                       1.4185483
    72   6 C       77   6 C                                       1.3463799
    36   6 C       78   6 C                                       1.4123524
    37   6 C       78   6 C                                       1.4182799
    50   6 C       78   6 C                                       1.4199323
    71   6 C       79   6 C                                       1.4242310
    73   6 C       79   6 C                                       1.4113287
    37   6 C       80   6 C                                       1.4177512
    38   6 C       80   6 C                                       1.4113715
    52   6 C       80   6 C                                       1.4203854
    53   6 C       81   6 C                                       1.3919130
    73   6 C       81   6 C                                       1.4196950
    74   5 B       81   6 C                                       1.5066920
    38   6 C       82   6 C                                       1.4022085
    46   6 C       82   6 C                                       1.3723916
    47   6 C       83   6 C                                       1.4173902
    70   6 C       83   6 C                                       1.3989386
    74   5 B       83   6 C                                       1.5160036
    45   6 C       84   6 C                                       1.4137616
    48   6 C       84   6 C                                       1.4192222
    56   6 C       84   6 C                                       1.4179197
    46   6 C       85   5 B                                       1.5275021
    57   6 C       85   5 B                                       1.5233501
    48   6 C       86   6 C                                       1.4188258
    50   6 C       86   6 C                                       1.4116989
    58   6 C       86   6 C                                       1.4225619
    49   5 B       87   6 C                                       1.5281413
    51   6 C       87   6 C                                       1.4220237
    59   6 C       87   6 C                                       1.3898878
    50   6 C       88   6 C                                       1.4234702
    52   6 C       88   6 C                                       1.4129383
    60   6 C       88   6 C                                       1.4110694
    51   6 C       89   6 C                                       1.4215472
    53   6 C       89   6 C                                       1.4331748
    61   6 C       89   6 C                                       1.4052416
    46   6 C       90   6 C                                       1.4284723
    52   6 C       90   6 C                                       1.4185088
    55   6 C       90   6 C                                       1.4244908
    47   6 C       91   6 C                                       1.3632623
    54   6 C       92   6 C                                       1.4153506
    56   6 C       92   6 C                                       1.4142534
    64   6 C       92   6 C                                       1.4296290
    57   6 C       93   6 C                                       1.4085375
    65   6 C       93   6 C                                       1.4277172
    56   6 C       94   6 C                                       1.4177598
    58   6 C       94   6 C                                       1.4186321
    66   6 C       94   6 C                                       1.4176599
    57   6 C       95   6 C                                       1.4302414
    67   6 C       95   6 C                                       1.3527343
    58   6 C       96   6 C                                       1.4222586
    60   6 C       96   6 C                                       1.4166436
    68   6 C       96   6 C                                       1.4127312
    59   6 C       97   6 C                                       1.3858558
    61   6 C       97   6 C                                       1.3724618
    55   6 C       98   6 C                                       1.4141873
    60   6 C       98   6 C                                       1.4270099
    63   6 C       98   6 C                                       1.4321674
    62   6 C       99   6 C                                       1.4176336
    64   6 C       99   6 C                                       1.4275457
    71   6 C       99   6 C                                       1.4156035
    65   6 C      100   6 C                                       1.3997003
    72   6 C      100   6 C                                       1.4231176
    64   6 C      101   6 C                                       1.4069063
    67   6 C      102   5 B                                       1.5180972
    66   6 C      103   6 C                                       1.4055532
    68   6 C      103   6 C                                       1.4031299
    74   5 B      103   6 C                                       1.5050387
    63   6 C      104   6 C                                       1.4073838
     1   6 C      105   1 H                                       1.0764621
     2   6 C      106   1 H                                       1.0769717
     4   5 B      107   1 H                                       1.1711179
     7   6 C      108   1 H                                       1.0771997
     8   6 C      109   1 H                                       1.0765577
    10   6 C      110   1 H                                       1.0749332
    13   6 C      111   1 H                                       1.0849017
    16   6 C      112   1 H                                       1.0819444
    18   6 C      113   1 H                                       1.0809124
    19   6 C      114   1 H                                       1.0836067
    29   6 C      115   1 H                                       1.0802503
    39   6 C      116   1 H                                       1.0801077
    41   5 B      117   1 H                                       1.1705628
    44   6 C      118   1 H                                       1.0806772
    47   6 C      119   1 H                                       1.0820956
    49   5 B      120   1 H                                       1.1710824
    59   6 C      121   1 H                                       1.0803650
    61   6 C      122   1 H                                       1.0779708
    67   6 C      123   1 H                                       1.0834032
    69   6 C      124   1 H                                       1.0808300
    72   6 C      125   1 H                                       1.0728214 (min)
    77   6 C      126   1 H                                       1.0778558
    82   6 C      127   1 H                                       1.0808071
    85   5 B      128   1 H                                       1.1715583
    91   6 C      129   1 H                                       1.0792663
    95   6 C      130   1 H                                       1.0840056
    97   6 C      131   1 H                                       1.0804293
   102   5 B      132   1 H                                       1.1702472

 * 4 distinct bonds (by element types)

   Z      Z             #   av. dist./Å        max./Å        min./Å
   1 H    5 B           5     1.1709137     1.1715583     1.1702472
   1 H    6 C          23     1.0797554     1.0849017     1.0728214
   5 B    6 C          12     1.5242665     1.5509665     1.5050387
   6 C    6 C         117     1.4095828     1.4331748     1.3461227


optimized geometry written to: xtbopt.xyz


           -------------------------------------------------
          | TOTAL ENERGY             -232.154522250905 Eh   |
          | GRADIENT NORM               0.000665482150 Eh/α |
          | HOMO-LUMO GAP               0.338936647491 eV   |
           -------------------------------------------------

------------------------------------------------------------------------
 * finished run on 2025/12/08 at 00:33:06.964     
------------------------------------------------------------------------
 total:
 * wall-time:     0 d,  0 h,  0 min,  6.191 sec
 *  cpu-time:     0 d,  0 h,  0 min, 23.766 sec
 * ratio c/w:     3.839 speedup
 SCF:
 * wall-time:     0 d,  0 h,  0 min,  1.289 sec
 *  cpu-time:     0 d,  0 h,  0 min,  4.734 sec
 * ratio c/w:     3.673 speedup
 ANC optimizer:
 * wall-time:     0 d,  0 h,  0 min,  4.781 sec
 *  cpu-time:     0 d,  0 h,  0 min, 18.578 sec
 * ratio c/w:     3.886 speedup

normal termination of xtb
