      -----------------------------------------------------------      
     |                   =====================                   |     
     |                           x T B                           |     
     |                   =====================                   |     
     |                         S. Grimme                         |     
     |          Mulliken Center for Theoretical Chemistry        |     
     |                    University of Bonn                     |     
      -----------------------------------------------------------      

   * xtb version 6.7.1pre (5071a88) compiled by 'Marcel@Raven' on 2024-07-23

   xtb is free software: you can redistribute it and/or modify it under
   the terms of the GNU Lesser General Public License as published by
   the Free Software Foundation, either version 3 of the License, or
   (at your option) any later version.
   
   xtb is distributed in the hope that it will be useful,
   but WITHOUT ANY WARRANTY; without even the implied warranty of
   MERCHANTABILITY or FITNESS FOR A PARTICULAR PURPOSE.  See the
   GNU Lesser General Public License for more details.
   
   Cite this work as:
   * C. Bannwarth, E. Caldeweyher, S. Ehlert, A. Hansen, P. Pracht,
     J. Seibert, S. Spicher, S. Grimme, WIREs Comput. Mol. Sci., 2020, 11,
     e01493. DOI: 10.1002/wcms.1493
   
   for GFN2-xTB:
   * C. Bannwarth, S. Ehlert and S. Grimme., J. Chem. Theory Comput., 2019,
     15, 1652-1671. DOI: 10.1021/acs.jctc.8b01176
   for GFN1-xTB:
   * S. Grimme, C. Bannwarth, P. Shushkov, J. Chem. Theory Comput., 2017,
     13, 1989-2009. DOI: 10.1021/acs.jctc.7b00118
   for GFN0-xTB:
   * P. Pracht, E. Caldeweyher, S. Ehlert, S. Grimme, ChemRxiv, 2019, preprint.
     DOI: 10.26434/chemrxiv.8326202.v1
   for GFN-FF:
   * S. Spicher and S. Grimme, Angew. Chem. Int. Ed., 2020, 59, 15665-15673.
     DOI: 10.1002/anie.202004239
   
   for ALPB and GBSA implicit solvation:
   * S. Ehlert, M. Stahn, S. Spicher, S. Grimme, J. Chem. Theory Comput.,
     2021, 17, 4250-4261. DOI: 10.1021/acs.jctc.1c00471
   
   for ddCOSMO and CPCM-X implicit solvation:
   * M. Stahn, S. Ehlert, S. Grimme, J. Phys. Chem. A,
     2023, XX, XXXX-XXXX. DOI: 10.1021/acs.jpca.3c04382
   
   for DFT-D4:
   * E. Caldeweyher, C. Bannwarth and S. Grimme, J. Chem. Phys., 2017,
     147, 034112. DOI: 10.1063/1.4993215
   * E. Caldeweyher, S. Ehlert, A. Hansen, H. Neugebauer, S. Spicher,
     C. Bannwarth and S. Grimme, J. Chem. Phys., 2019, 150, 154122.
     DOI: 10.1063/1.5090222
   * E. Caldeweyher, J.-M. Mewes, S. Ehlert and S. Grimme, Phys. Chem. Chem. Phys.
     2020, 22, 8499-8512. DOI: 10.1039/D0CP00502A
   
   for sTDA-xTB:
   * S. Grimme and C. Bannwarth, J. Chem. Phys., 2016, 145, 054103.
     DOI: 10.1063/1.4959605
   
   in the mass-spec context:
   * V. Asgeirsson, C. Bauer and S. Grimme, Chem. Sci., 2017, 8, 4879.
     DOI: 10.1039/c7sc00601b
   * J. Koopman and S. Grimme, ACS Omega 2019, 4, 12, 15120-15133.
     DOI: 10.1021/acsomega.9b02011
   
   for metadynamics refer to:
   * S. Grimme, J. Chem. Theory Comput., 2019, 155, 2847-2862
     DOI: 10.1021/acs.jctc.9b00143
   
   for SPH calculations refer to:
   * S. Spicher and S. Grimme, J. Chem. Theory Comput., 2021, 17, 1701-1714
     DOI: 10.1021/acs.jctc.0c01306
   
   for ONIOM refer to:
   * C. Plett, A. Katbashev, S. Ehlert, S. Grimme, M. Bursch,
     Phys. Chem. Chem. Phys., 2023, 25, 17860-17868. DOI: 10.1039/D3CP02178E
   
   for DIPRO refer to:
   * J. Kohn, N. Gildemeister, S. Grimme, D. Fazzi, A. Hansen,
     J. Chem. Phys., 2023, just accepted.
   
   for PTB refer to:
   * S. Grimme, M. Mueller, A. Hansen, J. Chem. Phys., 2023, 158, 124111.
     DOI: 10.1063/5.0137838
   
   with help from (in alphabetical order)
   P. Atkinson, C. Bannwarth, F. Bohle, G. Brandenburg, E. Caldeweyher
   M. Checinski, S. Dohm, S. Ehlert, S. Ehrlich, I. Gerasimov, C. Hölzer
   A. Katbashev, J. Kohn, J. Koopman, C. Lavigne, S. Lehtola, F. März, M. Müller,
   F. Musil, H. Neugebauer, J. Pisarek, C. Plett, P. Pracht, F. Pultar,
   J. Seibert, P. Shushkov, S. Spicher, M. Stahn, M. Steiner, T. Strunk,
   J. Stückrath, T. Rose, and J. Unsleber
   
 * started run on 2025/12/08 at 00:33:06.997     
   ID    Z sym.   atoms
    1    6 C      1-3, 5-40, 42-48, 50-73, 75-84, 86-101, 103, 104
    2    5 B      4, 41, 49, 74, 85, 102
    3    1 H      105-132

           -------------------------------------------------
          |                Calculation Setup                |
           -------------------------------------------------

          program call               : xtb "C:\Users\LENOVO GAMING\Documents\GitHub\molecular-conductivity-sim\results\1.5nm-6Bdoped-5percent\xtbopt.xyz" --sp
          coordinate file            : C:\Users\LENOVO GAMING\Documents\GitHub\molecular-conductivity-sim\results\1.5nm-6Bdoped-5percent\xtbopt.xyz
          omp threads                :                    16


           -------------------------------------------------
          |                 G F N 2 - x T B                 |
           -------------------------------------------------

        Reference                      10.1021/acs.jctc.8b01176
      * Hamiltonian:
        H0-scaling (s, p, d)           1.850000    2.230000    2.230000
        zeta-weighting                 0.500000
      * Dispersion:
        s8                             2.700000
        a1                             0.520000
        a2                             5.000000
        s9                             5.000000
      * Repulsion:
        kExp                           1.500000    1.000000
        rExp                           1.000000
      * Coulomb:
        alpha                          2.000000
        third order                    shell-resolved
        anisotropic                    true
        a3                             3.000000
        a5                             4.000000
        cn-shift                       1.200000
        cn-exp                         4.000000
        max-rad                        5.000000

q/qsh data taken from xtbrestart
CAMM data taken from xtbrestart

          ...................................................
          :                      SETUP                      :
          :.................................................:
          :  # basis functions                 444          :
          :  # atomic orbitals                 444          :
          :  # shells                          236          :
          :  # electrons                       438          :
          :  max. iterations                   250          :
          :  Hamiltonian                  GFN2-xTB          :
          :  restarted?                       true          :
          :  GBSA solvation                  false          :
          :  PC potential                    false          :
          :  electronic temp.          300.0000000     K    :
          :  accuracy                    1.0000000          :
          :  -> integral cutoff          0.2500000E+02      :
          :  -> integral neglect         0.1000000E-07      :
          :  -> SCF convergence          0.1000000E-05 Eh   :
          :  -> wf. convergence          0.1000000E-03 e    :
          :  Broyden damping             0.4000000          :
          :  net charge                          0          :
          :  unpaired electrons                  0          :
          ...................................................

 iter      E             dE          RMSdq      gap      omega  full diag
   1   -236.6317584 -0.236632E+03  0.999E-06    0.34       0.0  T
   2   -236.6317584  0.534612E-10  0.158E-05    0.34     550.7  T
   3   -236.6317584 -0.181331E-10  0.136E-05    0.34     640.1  T

   *** convergence criteria satisfied after 3 iterations ***

         #    Occupation            Energy/Eh            Energy/eV
      -------------------------------------------------------------
         1        2.0000           -0.6668629             -18.1463
       ...           ...                  ...                  ...
       213        2.0000           -0.3749907             -10.2040
       214        2.0000           -0.3735242             -10.1641
       215        2.0000           -0.3723036             -10.1309
       216        2.0000           -0.3687948             -10.0354
       217        2.0000           -0.3616393              -9.8407
       218        2.0000           -0.3593378              -9.7781
       219        1.9972           -0.3537885              -9.6271 (HOMO)
       220        0.0028           -0.3413326              -9.2881 (LUMO)
       221                         -0.3127649              -8.5108
       222                         -0.3033402              -8.2543
       223                         -0.2948477              -8.0232
       224                         -0.2914175              -7.9299
       ...                                ...                  ...
       444                          0.7772678              21.1505
      -------------------------------------------------------------
                  HL-Gap            0.0124558 Eh            0.3389 eV
             Fermi-level           -0.3475590 Eh           -9.4576 eV

 SCC (total)                   0 d,  0 h,  0 min,  0.285 sec
 SCC setup                      ...        0 min,  0.002 sec (  0.702%)
 Dispersion                     ...        0 min,  0.008 sec (  2.807%)
 classical contributions        ...        0 min,  0.000 sec (  0.000%)
 integral evaluation            ...        0 min,  0.027 sec (  9.474%)
 iterations                     ...        0 min,  0.174 sec ( 61.053%)
 molecular gradient             ...        0 min,  0.071 sec ( 24.912%)
 printout                       ...        0 min,  0.003 sec (  1.053%)

         :::::::::::::::::::::::::::::::::::::::::::::::::::::
         ::                     SUMMARY                     ::
         :::::::::::::::::::::::::::::::::::::::::::::::::::::
         :: total energy            -232.154522251568 Eh    ::
         :: gradient norm              0.000666119393 Eh/a0 ::
         :: HOMO-LUMO gap              0.338940703164 eV    ::
         ::.................................................::
         :: SCC energy              -236.639488708066 Eh    ::
         :: -> isotropic ES            0.119871213989 Eh    ::
         :: -> anisotropic ES          0.023404883886 Eh    ::
         :: -> anisotropic XC          0.085010734988 Eh    ::
         :: -> dispersion             -0.284093300233 Eh    ::
         :: repulsion energy           4.484966456498 Eh    ::
         :: add. restraining           0.000000000000 Eh    ::
         :: total charge               0.000000000007 e     ::
         :::::::::::::::::::::::::::::::::::::::::::::::::::::

           -------------------------------------------------
          |                Property Printout                |
           -------------------------------------------------

    * Orbital Energies and Occupations

         #    Occupation            Energy/Eh            Energy/eV
      -------------------------------------------------------------
         1        2.0000           -0.6668629             -18.1463
       ...           ...                  ...                  ...
       207        2.0000           -0.3854131             -10.4876
       208        2.0000           -0.3844979             -10.4627
       209        2.0000           -0.3836550             -10.4398
       210        2.0000           -0.3825403             -10.4095
       211        2.0000           -0.3823163             -10.4034
       212        2.0000           -0.3758230             -10.2267
       213        2.0000           -0.3749907             -10.2040
       214        2.0000           -0.3735242             -10.1641
       215        2.0000           -0.3723036             -10.1309
       216        2.0000           -0.3687948             -10.0354
       217        2.0000           -0.3616393              -9.8407
       218        2.0000           -0.3593378              -9.7781
       219        1.9972           -0.3537885              -9.6271 (HOMO)
       220        0.0028           -0.3413326              -9.2881 (LUMO)
       221                         -0.3127649              -8.5108
       222                         -0.3033402              -8.2543
       223                         -0.2948477              -8.0232
       224                         -0.2914175              -7.9299
       225                         -0.2775690              -7.5530
       226                         -0.2673450              -7.2748
       227                         -0.2648882              -7.2080
       228                         -0.2610885              -7.1046
       229                         -0.2508944              -6.8272
       230                         -0.2498343              -6.7983
       ...                                ...                  ...
       444                          0.7772678              21.1505
      -------------------------------------------------------------
                  HL-Gap            0.0124558 Eh            0.3389 eV
             Fermi-level           -0.3475590 Eh           -9.4576 eV

     #   Z          covCN         q      C6AA      α(0)
     1   6 C        2.920    -0.038    28.933     8.821
     2   6 C        2.917    -0.036    28.895     8.815
     3   6 C        2.984     0.005    27.895     8.664
     4   5 B        2.755     0.211    18.172     7.133
     5   6 C        2.981     0.013    27.710     8.635
     6   6 C        2.990     0.000    28.013     8.682
     7   6 C        2.926    -0.028    28.711     8.787
     8   6 C        2.919    -0.036    28.886     8.814
     9   6 C        2.982     0.007    27.860     8.658
    10   6 C        2.919    -0.040    28.991     8.830
    11   6 C        2.983     0.005    27.894     8.663
    12   6 C        2.989     0.000    28.008     8.681
    13   6 C        2.909    -0.025    28.628     8.773
    14   6 C        2.982     0.005    27.913     8.666
    15   6 C        2.989     0.004    27.921     8.668
    16   6 C        2.930    -0.031    28.779     8.798
    17   6 C        2.993     0.001    27.998     8.680
    18   6 C        2.928    -0.035    28.874     8.812
    19   6 C        2.819    -0.110    30.776     9.090
    20   6 C        2.887    -0.075    29.861     8.959
    21   6 C        2.990    -0.000    28.031     8.685
    22   6 C        2.986     0.001    28.006     8.681
    23   6 C        2.972     0.008    27.843     8.655
    24   6 C        2.986     0.000    28.012     8.682
    25   6 C        2.986    -0.001    28.053     8.688
    26   6 C        2.980     0.008    27.824     8.652
    27   6 C        2.988    -0.001    28.038     8.686
    28   6 C        2.981     0.008    27.835     8.654
    29   6 C        2.910    -0.032    28.789     8.798
    30   6 C        2.980     0.005    27.894     8.663
    31   6 C        2.892    -0.071    29.766     8.945
    32   6 C        2.987     0.001    28.002     8.680
    33   6 C        2.975    -0.004    28.119     8.698
    34   6 C        2.889    -0.072    29.802     8.950
    35   6 C        2.986    -0.000    28.026     8.684
    36   6 C        2.984    -0.000    28.032     8.685
    37   6 C        2.986    -0.000    28.031     8.685
    38   6 C        2.981     0.006    27.871     8.660
    39   6 C        2.924    -0.023    28.580     8.767
    40   6 C        2.980     0.006    27.884     8.662
    41   5 B        2.759     0.212    18.151     7.128
    42   6 C        2.981     0.004    27.928     8.669
    43   6 C        2.981     0.007    27.864     8.659
    44   6 C        2.926    -0.025    28.639     8.776
    45   6 C        2.988     0.001    27.995     8.679
    46   6 C        2.889    -0.072    29.802     8.950
    47   6 C        2.901    -0.034    28.839     8.805
    48   6 C        2.986    -0.000    28.033     8.685
    49   5 B        2.759     0.213    18.136     7.125
    50   6 C        2.985    -0.002    28.058     8.689
    51   6 C        2.979     0.008    27.829     8.653
    52   6 C        2.987     0.001    27.995     8.679
    53   6 C        2.970     0.012    27.754     8.641
    54   6 C        2.988     0.001    28.002     8.680
    55   6 C        2.972    -0.003    28.100     8.695
    56   6 C        2.986     0.000    28.014     8.682
    57   6 C        2.885    -0.067    29.675     8.931
    58   6 C        2.985     0.002    27.967     8.675
    59   6 C        2.923    -0.023    28.580     8.767
    60   6 C        2.985    -0.002    28.068     8.690
    61   6 C        2.924    -0.028    28.696     8.785
    62   6 C        2.993     0.005    27.897     8.664
    63   6 C        2.980     0.007    27.859     8.658
    64   6 C        2.983     0.002    27.968     8.675
    65   6 C        2.889    -0.065    29.620     8.923
    66   6 C        2.979     0.007    27.864     8.659
    67   6 C        2.818    -0.112    30.835     9.098
    68   6 C        2.979    -0.000    28.031     8.685
    69   6 C        2.925    -0.026    28.660     8.779
    70   6 C        2.972     0.016    27.657     8.626
    71   6 C        2.981     0.006    27.879     8.661
    72   6 C        2.918    -0.042    29.048     8.838
    73   6 C        2.977     0.005    27.898     8.664
    74   5 B        2.751     0.192    18.453     7.189
    75   6 C        2.985     0.001    27.999     8.680
    76   6 C        2.887    -0.072    29.781     8.947
    77   6 C        2.916    -0.032    28.792     8.799
    78   6 C        2.987    -0.001    28.048     8.687
    79   6 C        2.976    -0.005    28.133     8.700
    80   6 C        2.995     0.007    27.851     8.657
    81   6 C        2.903    -0.080    29.998     8.981
    82   6 C        2.926    -0.023    28.575     8.766
    83   6 C        2.892    -0.061    29.512     8.907
    84   6 C        2.986    -0.001    28.053     8.688
    85   5 B        2.761     0.208    18.206     7.139
    86   6 C        2.986     0.001    28.003     8.680
    87   6 C        2.890    -0.072    29.801     8.950
    88   6 C        2.988    -0.000    28.029     8.684
    89   6 C        2.978     0.007    27.863     8.659
    90   6 C        2.981     0.002    27.970     8.675
    91   6 C        2.912    -0.038    28.947     8.822
    92   6 C        2.984    -0.001    28.035     8.685
    93   6 C        2.966     0.006    27.878     8.661
    94   6 C        2.987     0.001    28.007     8.681
    95   6 C        2.904    -0.021    28.537     8.759
    96   6 C        2.987     0.000    28.010     8.682
    97   6 C        2.910    -0.032    28.810     8.801
    98   6 C        2.980     0.001    28.008     8.681
    99   6 C        2.983    -0.002    28.069     8.691
   100   6 C        2.976     0.022    27.518     8.605
   101   6 C        2.975    -0.007    28.185     8.708
   102   5 B        2.756     0.214    18.125     7.124
   103   6 C        2.902    -0.077    29.928     8.970
   104   6 C        2.975     0.001    27.989     8.678
   105   1 H        0.926     0.035     2.511     2.478
   106   1 H        0.926     0.035     2.515     2.480
   107   1 H        0.939    -0.110     5.935     3.809
   108   1 H        0.926     0.035     2.519     2.482
   109   1 H        0.926     0.037     2.492     2.468
   110   1 H        0.926     0.047     2.356     2.400
   111   1 H        0.925     0.022     2.696     2.568
   112   1 H        0.925     0.036     2.505     2.475
   113   1 H        0.926     0.037     2.488     2.467
   114   1 H        0.925     0.018     2.759     2.598
   115   1 H        0.926     0.029     2.594     2.519
   116   1 H        0.926     0.035     2.516     2.480
   117   1 H        0.939    -0.104     5.691     3.730
   118   1 H        0.926     0.038     2.472     2.459
   119   1 H        0.925     0.023     2.686     2.563
   120   1 H        0.939    -0.106     5.754     3.750
   121   1 H        0.926     0.033     2.546     2.495
   122   1 H        0.926     0.034     2.533     2.489
   123   1 H        0.925     0.016     2.800     2.617
   124   1 H        0.926     0.036     2.500     2.473
   125   1 H        0.926     0.050     2.320     2.382
   126   1 H        0.926     0.039     2.461     2.453
   127   1 H        0.926     0.039     2.464     2.455
   128   1 H        0.938    -0.108     5.859     3.784
   129   1 H        0.926     0.031     2.572     2.508
   130   1 H        0.925     0.025     2.662     2.551
   131   1 H        0.926     0.027     2.623     2.533
   132   1 H        0.939    -0.111     5.969     3.820

 Mol. C6AA /au·bohr⁶  :     355707.373580
 Mol. C8AA /au·bohr⁸  :    9851277.247856
 Mol. α(0) /au        :        975.486359


Wiberg/Mayer (AO) data.
largest (>0.10) Wiberg bond orders for each atom

 ---------------------------------------------------------------------------
     #   Z sym  total        # sym  WBO       # sym  WBO       # sym  WBO
 ---------------------------------------------------------------------------
     1   6 C    3.966 --     8 C    1.547     9 C    1.292   105 H    0.958
     2   6 C    3.971 --    10 C    1.577    11 C    1.267   106 H    0.958
     3   6 C    3.958 --     8 C    1.287    12 C    1.280    11 C    1.193
     4   5 B    3.344 --    19 C    1.099    20 C    1.063   107 H    0.962
     5   6 C    3.965 --    10 C    1.258    20 C    1.256    21 C    1.255
     6   6 C    3.978 --    11 C    1.292    21 C    1.240    22 C    1.221
     7   6 C    3.975 --    29 C    1.487    30 C    1.327   108 H    0.959
     8   6 C    3.961 --     1 C    1.547     3 C    1.287   109 H    0.958
     9   6 C    3.960 --    32 C    1.301     1 C    1.292    30 C    1.163
    10   6 C    3.951 --     2 C    1.577     5 C    1.258   110 H    0.960
    11   6 C    3.946 --     6 C    1.292     2 C    1.267     3 C    1.193
    12   6 C    3.976 --     3 C    1.280    32 C    1.248    35 C    1.224
    13   6 C    3.975 --    19 C    1.735    23 C    1.145   111 H    0.964
    14   6 C    3.967 --    20 C    1.363    24 C    1.235    23 C    1.154
    15   6 C    3.978 --    24 C    1.263    21 C    1.255    25 C    1.227
    16   6 C    3.969 --    23 C    1.519    26 C    1.231   112 H    0.964
    17   6 C    3.960 --    27 C    1.279    24 C    1.252    26 C    1.202
    18   6 C    3.898 --    26 C    1.385    28 C    1.333   113 H    0.965
    19   6 C    3.933 --    13 C    1.735     4 B    1.099   114 H    0.972
    20   6 C    3.883 --    14 C    1.363     5 C    1.256     4 B    1.063
    21   6 C    3.976 --     5 C    1.255    15 C    1.255     6 C    1.240
    22   6 C    3.960 --    35 C    1.284    45 C    1.237     6 C    1.221
    23   6 C    3.970 --    16 C    1.519    14 C    1.154    13 C    1.145
    24   6 C    3.967 --    15 C    1.263    17 C    1.252    14 C    1.235
    25   6 C    3.960 --    54 C    1.267    45 C    1.248    15 C    1.227
    26   6 C    3.975 --    18 C    1.385    16 C    1.231    17 C    1.202
    27   6 C    3.978 --    17 C    1.279    62 C    1.259    54 C    1.217
    28   6 C    3.974 --    18 C    1.333    69 C    1.260    62 C    1.220
    29   6 C    3.976 --     7 C    1.487    39 C    1.393   115 H    0.970
    30   6 C    3.972 --     7 C    1.327    40 C    1.289     9 C    1.163
    31   6 C    3.951 --    39 C    1.424    40 C    1.275    41 B    1.073
    32   6 C    3.983 --     9 C    1.301    12 C    1.248    42 C    1.205
    33   6 C    3.952 --    42 C    1.318    43 C    1.226    40 C    1.188
    34   6 C    3.932 --    44 C    1.471    43 C    1.233    41 B    1.066
    35   6 C    3.963 --    22 C    1.284    75 C    1.234    12 C    1.224
    36   6 C    3.958 --    78 C    1.271    75 C    1.249    42 C    1.222
    37   6 C    3.973 --    43 C    1.273    80 C    1.250    78 C    1.232
    38   6 C    3.970 --    44 C    1.293    82 C    1.265    80 C    1.248
    39   6 C    3.968 --    31 C    1.424    29 C    1.393   116 H    0.969
    40   6 C    3.973 --    30 C    1.289    31 C    1.275    33 C    1.188
    41   5 B    3.348 --    31 C    1.073    34 C    1.066   117 H    0.970
    42   6 C    3.974 --    33 C    1.318    36 C    1.222    32 C    1.205
    43   6 C    3.949 --    37 C    1.273    34 C    1.233    33 C    1.226
    44   6 C    3.948 --    34 C    1.471    38 C    1.293   118 H    0.966
    45   6 C    3.961 --    84 C    1.260    25 C    1.248    22 C    1.237
    46   6 C    3.933 --    82 C    1.498    90 C    1.215    85 B    1.057
    47   6 C    3.965 --    91 C    1.607    83 C    1.248   119 H    0.959
    48   6 C    3.961 --    75 C    1.259    86 C    1.243    84 C    1.242
    49   5 B    3.351 --    87 C    1.077    76 C    1.060   120 H    0.970
    50   6 C    3.959 --    86 C    1.274    78 C    1.242    88 C    1.225
    51   6 C    3.970 --    87 C    1.276    89 C    1.275    79 C    1.193
    52   6 C    3.969 --    90 C    1.267    88 C    1.249    80 C    1.236
    53   6 C    3.950 --    81 C    1.387    91 C    1.186    89 C    1.179
    54   6 C    3.957 --    25 C    1.267    92 C    1.259    27 C    1.217
    55   6 C    3.938 --    98 C    1.311    90 C    1.255    93 C    1.158
    56   6 C    3.961 --    92 C    1.268    84 C    1.244    94 C    1.233
    57   6 C    3.797 --    93 C    1.359    95 C    1.208    85 B    1.089
    58   6 C    3.966 --    94 C    1.264    96 C    1.246    86 C    1.229
    59   6 C    3.965 --    87 C    1.423    97 C    1.390   121 H    0.970
    60   6 C    3.965 --    88 C    1.268    96 C    1.244    98 C    1.230
    61   6 C    3.972 --    97 C    1.489    89 C    1.322   122 H    0.959
    62   6 C    3.961 --    27 C    1.259    99 C    1.253    28 C    1.220
    63   6 C    3.963 --   104 C    1.356    98 C    1.206   100 C    1.181
    64   6 C    3.966 --   101 C    1.322    99 C    1.213    92 C    1.212
    65   6 C    3.835 --   100 C    1.379    93 C    1.245   102 B    1.023
    66   6 C    3.950 --   103 C    1.302    94 C    1.247   101 C    1.193
    67   6 C    3.873 --    95 C    1.667   102 B    1.116   123 H    0.973
    68   6 C    3.955 --   103 C    1.314    96 C    1.255   104 C    1.182
    69   6 C    3.945 --    76 C    1.507    28 C    1.260   124 H    0.966
    70   6 C    3.950 --    83 C    1.354    77 C    1.213   104 C    1.181
    71   6 C    3.950 --    99 C    1.286    79 C    1.235    76 C    1.210
    72   6 C    3.949 --    77 C    1.636   100 C    1.204   125 H    0.956
    73   6 C    3.968 --    79 C    1.305    81 C    1.232   101 C    1.210
    74   5 B    3.415 --    81 C    1.082   103 C    1.068    83 C    1.041
    75   6 C    3.955 --    48 C    1.259    36 C    1.249    35 C    1.234
    76   6 C    3.937 --    69 C    1.507    71 C    1.210    49 B    1.060
    77   6 C    3.970 --    72 C    1.636    70 C    1.213   126 H    0.960
    78   6 C    3.965 --    36 C    1.271    50 C    1.242    37 C    1.232
    79   6 C    3.953 --    73 C    1.305    71 C    1.235    51 C    1.193
    80   6 C    3.974 --    37 C    1.250    38 C    1.248    52 C    1.236
    81   6 C    3.934 --    53 C    1.387    73 C    1.232    74 B    1.082
    82   6 C    3.945 --    46 C    1.498    38 C    1.265   127 H    0.965
    83   6 C    3.814 --    70 C    1.354    47 C    1.248    74 B    1.041
    84   6 C    3.964 --    45 C    1.260    56 C    1.244    48 C    1.242
    85   5 B    3.326 --    57 C    1.089    46 C    1.057   128 H    0.969
    86   6 C    3.962 --    50 C    1.274    48 C    1.243    58 C    1.229
    87   6 C    3.953 --    59 C    1.423    51 C    1.276    49 B    1.077
    88   6 C    3.969 --    60 C    1.268    52 C    1.249    50 C    1.225
    89   6 C    3.969 --    61 C    1.322    51 C    1.275    53 C    1.179
    90   6 C    3.963 --    52 C    1.267    55 C    1.255    46 C    1.215
    91   6 C    3.883 --    47 C    1.607    53 C    1.186   129 H    0.960
    92   6 C    3.955 --    56 C    1.268    54 C    1.259    64 C    1.212
    93   6 C    3.977 --    57 C    1.359    65 C    1.245    55 C    1.158
    94   6 C    3.961 --    58 C    1.264    66 C    1.247    56 C    1.233
    95   6 C    3.974 --    67 C    1.667    57 C    1.208   130 H    0.966
    96   6 C    3.963 --    68 C    1.255    58 C    1.246    60 C    1.244
    97   6 C    3.977 --    61 C    1.489    59 C    1.390   131 H    0.970
    98   6 C    3.972 --    55 C    1.311    60 C    1.230    63 C    1.206
    99   6 C    3.974 --    71 C    1.286    62 C    1.253    64 C    1.213
   100   6 C    3.968 --    65 C    1.379    72 C    1.204    63 C    1.181
   101   6 C    3.951 --    64 C    1.322    73 C    1.210    66 C    1.193
   102   5 B    3.299 --    67 C    1.116    65 C    1.023   132 H    0.959
   103   6 C    3.896 --    68 C    1.314    66 C    1.302    74 B    1.068
   104   6 C    3.933 --    63 C    1.356    68 C    1.182    70 C    1.181
   105   1 H    0.998 --     1 C    0.958
   106   1 H    0.998 --     2 C    0.958
   107   1 H    0.987 --     4 B    0.962
   108   1 H    0.998 --     7 C    0.959
   109   1 H    0.997 --     8 C    0.958
   110   1 H    0.996 --    10 C    0.960
   111   1 H    0.999 --    13 C    0.964
   112   1 H    0.997 --    16 C    0.964
   113   1 H    0.997 --    18 C    0.965
   114   1 H    0.998 --    19 C    0.972
   115   1 H    0.998 --    29 C    0.970
   116   1 H    0.998 --    39 C    0.969
   117   1 H    0.989 --    41 B    0.970
   118   1 H    0.997 --    44 C    0.966
   119   1 H    0.998 --    47 C    0.959
   120   1 H    0.988 --    49 B    0.970
   121   1 H    0.998 --    59 C    0.970
   122   1 H    0.998 --    61 C    0.959
   123   1 H    0.999 --    67 C    0.973
   124   1 H    0.997 --    69 C    0.966
   125   1 H    0.996 --    72 C    0.956
   126   1 H    0.997 --    77 C    0.960
   127   1 H    0.997 --    82 C    0.965
   128   1 H    0.988 --    85 B    0.969
   129   1 H    0.998 --    91 C    0.960
   130   1 H    0.999 --    95 C    0.966
   131   1 H    0.998 --    97 C    0.970
   132   1 H    0.987 --   102 B    0.959
 ---------------------------------------------------------------------------

Topologies differ in total number of bonds
Writing topology from bond orders to xtbtopo.mol

molecular dipole:
                 x           y           z       tot (Debye)
 q only:        0.256      -0.390      -0.000
   full:        0.530      -0.440      -0.000       1.751
molecular quadrupole (traceless):
                xx          xy          yy          xz          yz          zz
 q only:       -1.430      27.280       5.696      -0.000       0.000      -4.266
  q+dip:       21.695      32.440      29.775      -0.000       0.000     -51.470
   full:       -2.573      31.889       6.784      -0.000       0.000      -4.211


           -------------------------------------------------
          | TOTAL ENERGY             -232.154522251568 Eh   |
          | GRADIENT NORM               0.000666119393 Eh/α |
          | HOMO-LUMO GAP               0.338940703164 eV   |
           -------------------------------------------------

------------------------------------------------------------------------
 * finished run on 2025/12/08 at 00:33:07.365     
------------------------------------------------------------------------
 total:
 * wall-time:     0 d,  0 h,  0 min,  0.364 sec
 *  cpu-time:     0 d,  0 h,  0 min,  4.438 sec
 * ratio c/w:    12.191 speedup
 SCF:
 * wall-time:     0 d,  0 h,  0 min,  0.288 sec
 *  cpu-time:     0 d,  0 h,  0 min,  3.594 sec
 * ratio c/w:    12.478 speedup

normal termination of xtb
