132
 energy: -232.154522250905 gnorm: 0.000665482150 xtb: 6.7.1pre (5071a88)
C           -2.88967635230591       -7.30588765093637       -0.00000082931250
C            1.36503075489937       -7.34090043286707        0.00000084415298
C           -0.79204336907767       -6.11846828109453        0.00000004410933
B            5.71256020917608       -7.52991159515824        0.00000259308156
C            3.48083107172820       -6.16331525167785        0.00000216617610
C            1.34878301502910       -4.92088802639736        0.00000106506420
C           -5.77365166469032       -7.31786430032636       -0.00000128147409
C           -1.52997630461839       -7.31384071153300       -0.00000039543828
C           -3.61902425452918       -6.10509264703766       -0.00000085639127
C            2.72269321183472       -7.35422790530032        0.00000163706746
C            0.63504340141196       -6.13389425105174        0.00000065338909
C           -1.49330258342272       -4.89239890458406       -0.00000001262175
C            7.80619372837711       -6.18178066520564        0.00000491041232
C            5.59382701746373       -4.98548453521241        0.00000328045686
C            3.48257169789495       -3.71512873697413        0.00000200411009
C            7.70008427087185       -3.77231917037814        0.00000431564736
C            5.60107061070377       -2.51637042717317        0.00000283008888
C            7.72335331217737       -1.33837905632689        0.00000345024459
C            7.23509064463171       -7.40075038736716        0.00000458963402
C            4.90320384463936       -6.20687007317742        0.00000295860360
C            2.76941229069706       -4.93528591185328        0.00000177482833
C            0.64297479128512       -3.68536268064924        0.00000076907077
C            7.03541114296149       -4.96720860983586        0.00000411803205
C            4.89595335541891       -3.74275373731954        0.00000272995591
C            2.78130727461164       -2.47754773259681        0.00000151317716
C            7.02441875389335       -2.53260813190368        0.00000360684134
C            4.91410647862127       -1.28431459622845        0.00000209585301
C            7.05674246664920       -0.11499651359933        0.00000250106953
C           -7.14623410030694       -7.34459795857298       -0.00000136699706
C           -5.05458229750229       -6.11081852049517       -0.00000125321048
C           -7.18181537587018       -4.92403696507637       -0.00000189168077
C           -2.91430191788162       -4.88471865392532       -0.00000048330344
C           -5.03778724276814       -3.63995188346291       -0.00000117310350
C           -7.14934762365800       -2.34306252347801       -0.00000154774358
C           -0.76757879745209       -3.66982548254199        0.00000024171602
C           -2.88775675813097       -2.42482032646587       -0.00000067663254
C           -4.98725442126266       -1.17537107381791       -0.00000111242396
C           -7.07648098459722        0.08533732204254       -0.00000137245323
C           -7.84131391150408       -6.14679118910276       -0.00000142046068
C           -5.76101932311305       -4.88655916702533       -0.00000147515622
B           -7.98337482433929       -3.62442488386701       -0.00000179822382
C           -3.62699382465018       -3.64627079239539       -0.00000067662413
C           -5.72341294998624       -2.38661068385850       -0.00000126975968
C           -7.78215349598767       -1.12059905198061       -0.00000163510629
C            1.36502617109943       -2.46496221067479        0.00000088320076
C           -7.08972800638818        2.51725555653790       -0.00000124679389
C            1.53223670913022        7.42234292915786       -0.00000187718173
C           -0.74726588282708       -1.21647201647591        0.00000002698442
B            7.99443624325954        3.59688776512564        0.00000020740702
C           -2.85073361133419        0.03720882434611       -0.00000070653187
C            5.78295696774197        4.88408908210858       -0.00000044921073
C           -4.95904949735958        1.30220252897807       -0.00000119995918
C            3.65930057406357        6.12645609214573       -0.00000122307760
C            3.49415806809780       -1.25807719144604        0.00000151474912
C           -4.95734979482062        3.77301118821205       -0.00000103404401
C            1.39616974093584       -0.01382664433085        0.00000063772585
C           -7.06616828814694        5.09930520882658       -0.00000103856333
C           -0.71644195208683        1.24756920025985       -0.00000012662605
C            7.87931855314264        6.12047254381298       -0.00000100515973
C           -2.84212445500518        2.50197129384844       -0.00000085932776
C            5.82964954388586        7.32303969434720       -0.00000150317861
C            5.63689684290627       -0.07008677972383        0.00000194019508
C           -2.79505188479866        4.96582255674370       -0.00000087764736
C            3.54176887653038        1.20955778563895        0.00000081822511
C           -4.91594732732523        6.26500626699222       -0.00000114036514
C            1.42821583345535        2.43985181575539       -0.00000026886614
C           -7.20144887951064        7.55313445102589       -0.00000118905416
C           -0.69811729896316        3.69138725392042       -0.00000068791711
C            7.77617156935841        1.09145079030754        0.00000206551758
C           -0.66975663026053        6.21111181860038       -0.00000114333200
C            5.72647392505111        2.37626654538693        0.00000083628299
C           -2.76574381366131        7.41731331748904       -0.00000121244650
C            3.64837782181367        3.65567243683191       -0.00000019016976
B            1.47663260311583        4.93632320710337       -0.00000075947645
C           -1.46912092265523       -2.43577471829645       -0.00000026095376
C            7.15611208419473        2.31508863679102        0.00000111301741
C           -1.41936536316843        7.41542305379018       -0.00000156316040
C           -3.56902769941356       -1.18764254235500       -0.00000085610937
C            5.05955047337334        3.63469675654192        0.00000004750155
C           -5.66519527087519        0.06978524388405       -0.00000121759189
C            2.98309161091848        4.90983666288862       -0.00000073079838
C           -7.75096983441002        1.31466770484168       -0.00000144917005
C            0.72849738611945        6.25486795555132       -0.00000120732404
C            0.67186236483701       -1.23279122944184        0.00000050138458
B           -7.89031962987907        3.81814574263421       -0.00000106745487
C           -1.43911416126844        0.02224189656612       -0.00000026033108
C            7.20482355726929        4.90521768746125       -0.00000041615711
C           -3.54629912541571        1.27916524678492       -0.00000096787158
C            5.09247521161630        6.12667955735133       -0.00000107759964
C           -5.66136173064195        2.53464905277766       -0.00000111980459
C            2.89309997674992        7.34150330693946       -0.00000200428765
C            2.81041412054924       -0.01883910142292        0.00000098847786
C           -5.65865219230071        5.04567630502095       -0.00000109756264
C            0.70196574565066        1.22234620531494        0.00000033109857
C           -7.78785973433992        6.33411349685881       -0.00000096641382
C           -1.42564538910775        2.48039101551012       -0.00000059556642
C            7.20209562020014        7.32959002768402       -0.00000145655973
C           -3.54344499223923        3.74475306165020       -0.00000095567707
C            4.96901588913364        1.18036098484164        0.00000119705251
C           -3.51737301619453        6.20887764715846       -0.00000092943497
C            2.86982488163862        2.44563073122062        0.00000011263542
B           -5.68524588287522        7.62894506545051       -0.00000109351588
C            0.70423232079171        3.64460381633670       -0.00000055808619
C           -1.38769808653422        4.95664977213798       -0.00000096812417
H           -3.39742998286146       -8.25507505287529       -0.00000126765727
H            0.85046341305850       -8.28699146140482        0.00000049171470
H            5.23213829524523       -8.59795266815922        0.00000344727583
H           -5.25378240254896       -8.26131267603092       -0.00000110038640
H           -1.02830770047279       -8.26636624921739       -0.00000044335832
H            3.23556354659108       -8.29892109543048        0.00000191103122
H            8.88353921859415       -6.05395950528680        0.00000517632668
H            8.78193963120729       -3.75844424014296        0.00000501519677
H            8.80421273113105       -1.34907070064835        0.00000400171394
H            7.89023827638441       -8.26387537170078        0.00000440591299
H           -7.67218325294964       -8.28816456470450       -0.00000122747552
H           -8.92140810699242       -6.15217252542809       -0.00000174125545
H           -9.15376860419011       -3.60454137482250       -0.00000164286016
H           -8.86221905988760       -1.08424781814372       -0.00000169476102
H            1.09606849105085        8.41263981342707       -0.00000224235801
H            9.16518351919422        3.56887636065111        0.00000062682213
H            8.95965096130417        6.11209689823142       -0.00000071946149
H            5.31678537889366        8.27119110843448       -0.00000181381666
H           -7.84013043400789        8.42826189912231       -0.00000116402769
H            8.85593655099635        1.04348346017371        0.00000236391367
H           -3.28728939325409        8.35482903153332       -0.00000101418187
H           -0.89175261052882        8.35531539970040       -0.00000157697504
H           -8.83172841122843        1.30444214024571       -0.00000151181956
H           -9.06187559731787        3.81585034143810       -0.00000106315363
H            3.43006511729702        8.27771050162914       -0.00000248624578
H           -8.86766102322253        6.23873487166346       -0.00000069683121
H            7.74367710714083        8.26447864241143       -0.00000160873421
H           -5.17846355877170        8.68376723979963       -0.00000125218538
