132
 energy: -232.138488758669 gnorm: 0.070381993050 xtb: 6.7.1pre (5071a88)
C           -2.90774000000000       -7.36369700000000       -0.00000100000000
C            1.37830700000000       -7.39756800000000        0.00000100000000
C           -0.79503700000000       -6.16682000000000        0.00000000000000
B            5.76187300000000       -7.55837200000000        0.00000300000000
C            3.50716800000000       -6.20932900000000        0.00000200000000
C            1.35783700000000       -4.95891600000000        0.00000100000000
C           -5.82248000000000       -7.36644000000000       -0.00000100000000
C           -1.54149600000000       -7.37127000000000        0.00000000000000
C           -3.64340100000000       -6.15289100000000       -0.00000100000000
C            2.74326300000000       -7.41088500000000        0.00000200000000
C            0.64119100000000       -6.18085600000000        0.00000100000000
C           -1.50011600000000       -4.93265100000000        0.00000000000000
C            7.86144100000000       -6.22128700000000        0.00000500000000
C            5.63486700000000       -5.01292600000000        0.00000300000000
C            3.50810000000000       -3.74388900000000        0.00000200000000
C            7.75543800000000       -3.79397400000000        0.00000500000000
C            5.64038000000000       -2.52837100000000        0.00000300000000
C            7.77613300000000       -1.34465500000000        0.00000400000000
C            7.28512400000000       -7.45303800000000        0.00000400000000
C            4.94097900000000       -6.24309600000000        0.00000300000000
C            2.78993100000000       -4.97261700000000        0.00000200000000
C            0.64699200000000       -3.71499900000000        0.00000100000000
C            7.08919900000000       -4.99554900000000        0.00000400000000
C            4.92964800000000       -3.76361000000000        0.00000300000000
C            2.79943500000000       -2.49606700000000        0.00000100000000
C            7.07392900000000       -2.54540600000000        0.00000400000000
C            4.94814000000000       -1.29098000000000        0.00000200000000
C            7.10722100000000       -0.11306700000000        0.00000300000000
C           -7.20468100000000       -7.38992700000000       -0.00000200000000
C           -5.08924600000000       -6.15321500000000       -0.00000100000000
C           -7.23321300000000       -4.95214400000000       -0.00000200000000
C           -2.93292300000000       -4.92504100000000       -0.00000100000000
C           -5.06793000000000       -3.66629200000000       -0.00000100000000
C           -7.19634500000000       -2.35759900000000       -0.00000100000000
C           -0.77100300000000       -3.70085000000000        0.00000000000000
C           -2.90432400000000       -2.44321400000000       -0.00000100000000
C           -5.01789000000000       -1.18424200000000       -0.00000100000000
C           -7.12676300000000        0.08504900000000       -0.00000100000000
C           -7.90282600000000       -6.17882500000000       -0.00000200000000
C           -5.79973800000000       -4.92096500000000       -0.00000100000000
B           -8.01411700000000       -3.64599200000000       -0.00000200000000
C           -3.64964500000000       -3.67654900000000       -0.00000100000000
C           -5.76016600000000       -2.40276700000000       -0.00000100000000
C           -7.83527600000000       -1.12838600000000       -0.00000100000000
C            1.37533100000000       -2.48394300000000        0.00000100000000
C           -7.13572200000000        2.53436600000000       -0.00000100000000
C            1.54070600000000        7.48264700000000       -0.00000200000000
C           -0.75105800000000       -1.22819300000000        0.00000000000000
B            8.02212300000000        3.62011400000000        0.00000000000000
C           -2.86654200000000        0.03214200000000       -0.00000100000000
C            5.81476300000000        4.91447100000000       -0.00000100000000
C           -4.98715000000000        1.30495800000000       -0.00000100000000
C            3.67154200000000        6.16590300000000       -0.00000100000000
C            3.51770100000000       -1.26776100000000        0.00000100000000
C           -4.98752000000000        3.78883600000000       -0.00000100000000
C            1.40484500000000       -0.01651500000000        0.00000000000000
C           -7.11309000000000        5.12715500000000       -0.00000100000000
C           -0.71936000000000        1.25286000000000       -0.00000100000000
C            7.92872900000000        6.15586100000000       -0.00000100000000
C           -2.85778600000000        2.51513700000000       -0.00000100000000
C            5.86354500000000        7.36960100000000       -0.00000200000000
C            5.67663400000000       -0.07015200000000        0.00000200000000
C           -2.81323900000000        4.99695000000000       -0.00000100000000
C            3.56335700000000        1.21673600000000        0.00000000000000
C           -4.94589400000000        6.30658300000000       -0.00000100000000
C            1.43345500000000        2.46190900000000        0.00000000000000
C           -7.23568300000000        7.61487200000000       -0.00000100000000
C           -0.70070300000000        3.71440100000000       -0.00000100000000
C            7.82870000000000        1.10395400000000        0.00000200000000
C           -0.66826500000000        6.25906700000000       -0.00000100000000
C            5.75840100000000        2.39139900000000        0.00000100000000
C           -2.78010500000000        7.47807900000000       -0.00000100000000
C            3.66325400000000        3.68344300000000        0.00000000000000
B            1.48019500000000        4.96992500000000       -0.00000100000000
C           -1.47826200000000       -2.45667000000000        0.00000000000000
C            7.20050200000000        2.33193400000000        0.00000100000000
C           -1.43005900000000        7.47535400000000       -0.00000100000000
C           -3.59078100000000       -1.19850400000000       -0.00000100000000
C            5.08215200000000        3.65579400000000        0.00000000000000
C           -5.70463300000000        0.06615100000000       -0.00000100000000
C            2.98618300000000        4.94456000000000       -0.00000100000000
C           -7.80233500000000        1.32531300000000       -0.00000100000000
C            0.73010200000000        6.29444200000000       -0.00000100000000
C            0.67709300000000       -1.24395300000000        0.00000000000000
B           -7.91672300000000        3.84361400000000       -0.00000100000000
C           -1.44791500000000        0.01710400000000       -0.00000100000000
C            7.24819500000000        4.93379600000000        0.00000000000000
C           -3.56845800000000        1.28333000000000       -0.00000100000000
C            5.11475100000000        6.16514100000000       -0.00000100000000
C           -5.69650200000000        2.54575500000000       -0.00000100000000
C            2.90597500000000        7.40709100000000       -0.00000200000000
C            2.82663900000000       -0.02361000000000        0.00000100000000
C           -5.69782400000000        5.07105900000000       -0.00000100000000
C            0.70543300000000        1.22958200000000        0.00000000000000
C           -7.82742700000000        6.38331200000000       -0.00000100000000
C           -1.43362400000000        2.49741000000000       -0.00000100000000
C            7.24588100000000        7.37626900000000       -0.00000100000000
C           -3.56505700000000        3.76479000000000       -0.00000100000000
C            4.99910900000000        1.18667800000000        0.00000100000000
C           -3.54253000000000        6.25672400000000       -0.00000100000000
C            2.88751700000000        2.45881700000000        0.00000000000000
B           -5.72354500000000        7.66708300000000       -0.00000100000000
C            0.71058300000000        3.67547100000000       -0.00000100000000
C           -1.40033600000000        4.98606300000000       -0.00000100000000
H           -3.41942000000000       -8.31664500000000       -0.00000100000000
H            0.86095000000000       -8.34808900000000        0.00000100000000
H            5.24205000000000       -8.63657500000000        0.00000300000000
H           -5.30003400000000       -8.31447600000000       -0.00000100000000
H           -1.03786300000000       -8.32865200000000        0.00000000000000
H            3.26086200000000       -8.36050700000000        0.00000200000000
H            8.94475700000000       -6.09619200000000        0.00000600000000
H            8.84270600000000       -3.78421100000000        0.00000600000000
H            8.86287000000000       -1.35727500000000        0.00000400000000
H            7.94328700000000       -8.32123800000000        0.00000400000000
H           -7.73278000000000       -8.33861600000000       -0.00000200000000
H           -8.98973100000000       -6.18110700000000       -0.00000200000000
H           -9.21248500000000       -3.62279500000000       -0.00000200000000
H           -8.92220800000000       -1.09470200000000       -0.00000200000000
H            1.09983300000000        8.47605800000000       -0.00000200000000
H            9.22049000000000        3.59248800000000        0.00000100000000
H            9.01572700000000        6.14696600000000       -0.00000100000000
H            5.34803800000000        8.32189100000000       -0.00000200000000
H           -7.87609600000000        8.49661100000000       -0.00000100000000
H            8.91526200000000        1.06000100000000        0.00000200000000
H           -3.31042300000000        8.41783300000000       -0.00000100000000
H           -0.90320500000000        8.42171300000000       -0.00000200000000
H           -8.88998300000000        1.31830100000000       -0.00000100000000
H           -9.11746800000000        3.84095400000000       -0.00000100000000
H            3.44661400000000        8.34572000000000       -0.00000200000000
H           -8.91502800000000        6.29324800000000       -0.00000100000000
H            7.78731100000000        8.31742500000000       -0.00000200000000
H           -5.16726700000000        8.72510500000000       -0.00000100000000
132
 energy: -232.150098498428 gnorm: 0.028346986772 xtb: 6.7.1pre (5071a88)
C           -2.90283818477069       -7.33725985827639       -0.00000091957916
C            1.37660630584060       -7.37051325812819        0.00000107416156
C           -0.79463417768097       -6.14739848007271       -0.00000001429897
B            5.74577272189372       -7.54861369099869        0.00000293493569
C            3.49948145383278       -6.18912831339872        0.00000196343572
C            1.35556682994246       -4.94445817040447        0.00000093344799
C           -5.80882954773839       -7.34533940218304       -0.00000113127292
C           -1.54057538588532       -7.34494346591448        0.00000002358281
C           -3.63746385875295       -6.13362711978301       -0.00000097293594
C            2.73665232278486       -7.38315126920512        0.00000204290005
C            0.63897147896274       -6.16145379154607        0.00000102860252
C           -1.49938155896732       -4.91787032650365        0.00000000211477
C            7.83952780631398       -6.20576709899334        0.00000486807557
C            5.61945362714057       -5.00304778003616        0.00000287547709
C            3.49970760953249       -3.73346872716664        0.00000186859872
C            7.73104068853651       -3.78729013118735        0.00000490777662
C            5.62526947343482       -2.52530519089076        0.00000293392356
C            7.75160334005788       -1.34289099410866        0.00000407527867
C            7.26856258877265       -7.42862858226609        0.00000409107468
C            4.92785225177723       -6.22852835758168        0.00000289364392
C            2.78354335745583       -4.95793044304743        0.00000195724619
C            0.64568263785239       -3.70469150084541        0.00000083636763
C            7.06751816189684       -4.98604055804746        0.00000422399958
C            4.91780530520811       -3.75696195911605        0.00000292156718
C            2.79366417696733       -2.48999817173346        0.00000089770642
C            7.05324781541508       -2.54207148928482        0.00000399820970
C            4.93570703391929       -1.28941842413224        0.00000192894066
C            7.08486913342683       -0.11430675775742        0.00000287308415
C           -7.18371375382154       -7.36910450921620       -0.00000187662406
C           -5.07892462883497       -6.13769140844054       -0.00000108869407
C           -7.21286954033293       -4.94383922748929       -0.00000174201715
C           -2.92805246866520       -4.91036132677960       -0.00000084186499
C           -5.05823687513733       -3.65802034241741       -0.00000101001263
C           -7.17636357736854       -2.35175165376583       -0.00000118084157
C           -0.77026718093627       -3.69036219402027       -0.00000010142680
C           -2.89949660734886       -2.43819566170519       -0.00000084839488
C           -5.00683025098763       -1.18187670957942       -0.00000105941611
C           -7.10411968575444        0.08563825421425       -0.00000117025759
C           -7.87753035423351       -6.16678400091383       -0.00000174494966
C           -5.78586323619188       -4.90960145305432       -0.00000113583507
B           -8.00471467722265       -3.63855969157670       -0.00000189592111
C           -3.64318465638707       -3.66644972795480       -0.00000089234587
C           -5.74570223045320       -2.39761441612666       -0.00000113896946
C           -7.80967615819226       -1.12495345105158       -0.00000115948474
C            1.37218788963613       -2.47797318046802        0.00000085612998
C           -7.11631500622752        2.52823142583796       -0.00000107263190
C            1.54041198128812        7.45383989728209       -0.00000174360607
C           -0.75021258266348       -1.22522327126499       -0.00000003056634
B            8.01260695823841        3.61337664941940       -0.00000016691736
C           -2.86172374516139        0.03368322084991       -0.00000085803438
C            5.80344294604152        4.90530765076031       -0.00000074196562
C           -4.97706861319043        1.30464007230349       -0.00000104825985
C            3.67186028753772        6.15036164653350       -0.00000089459235
C            3.50946166925868       -1.26479365428324        0.00000083531407
C           -4.97679203806104        3.78496565712515       -0.00000106724098
C            1.40203725660927       -0.01602923491582       -0.00000001007984
C           -7.09210778610759        5.12172848861017       -0.00000108764080
C           -0.71894561601993        1.25029328576123       -0.00000072692774
C            7.90682998927771        6.14394453035300       -0.00000120171780
C           -2.85340444251207        2.51073965463889       -0.00000093959737
C            5.85424379141503        7.34954530792390       -0.00000139360128
C            5.66024023360664       -0.07022733104235        0.00000191683900
C           -2.80655583399071        4.98496022021163       -0.00000114143060
C            3.55560098758692        1.21467277585671        0.00000023943699
C           -4.93347632006726        6.29016619311903       -0.00000113190733
C            1.43177914647673        2.45171118162556       -0.00000011473563
C           -7.22355635532932        7.58862755677514       -0.00000111158074
C           -0.70141022796982        3.70513728778212       -0.00000097503162
C            7.80300922345838        1.09902184151537        0.00000198098411
C           -0.66914097216221        6.23882748946787       -0.00000119675046
C            5.74560032276332        2.38639648834632        0.00000081993088
C           -2.77428934288189        7.44752556377902       -0.00000115450492
C            3.66139233003916        3.67325018526705       -0.00000001942434
B            1.48113104112943        4.95709999887510       -0.00000092738621
C           -1.47585817644746       -2.45032830496715       -0.00000009539023
C            7.18124905720237        2.32543476552489        0.00000076931340
C           -1.42810925063385        7.44601936296106       -0.00000112810709
C           -3.58336927807620       -1.19572731780980       -0.00000092479998
C            5.07629237194452        3.64963139638124       -0.00000009828913
C           -5.68819002426247        0.06757631346020       -0.00000113657407
C            2.99123279744515        4.93224489150608       -0.00000093709560
C           -7.77755331448670        1.32164193087854       -0.00000107032340
C            0.72855780747502        6.27860854973669       -0.00000110179630
C            0.67530749480393       -1.24088146279771       -0.00000000466190
B           -7.90839612039297        3.83742750545619       -0.00000108403006
C           -1.44526143671621        0.01832369299204       -0.00000072619592
C            7.23026886739356        4.92645756345621       -0.00000041433825
C           -3.56100179527503        1.28209524190855       -0.00000093222033
C            5.10950194339469        6.15133354422262       -0.00000079992036
C           -5.68236810621397        2.54274724871236       -0.00000106858872
C            2.90145248977233        7.37561780967326       -0.00000168213525
C            2.82141561407703       -0.02183386715384        0.00000065600100
C           -5.68161368884923        5.06369957028669       -0.00000108293101
C            0.70391264909132        1.22608319357437       -0.00000000794691
C           -7.81006541596766        6.36652633701194       -0.00000110805793
C           -1.43191653663910        2.49020612945002       -0.00000086929596
C            7.22874604713380        7.35591283545003       -0.00000102702200
C           -3.55792833141121        3.75833995913746       -0.00000104598764
C            4.98781667956245        1.18491166986933        0.00000083571325
C           -3.53420177057510        6.23522077144390       -0.00000123522053
C            2.88187277198131        2.45473689136686        0.00000002254063
B           -5.70963307193937        7.65366848142962       -0.00000111034013
C            0.70720664640055        3.66108708084969       -0.00000090184819
C           -1.39651621741266        4.97470970840352       -0.00000115276901
H           -3.41201896627204       -8.28872411214228       -0.00000088230332
H            0.86352076343100       -8.32013714275164        0.00000123257487
H            5.25777380554040       -8.62323741076461        0.00000331462335
H           -5.29221898460700       -8.29285228354049       -0.00000114362270
H           -1.04027607122625       -8.30099573247393       -0.00000010786467
H            3.24991976008163       -8.33079052045962        0.00000193946356
H            8.91979315403618       -6.08278466098714        0.00000597359786
H            8.81542350259108       -3.77631263909555        0.00000603725592
H            8.83514944159380       -1.35450777547157        0.00000384214501
H            7.92703680133124       -8.29228676473876        0.00000385334520
H           -7.71282471514438       -8.31374942180699       -0.00000185258201
H           -8.96034539065270       -6.17229621718645       -0.00000159795608
H           -9.18583590421280       -3.61962221797931       -0.00000178932989
H           -8.89272216967150       -1.09145506744009       -0.00000159283422
H            1.10253141525780        8.44562106575041       -0.00000167027942
H            9.19391160345543        3.58872570133549        0.00000049391668
H            8.98971204298994        6.13783465693442       -0.00000121189520
H            5.34389722155294        8.30102293605796       -0.00000135294173
H           -7.86480720730621        8.46503570934783       -0.00000111718881
H            8.88571619109957        1.05491324648818        0.00000204680510
H           -3.29748483597817        8.38681942941651       -0.00000095860844
H           -0.90374048529246        8.39064489505121       -0.00000152714123
H           -8.86129445649003        1.31385499342570       -0.00000107506601
H           -9.09137850756954        3.83689563185923       -0.00000109458561
H            3.43977955061945        8.31305137200543       -0.00000162211285
H           -8.89329964607240        6.27679882772396       -0.00000111256523
H            7.77084602321649        8.29314482072011       -0.00000157037998
H           -5.19301533599987        8.71347442274853       -0.00000111366478
132
 energy: -232.154078209785 gnorm: 0.008710367869 xtb: 6.7.1pre (5071a88)
C           -2.89571946044220       -7.31388252640664       -0.00000072552207
C            1.37081806535059       -7.34792144780666        0.00000068038307
C           -0.79325797560106       -6.12790542508941       -0.00000000348791
B            5.72511281139728       -7.53801732054336        0.00000333717025
C            3.48920890369986       -6.17036196155731        0.00000201348027
C            1.35182183577920       -4.92904529345684        0.00000149108042
C           -5.78805126029549       -7.32586549340891       -0.00000122335864
C           -1.53519352870016       -7.32193874994627       -0.00000026592571
C           -3.62741461723254       -6.11397897261929       -0.00000100389764
C            2.72909021858509       -7.36053367528175        0.00000131505237
C            0.63641193800126       -6.14256242462036        0.00000104117667
C           -1.49647453758155       -4.90144454406099       -0.00000006706707
C            7.81852633884168       -6.18816451606206        0.00000456018913
C            5.60342909125333       -4.99166968097743        0.00000290587566
C            3.48904275538355       -3.72144193979810        0.00000243957146
C            7.70908348551966       -3.77711056583483        0.00000472104992
C            5.60901096793920       -2.52003737992333        0.00000286029458
C            7.73011749179120       -1.33967501479547        0.00000347901489
C            7.24897321430913       -7.40682086476609        0.00000361392561
C            4.91297589381242       -6.21365067231868        0.00000285564039
C            2.77514959978967       -4.94266374056984        0.00000222717920
C            0.64400103411864       -3.69253825482300        0.00000061014183
C            7.04653525257085       -4.97320422600913        0.00000413392310
C            4.90404396915225       -3.74827643046521        0.00000314569472
C            2.78591662705918       -2.48232728942788        0.00000170123424
C            7.03317942530703       -2.53596560292835        0.00000374698289
C            4.92122509461966       -1.28649051471760        0.00000199938075
C            7.06414428731822       -0.11477208090224        0.00000248425649
C           -7.16038779294121       -7.35064669157508       -0.00000129000927
C           -5.06473375742402       -6.12024550895119       -0.00000172754292
C           -7.19219670949358       -4.93123202822596       -0.00000164802119
C           -2.92017708070073       -4.89369603983593       -0.00000058903814
C           -5.04562303089065       -3.64692339535737       -0.00000098783843
C           -7.15715840647345       -2.34555030773155       -0.00000141000051
C           -0.76881126660840       -3.67756340413319        0.00000010699630
C           -2.89239283202714       -2.43054070993629       -0.00000033453776
C           -4.99400503942502       -1.17835382758071       -0.00000105876117
C           -7.08372696029856        0.08586196877810       -0.00000135291089
C           -7.85369696590106       -6.15263856991301       -0.00000160125825
C           -5.77025690326440       -4.89502960443581       -0.00000142421472
B           -7.99326252396206       -3.62882872919246       -0.00000139637713
C           -3.63353873538668       -3.65370183081896       -0.00000034664858
C           -5.73049724683721       -2.39102221007836       -0.00000104964058
C           -7.78827819513707       -1.12167581017891       -0.00000148904793
C            1.36765952868944       -2.47027146785869        0.00000040137277
C           -7.09752645519833        2.52110099508393       -0.00000113313074
C            1.53644628810498        7.42925712035096       -0.00000132636968
C           -0.74858856446699       -1.22053368663196        0.00000004936490
B            8.00208202034923        3.60336927948488        0.00000078181391
C           -2.85487691373399        0.03562821817575       -0.00000069080944
C            5.78996383986770        4.89244424476010       -0.00000034340793
C           -4.96536580471642        1.30338754390656       -0.00000123645368
C            3.66586175781692        6.13363395203424       -0.00000167464526
C            3.49929196358523       -1.26082924729890        0.00000138514085
C           -4.96424066838549        3.77801579082775       -0.00000114234789
C            1.39822306572675       -0.01518896146677       -0.00000013745497
C           -7.07349888504808        5.10935155914330       -0.00000116186528
C           -0.71766560855270        1.24793862276961       -0.00000026541817
C            7.88732267272167        6.12895056606841       -0.00000091647738
C           -2.84661593251300        2.50470531837236       -0.00000101852216
C            5.83871439030650        7.33101058278895       -0.00000154408274
C            5.64358504661705       -0.07002012613445        0.00000180247844
C           -2.79899754168165        4.97150905464765       -0.00000116774446
C            3.54618600390848        1.21151780658409        0.00000063969861
C           -4.92187113200258        6.27176375242533       -0.00000086163037
C            1.42930648394746        2.44235890779460       -0.00000026394533
C           -7.20688955024135        7.56407728311177       -0.00000101087924
C           -0.70022558539059        3.69571638041755       -0.00000088699704
C            7.78169527419467        1.09403096568507        0.00000203447117
C           -0.67084908316503        6.21974263754760       -0.00000133842075
C            5.73219666540843        2.38018638429419        0.00000089006205
C           -2.77228930285079        7.42269867399054       -0.00000094494836
C            3.65420239489594        3.66124839978917       -0.00000032691606
B            1.47857444378319        4.94307058004881       -0.00000039587225
C           -1.47183962025648       -2.44170957380591        0.00000009206397
C            7.16288885042898        2.31852570685448        0.00000119321583
C           -1.42585272312416        7.42221510730516       -0.00000174262488
C           -3.57407247192928       -1.19131451407505       -0.00000072943477
C            5.06614006744395        3.64072266019873        0.00000012168956
C           -5.67189936012675        0.06902115970965       -0.00000127691584
C            2.98880871995700        4.91743661798564       -0.00000061118358
C           -7.75688000392794        1.31736994323631       -0.00000119253971
C            0.72712476518915        6.26277127997706       -0.00000115907521
C            0.67298456825398       -1.23650173767024       -0.00000017209388
B           -7.89882476575924        3.82630337823792       -0.00000114939340
C           -1.44142412507962        0.02035383253322       -0.00000019841736
C            7.21235122524604        4.91401099465090       -0.00000054402650
C           -3.55149433959344        1.28002059139356       -0.00000103424637
C            5.09954371200789        6.13533191258717       -0.00000132929445
C           -5.66787003786236        2.53797795555511       -0.00000115828465
C            2.89638698886290        7.34839428747614       -0.00000163159248
C            2.81429809059582       -0.01998657396036        0.00000032201891
C           -5.66639077922695        5.05239252629754       -0.00000109063402
C            0.70247994779070        1.22289380301724       -0.00000005367221
C           -7.79374729922243        6.34624004293979       -0.00000103238044
C           -1.42825640586110        2.48288625252655       -0.00000074800012
C            7.21066697269202        7.33738410316624       -0.00000165317189
C           -3.54880770110230        3.74930980662706       -0.00000119757775
C            4.97509048765457        1.18240999070919        0.00000086836569
C           -3.52476320964313        6.21423953992280       -0.00000087257080
C            2.87395941059875        2.44885623895356        0.00000014663206
B           -5.68916548798277        7.63962438032849       -0.00000104900344
C            0.70436315236040        3.64806506208270       -0.00000065101202
C           -1.39112180248205        4.96274389867041       -0.00000120432809
H           -3.40477760740756       -8.26344154854339       -0.00000114061461
H            0.85787373082797       -8.29575984781705        0.00000050363898
H            5.24807073248164       -8.60560035468938        0.00000268262991
H           -5.27194984796584       -8.27189152281016       -0.00000117859172
H           -1.03481430211096       -8.27611143449663        0.00000017120052
H            3.24160400575225       -8.30619098233082        0.00000182265031
H            8.89664510636044       -6.06394259755467        0.00000568838552
H            8.79142936720191       -3.76464536884923        0.00000582010534
H            8.81144147304169       -1.35055400828251        0.00000456874435
H            7.90601855982012       -8.26893574540972        0.00000452892461
H           -7.68944677125075       -8.29308214157311       -0.00000150326689
H           -8.93413824872030       -6.15939272577608       -0.00000211978001
H           -9.16198453417948       -3.61150526015096       -0.00000220488167