      -----------------------------------------------------------      
     |                   =====================                   |     
     |                           x T B                           |     
     |                   =====================                   |     
     |                         S. Grimme                         |     
     |          Mulliken Center for Theoretical Chemistry        |     
     |                    University of Bonn                     |     
      -----------------------------------------------------------      

   * xtb version 6.7.1pre (5071a88) compiled by 'Marcel@Raven' on 2024-07-23

   xtb is free software: you can redistribute it and/or modify it under
   the terms of the GNU Lesser General Public License as published by
   the Free Software Foundation, either version 3 of the License, or
   (at your option) any later version.
   
   xtb is distributed in the hope that it will be useful,
   but WITHOUT ANY WARRANTY; without even the implied warranty of
   MERCHANTABILITY or FITNESS FOR A PARTICULAR PURPOSE.  See the
   GNU Lesser General Public License for more details.
   
   Cite this work as:
   * C. Bannwarth, E. Caldeweyher, S. Ehlert, A. Hansen, P. Pracht,
     J. Seibert, S. Spicher, S. Grimme, WIREs Comput. Mol. Sci., 2020, 11,
     e01493. DOI: 10.1002/wcms.1493
   
   for GFN2-xTB:
   * C. Bannwarth, S. Ehlert and S. Grimme., J. Chem. Theory Comput., 2019,
     15, 1652-1671. DOI: 10.1021/acs.jctc.8b01176
   for GFN1-xTB:
   * S. Grimme, C. Bannwarth, P. Shushkov, J. Chem. Theory Comput., 2017,
     13, 1989-2009. DOI: 10.1021/acs.jctc.7b00118
   for GFN0-xTB:
   * P. Pracht, E. Caldeweyher, S. Ehlert, S. Grimme, ChemRxiv, 2019, preprint.
     DOI: 10.26434/chemrxiv.8326202.v1
   for GFN-FF:
   * S. Spicher and S. Grimme, Angew. Chem. Int. Ed., 2020, 59, 15665-15673.
     DOI: 10.1002/anie.202004239
   
   for ALPB and GBSA implicit solvation:
   * S. Ehlert, M. Stahn, S. Spicher, S. Grimme, J. Chem. Theory Comput.,
     2021, 17, 4250-4261. DOI: 10.1021/acs.jctc.1c00471
   
   for ddCOSMO and CPCM-X implicit solvation:
   * M. Stahn, S. Ehlert, S. Grimme, J. Phys. Chem. A,
     2023, XX, XXXX-XXXX. DOI: 10.1021/acs.jpca.3c04382
   
   for DFT-D4:
   * E. Caldeweyher, C. Bannwarth and S. Grimme, J. Chem. Phys., 2017,
     147, 034112. DOI: 10.1063/1.4993215
   * E. Caldeweyher, S. Ehlert, A. Hansen, H. Neugebauer, S. Spicher,
     C. Bannwarth and S. Grimme, J. Chem. Phys., 2019, 150, 154122.
     DOI: 10.1063/1.5090222
   * E. Caldeweyher, J.-M. Mewes, S. Ehlert and S. Grimme, Phys. Chem. Chem. Phys.
     2020, 22, 8499-8512. DOI: 10.1039/D0CP00502A
   
   for sTDA-xTB:
   * S. Grimme and C. Bannwarth, J. Chem. Phys., 2016, 145, 054103.
     DOI: 10.1063/1.4959605
   
   in the mass-spec context:
   * V. Asgeirsson, C. Bauer and S. Grimme, Chem. Sci., 2017, 8, 4879.
     DOI: 10.1039/c7sc00601b
   * J. Koopman and S. Grimme, ACS Omega 2019, 4, 12, 15120-15133.
     DOI: 10.1021/acsomega.9b02011
   
   for metadynamics refer to:
   * S. Grimme, J. Chem. Theory Comput., 2019, 155, 2847-2862
     DOI: 10.1021/acs.jctc.9b00143
   
   for SPH calculations refer to:
   * S. Spicher and S. Grimme, J. Chem. Theory Comput., 2021, 17, 1701-1714
     DOI: 10.1021/acs.jctc.0c01306
   
   for ONIOM refer to:
   * C. Plett, A. Katbashev, S. Ehlert, S. Grimme, M. Bursch,
     Phys. Chem. Chem. Phys., 2023, 25, 17860-17868. DOI: 10.1039/D3CP02178E
   
   for DIPRO refer to:
   * J. Kohn, N. Gildemeister, S. Grimme, D. Fazzi, A. Hansen,
     J. Chem. Phys., 2023, just accepted.
   
   for PTB refer to:
   * S. Grimme, M. Mueller, A. Hansen, J. Chem. Phys., 2023, 158, 124111.
     DOI: 10.1063/5.0137838
   
   with help from (in alphabetical order)
   P. Atkinson, C. Bannwarth, F. Bohle, G. Brandenburg, E. Caldeweyher
   M. Checinski, S. Dohm, S. Ehlert, S. Ehrlich, I. Gerasimov, C. Hölzer
   A. Katbashev, J. Kohn, J. Koopman, C. Lavigne, S. Lehtola, F. März, M. Müller,
   F. Musil, H. Neugebauer, J. Pisarek, C. Plett, P. Pracht, F. Pultar,
   J. Seibert, P. Shushkov, S. Spicher, M. Stahn, M. Steiner, T. Strunk,
   J. Stückrath, T. Rose, and J. Unsleber
   
 * started run on 2025/12/08 at 00:51:22.054     
   ID    Z sym.   atoms
    1    6 C      1-4, 6-18, 20, 22-40, 42-97, 99-107, 109-134, 136-147,
                  149-159, 161-170
    2    7 N      5, 19, 21, 41, 98, 108, 135, 148, 160
    3    1 H      171-205

           -------------------------------------------------
          |                Calculation Setup                |
           -------------------------------------------------

          program call               : xtb "C:\Users\LENOVO GAMING\Documents\GitHub\molecular-conductivity-sim\dataset\2nm-9Ndoped-5percent.xyz" --opt --parallel 4
          coordinate file            : C:\Users\LENOVO GAMING\Documents\GitHub\molecular-conductivity-sim\dataset\2nm-9Ndoped-5percent.xyz
          omp threads                :                     4


           -------------------------------------------------
          |                 G F N 2 - x T B                 |
           -------------------------------------------------

        Reference                      10.1021/acs.jctc.8b01176
      * Hamiltonian:
        H0-scaling (s, p, d)           1.850000    2.230000    2.230000
        zeta-weighting                 0.500000
      * Dispersion:
        s8                             2.700000
        a1                             0.520000
        a2                             5.000000
        s9                             5.000000
      * Repulsion:
        kExp                           1.500000    1.000000
        rExp                           1.000000
      * Coulomb:
        alpha                          2.000000
        third order                    shell-resolved
        anisotropic                    true
        a3                             3.000000
        a5                             4.000000
        cn-shift                       1.200000
        cn-exp                         4.000000
        max-rad                        5.000000


          ...................................................
          :                      SETUP                      :
          :.................................................:
          :  # basis functions                 715          :
          :  # atomic orbitals                 715          :
          :  # shells                          375          :
          :  # electrons                       724          :
          :  max. iterations                   250          :
          :  Hamiltonian                  GFN2-xTB          :
          :  restarted?                      false          :
          :  GBSA solvation                  false          :
          :  PC potential                    false          :
          :  electronic temp.          300.0000000     K    :
          :  accuracy                    1.0000000          :
          :  -> integral cutoff          0.2500000E+02      :
          :  -> integral neglect         0.1000000E-07      :
          :  -> SCF convergence          0.1000000E-05 Eh   :
          :  -> wf. convergence          0.1000000E-03 e    :
          :  Broyden damping             0.4000000          :
          :  net charge                          0          :
          :  unpaired electrons                  0          :
          ...................................................

 iter      E             dE          RMSdq      gap      omega  full diag
   1   -396.7610718 -0.396761E+03  0.467E+00    0.28       0.0  T
   2   -396.1789079  0.582164E+00  0.346E+00    0.21       1.0  T
   3   -393.2596277  0.291928E+01  0.287E+00    0.08       1.0  T
   4   -378.9486227  0.143110E+02  0.362E+00    0.09       1.0  T
   5   -388.9286491 -0.998003E+01  0.275E+00    0.23       1.0  T
   6   -396.1005286 -0.717188E+01  0.139E+00    0.24       1.0  T
   7   -396.9637159 -0.863187E+00  0.893E-01    0.22       1.0  T
   8   -397.2620769 -0.298361E+00  0.638E-01    0.24       1.0  T
   9   -397.2896033 -0.275264E-01  0.547E-01    0.28       1.0  T
  10   -397.3413824 -0.517791E-01  0.483E-01    0.27       1.0  T
  11   -397.4411221 -0.997398E-01  0.282E-01    0.31       1.0  T
  12   -397.4648155 -0.236934E-01  0.179E-01    0.29       1.0  T
  13   -397.4721025 -0.728692E-02  0.123E-01    0.28       1.0  T
  14   -397.4759944 -0.389190E-02  0.761E-02    0.28       1.0  T
  15   -397.4771881 -0.119374E-02  0.389E-02    0.27       1.0  T
  16   -397.4776066 -0.418477E-03  0.157E-02    0.27       1.0  T
  17   -397.4776509 -0.443491E-04  0.116E-02    0.27       1.0  T
  18   -397.4776655 -0.145190E-04  0.694E-03    0.27       1.0  T
  19   -397.4776815 -0.160664E-04  0.457E-03    0.27       1.5  T
  20   -397.4776853 -0.379552E-05  0.257E-03    0.27       2.7  T
  21   -397.4776868 -0.150191E-05  0.147E-03    0.27       4.7  T
  22   -397.4776871 -0.289074E-06  0.707E-04    0.27       9.9  T
  23   -397.4776872 -0.125530E-06  0.331E-04    0.27      21.1  T

   *** convergence criteria satisfied after 23 iterations ***

         #    Occupation            Energy/Eh            Energy/eV
      -------------------------------------------------------------
         1        2.0000           -0.6919791             -18.8297
       ...           ...                  ...                  ...
       356        2.0000           -0.3490200              -9.4973
       357        2.0000           -0.3415787              -9.2948
       358        2.0000           -0.3347505              -9.1090
       359        2.0000           -0.3273291              -8.9071
       360        2.0000           -0.3157337              -8.5916
       361        2.0000           -0.3137285              -8.5370
       362        1.9889           -0.3063235              -8.3355 (HOMO)
       363        0.0093           -0.2962914              -8.0625 (LUMO)
       364        0.0018           -0.2947347              -8.0201
       365        0.0000           -0.2872363              -7.8161
       366                         -0.2824060              -7.6847
       367                         -0.2776617              -7.5556
       ...                                ...                  ...
       715                          0.7663558              20.8536
      -------------------------------------------------------------
                  HL-Gap            0.0100321 Eh            0.2730 eV
             Fermi-level           -0.3013923 Eh           -8.2013 eV

 SCC (total)                   0 d,  0 h,  0 min,  3.746 sec
 SCC setup                      ...        0 min,  0.005 sec (  0.133%)
 Dispersion                     ...        0 min,  0.016 sec (  0.427%)
 classical contributions        ...        0 min,  0.001 sec (  0.027%)
 integral evaluation            ...        0 min,  0.088 sec (  2.349%)
 iterations                     ...        0 min,  3.334 sec ( 89.002%)
 molecular gradient             ...        0 min,  0.290 sec (  7.742%)
 printout                       ...        0 min,  0.012 sec (  0.320%)

         :::::::::::::::::::::::::::::::::::::::::::::::::::::
         ::                     SUMMARY                     ::
         :::::::::::::::::::::::::::::::::::::::::::::::::::::
         :: total energy            -390.473222526862 Eh    ::
         :: gradient norm              0.078458157336 Eh/a0 ::
         :: HOMO-LUMO gap              0.272987049558 eV    ::
         ::.................................................::
         :: SCC energy              -397.494645360039 Eh    ::
         :: -> isotropic ES            0.042526273062 Eh    ::
         :: -> anisotropic ES          0.030179342911 Eh    ::
         :: -> anisotropic XC          0.130176236090 Eh    ::
         :: -> dispersion             -0.488059326340 Eh    ::
         :: repulsion energy           7.021422833177 Eh    ::
         :: add. restraining           0.000000000000 Eh    ::
         :: total charge              -0.000000000001 e     ::
         :::::::::::::::::::::::::::::::::::::::::::::::::::::

      ----------------------------------------------------------- 
     |                   =====================                   |
     |                        A N C O P T                        |
     |                   =====================                   |
     |               Approximate Normal Coordinate               |
     |                Rational Function Optimizer                |
      ----------------------------------------------------------- 
      ----------------------------------------------------------- 
     |                   =====================                   |
     |                        A N C O P T                        |
     |                   =====================                   |
     |               Approximate Normal Coordinate               |
     |                Rational Function Optimizer                |
      ----------------------------------------------------------- 

          ...................................................
          :                      SETUP                      :
          :.................................................:
          :   optimization level            normal          :
          :   max. optcycles                   615          :
          :   ANC micro-cycles                  20          :
          :   degrees of freedom               609          :
          :.................................................:
          :   RF solver                   davidson          :
          :   write xtbopt.log                true          :
          :   linear?                        false          :
          :   energy convergence         0.5000000E-05 Eh   :
          :   grad. convergence          0.1000000E-02 Eh/α :
          :   maxmium RF displ.          1.0000000          :
          :   Hlow (freq-cutoff)         0.1000000E-01      :
          :   Hmax (freq-cutoff)         5.0000000          :
          :   S6 in model hess.         20.0000000          :
          ...................................................

generating ANC from exact Hessian ...
Using Lindh-Hessian (1995)
 Shifting diagonal of input Hessian by   9.940680337797582E-003
 Lowest  eigenvalues of input Hessian
    0.000000    0.000000    0.000000    0.000000    0.000000    0.000000
    0.010000    0.010082    0.010097    0.010213    0.010238    0.010681
    0.010711    0.010788    0.010847    0.011050    0.011697    0.011750
 Highest eigenvalues
    2.180950    2.189992    2.191251    2.200598    2.215379    2.223157
 

........................................................................
.............................. CYCLE    1 ..............................
........................................................................

 iter      E             dE          RMSdq      gap      omega  full diag
   1   -397.4776873 -0.397478E+03  0.163E-04    0.27       0.0  T
   2   -397.4776873  0.207762E-07  0.227E-04    0.27      30.7  T
   3   -397.4776873 -0.210139E-07  0.121E-04    0.27      57.8  T
     SCC iter.                  ...        0 min,  0.406 sec
     gradient                   ...        0 min,  0.293 sec
 * total energy  :  -390.4732226 Eh     change       -0.3974719E-07 Eh
   gradient norm :     0.0784648 Eh/α   predicted     0.0000000E+00 (-100.00%)
   displ. norm   :     0.5342974 α      lambda       -0.2082250E-01
   maximum displ.:     0.4667658 α      in ANC's #45, #91, #185, ...

........................................................................
.............................. CYCLE    2 ..............................
........................................................................

 iter      E             dE          RMSdq      gap      omega  full diag
   1   -397.6498483 -0.397650E+03  0.107E-01    0.26       0.0  T
   2   -397.6419326  0.791574E-02  0.137E-01    0.27       1.0  T
   3   -397.6466249 -0.469231E-02  0.931E-02    0.25       1.0  T
   4   -397.6495942 -0.296929E-02  0.594E-02    0.26       1.0  T
   5   -397.6505279 -0.933746E-03  0.314E-02    0.27       1.0  T
   6   -397.6509919 -0.463950E-03  0.863E-03    0.27       1.0  T
   7   -397.6510185 -0.266569E-04  0.274E-03    0.27       2.5  T
   8   -397.6510199 -0.135912E-05  0.178E-03    0.27       3.9  T
   9   -397.6510203 -0.460559E-06  0.931E-04    0.27       7.5  T
  10   -397.6510206 -0.208967E-06  0.385E-04    0.27      18.1  T
     SCC iter.                  ...        0 min,  1.371 sec
     gradient                   ...        0 min,  0.291 sec
 * total energy  :  -390.4895323 Eh     change       -0.1630978E-01 Eh
   gradient norm :     0.0412879 Eh/α   predicted    -0.1338382E-01 ( -17.94%)
   displ. norm   :     0.6117942 α      lambda       -0.1273901E-01
   maximum displ.:     0.5754394 α      in ANC's #45, #77, #91, ...

........................................................................
.............................. CYCLE    3 ..............................
........................................................................

 iter      E             dE          RMSdq      gap      omega  full diag
   1   -397.8128892 -0.397813E+03  0.103E-01    0.26       0.0  T
   2   -397.8022821  0.106071E-01  0.148E-01    0.26       1.0  T
   3   -397.8102202 -0.793809E-02  0.892E-02    0.25       1.0  T
   4   -397.8134589 -0.323879E-02  0.489E-02    0.26       1.0  T
   5   -397.8138438 -0.384842E-03  0.296E-02    0.26       1.0  T
   6   -397.8142368 -0.393004E-03  0.977E-03    0.26       1.0  T
   7   -397.8142692 -0.324409E-04  0.270E-03    0.26       2.6  T
   8   -397.8142704 -0.122086E-05  0.181E-03    0.26       3.9  T
   9   -397.8142711 -0.605294E-06  0.100E-03    0.26       7.0  T
  10   -397.8142713 -0.245108E-06  0.401E-04    0.26      17.4  T
  11   -397.8142713 -0.468718E-07  0.172E-04    0.26      40.7  T
     SCC iter.                  ...        0 min,  1.456 sec
     gradient                   ...        0 min,  0.294 sec
 * total energy  :  -390.4984409 Eh     change       -0.8908586E-02 Eh
   gradient norm :     0.0125816 Eh/α   predicted    -0.8753563E-02 (  -1.74%)
   displ. norm   :     0.4532297 α      lambda       -0.3987912E-02
   maximum displ.:     0.4416167 α      in ANC's #45, #27, #77, ...

........................................................................
.............................. CYCLE    4 ..............................
........................................................................

 iter      E             dE          RMSdq      gap      omega  full diag
   1   -397.9121958 -0.397912E+03  0.628E-02    0.25       0.0  T
   2   -397.9102394  0.195642E-02  0.676E-02    0.25       1.0  T
   3   -397.9099466  0.292732E-03  0.681E-02    0.25       1.0  T
   4   -397.9122230 -0.227639E-02  0.256E-02    0.26       1.0  T
   5   -397.9123700 -0.146964E-03  0.119E-02    0.25       1.0  T
   6   -397.9124332 -0.632634E-04  0.474E-03    0.25       1.5  T
   7   -397.9124408 -0.757907E-05  0.116E-03    0.25       6.0  T
   8   -397.9124410 -0.145771E-06  0.747E-04    0.25       9.3  T
   9   -397.9124410 -0.231578E-07  0.437E-04    0.25      16.0  T
     SCC iter.                  ...        0 min,  1.189 sec
     gradient                   ...        0 min,  0.303 sec
 * total energy  :  -390.5010333 Eh     change       -0.2592361E-02 Eh
   gradient norm :     0.0098122 Eh/α   predicted    -0.2404413E-02 (  -7.25%)
   displ. norm   :     0.2083465 α      lambda       -0.7050046E-03
   maximum displ.:     0.2022843 α      in ANC's #45, #27, #26, ...

........................................................................
.............................. CYCLE    5 ..............................
........................................................................

 iter      E             dE          RMSdq      gap      omega  full diag
   1   -397.9508858 -0.397951E+03  0.299E-02    0.25       0.0  T
   2   -397.9508788  0.701078E-05  0.189E-02    0.25       1.0  T
   3   -397.9505538  0.324976E-03  0.255E-02    0.26       1.0  T
   4   -397.9507667 -0.212835E-03  0.146E-02    0.26       1.0  T
   5   -397.9508902 -0.123509E-03  0.214E-03    0.25       3.3  T
   6   -397.9508921 -0.192816E-05  0.847E-04    0.25       8.2  T
   7   -397.9508923 -0.220674E-06  0.398E-04    0.25      17.5  T
   8   -397.9508923 -0.640881E-08  0.277E-04    0.25      25.2  T
     SCC iter.                  ...        0 min,  1.057 sec
     gradient                   ...        0 min,  0.303 sec
 * total energy  :  -390.5014379 Eh     change       -0.4045575E-03 Eh
   gradient norm :     0.0054131 Eh/α   predicted    -0.3678059E-03 (  -9.08%)
   displ. norm   :     0.0336325 α      lambda       -0.4437640E-04
   maximum displ.:     0.0282931 α      in ANC's #45, #26, #27, ...

........................................................................
.............................. CYCLE    6 ..............................
........................................................................

 iter      E             dE          RMSdq      gap      omega  full diag
   1   -397.9552190 -0.397955E+03  0.767E-03    0.25       0.0  T
   2   -397.9551798  0.391584E-04  0.958E-03    0.25       1.0  T
   3   -397.9551991 -0.192847E-04  0.702E-03    0.25       1.0  T
   4   -397.9552172 -0.181029E-04  0.402E-03    0.25       1.7  T
   5   -397.9552230 -0.577768E-05  0.189E-03    0.25       3.7  T
   6   -397.9552243 -0.129843E-05  0.620E-04    0.25      11.3  T
   7   -397.9552245 -0.144867E-06  0.180E-04    0.25      38.9  T
   8   -397.9552245 -0.967100E-08  0.629E-05    0.25     111.1  T
     SCC iter.                  ...        0 min,  1.094 sec
     gradient                   ...        0 min,  0.313 sec
 * total energy  :  -390.5014649 Eh     change       -0.2709490E-04 Eh
   gradient norm :     0.0020454 Eh/α   predicted    -0.2221409E-04 ( -18.01%)
   displ. norm   :     0.0093597 α      lambda       -0.6071883E-05
   maximum displ.:     0.0040741 α      in ANC's #26, #21, #77, ...

........................................................................
.............................. CYCLE    7 ..............................
........................................................................

 iter      E             dE          RMSdq      gap      omega  full diag
   1   -397.9551097 -0.397955E+03  0.301E-03    0.26       0.0  T
   2   -397.9550980  0.116247E-04  0.468E-03    0.25       1.5  T
   3   -397.9551071 -0.908608E-05  0.277E-03    0.26       2.5  T
   4   -397.9551107 -0.355243E-05  0.118E-03    0.26       5.9  T
   5   -397.9551109 -0.189583E-06  0.733E-04    0.26       9.5  T
   6   -397.9551110 -0.178108E-06  0.264E-04    0.26      26.5  T
     SCC iter.                  ...        0 min,  0.821 sec
     gradient                   ...        0 min,  0.289 sec
 * total energy  :  -390.5014686 Eh     change       -0.3679212E-05 Eh
   gradient norm :     0.0006203 Eh/α   predicted    -0.3075226E-05 ( -16.42%)
   displ. norm   :     0.0086753 α      lambda       -0.7455711E-06
   maximum displ.:     0.0033958 α      in ANC's #14, #26, #18, ...

   *** GEOMETRY OPTIMIZATION CONVERGED AFTER 7 ITERATIONS ***

------------------------------------------------------------------------
 total energy gain   :        -0.0282461 Eh      -17.7247 kcal/mol
 total RMSD          :         0.1256974 a0        0.0665 Å
 total power (kW/mol):       -10.5943037 (step)   -7.1583 (real)
------------------------------------------------------------------------

 ANCopt (total)                0 d,  0 h,  0 min, 10.360 sec
 optimizer setup                ...        0 min,  0.004 sec (  0.039%)
 model hessian                  ...        0 min,  0.154 sec (  1.486%)
 ANC generation                 ...        0 min,  0.066 sec (  0.637%)
 coordinate transformation      ...        0 min,  0.006 sec (  0.058%)
 single point calculation       ...        0 min, 10.108 sec ( 97.568%)
 optimization log               ...        0 min,  0.017 sec (  0.164%)
 hessian update                 ...        0 min,  0.001 sec (  0.010%)
 rational function              ...        0 min,  0.004 sec (  0.039%)

================
 final structure:
================
205
 xtb: 6.7.1pre (5071a88)
C           10.45687354225688       -7.77743727181774        0.00696159856613
C            9.86288949449533       -9.03259406178440        0.00743042147760
C            8.49525580543879       -9.17636056217240        0.00579941887504
C            7.64831138417274       -8.05416817108691        0.00352338185882
N           10.20876672951230       -5.39424848443103        0.00559080666247
C            9.65576323562221       -6.64750241950776        0.00563000591967
C            8.24850239736259       -6.77765341735224        0.00433287088508
C            7.44066815975784       -5.60980581171868        0.00370298552690
C           10.09229706393840       -3.00380821585165        0.00375795341968
C            9.48145218250109       -4.22991152932535        0.00429606706518
C            8.05896900432950       -4.34193080394748        0.00365099446554
C            7.28258712886604       -3.16663034426494        0.00294957099572
C            9.89693304555169       -0.55030165556871        0.00166525814459
C            9.33492250040978       -1.80860844810454        0.00259726938867
C            7.90466719748295       -1.89772919208255        0.00237767670654
C            7.13019900172939       -0.72753649266244        0.00156991505426
C            9.72995331914162        1.86992986930414       -0.00065604782445
C            9.12418063196445        0.63000701790063        0.00058275160273
N            7.72950762719734        0.51265850390964        0.00077151761591
C            6.96584120850493        1.66697501708915        0.00010017207831
N            9.60833668440550        4.24400833451215       -0.00315727993482
C            9.00109112298874        3.07718156027316       -0.00171577059469
C            7.56925367018742        2.92412716447907       -0.00107127022612
C            6.78336577321287        4.09933032540013       -0.00177416838922
C            9.48602925890245        6.61572150475789       -0.00595377696974
C            8.86427932367424        5.37830381876362       -0.00422107364766
C            7.43158351090863        5.34754436285382       -0.00352986743406
C            6.67272933147192        6.53245635213511       -0.00472749105317
C            9.39338031152587        9.06585365619468       -0.00901547887319
C            8.75056219421051        7.81315887277806       -0.00730898165139
C            7.32590967186085        7.78456095337897       -0.00691447970358
C            6.57525503463021        8.99009315470800       -0.00869497288479
C            8.66025526584186       10.22493706053787       -0.01007781879275
C            7.26915465566449       10.19540992104399       -0.00989914548068
C            6.21573751875685       -8.14925869883198        0.00089621722397
C            5.56886457716031       -9.41214425669112       -0.00703462845637
C            4.21961548474665       -9.48334614781930       -0.00509543381850
C            3.39666678955735       -8.33227920044552        0.00517423561412
C            6.03421753394771       -5.72008986180032        0.00354201860229
C            5.40861014039291       -6.99829283605816        0.00298504656886
N            4.02121101987852       -7.08204312319383        0.00376188138921
C            3.24274261303800       -5.93590628424834        0.00347721487168
C            5.87438191378820       -3.27818517020218        0.00275415968674
C            5.25573862437024       -4.54431291705168        0.00320652676534
C            3.84784896114930       -4.66145561205430        0.00277309466225
C            3.05625073079814       -3.48181382109005        0.00166709324187
C            5.71775454545478       -0.83840015255141        0.00148662292931
C            5.09227045801328       -2.10374813517791        0.00198355384394
C            3.68138824290270       -2.20941110265562        0.00147526898472
C            2.89403934427801       -1.03800130099857        0.00068226694819
C            5.55170655921002        1.58764198697265        0.00040623563130
C            4.91695498178429        0.32824245301483        0.00089606640001
C            3.51694856030858        0.23344061062990        0.00066344042531
C            2.73105878415193        1.41258421581017        0.00031082627462
C            5.37842070585356        4.02715909716935       -0.00092804836070
C            4.76618874519443        2.76168466795375        0.00003396449669
C            3.35401903015130        2.67462575569135        0.00025414209669
C            2.57428357364174        3.85686372537691        0.00017546498263
C            5.25304251392485        6.46028129557289       -0.00341103634757
C            4.60722563984844        5.21458241458769       -0.00137381709550
C            3.19079060733093        5.12942119006660       -0.00032561185954
C            2.41427981941808        6.30806495260962       -0.00032016941283
C            5.12838102848084        8.91343095641579       -0.00880829378815
C            4.48416425050086        7.65300038603848       -0.00484120466304
C            3.07039561327209        7.56748415790199       -0.00279216548961
C            2.27248813885928        8.73415569442721       -0.00378802254159
C            4.31161795614367       10.04716371831527       -0.01410417094590
C            2.94049320847549        9.96958022568421       -0.01196153648335
C            1.99704525918199       -8.44746652095837        0.01283591530031
C            1.31884924880015       -9.69738567950237        0.02973750416507
C           -0.03460571722696       -9.78573703257844        0.02682032604697
C           -0.86914973696787       -8.63768724212599        0.00726903164410
C            1.82883106241948       -6.01903186706478        0.00300216392706
C            1.18463956527259       -7.28307020314288        0.00677025251457
C           -0.21484563286058       -7.37461860672411        0.00468561163217
C           -1.01726377014893       -6.20917096536895       -0.00026861296980
C            1.65322184582537       -3.57336445032987        0.00049943242025
C            1.03331616376308       -4.84979160706603        0.00072478812414
C           -0.38176250176262       -4.94377673040058       -0.00053670990377
C           -1.16507226066054       -3.76333621106055       -0.00129207791086
C            1.48783870578266       -1.12897901546220        0.00000653510319
C            0.86640134757808       -2.39707987079600       -0.00034891557944
C           -0.54089297250922       -2.49054316335690       -0.00098339357378
C           -1.32260998982627       -1.31626023641071       -0.00101286031144
C            1.32469991337784        1.32235917414026        0.00002988462957
C            0.70272159202855        0.05073089870386       -0.00028121174784
C           -0.69915726389108       -0.04439313868239       -0.00062078501166
C           -1.48376636517086        1.13360158598341       -0.00050835531038
C            1.17044431039296        3.77204276066214        0.00016307829260
C            0.54502471157389        2.50105707120760       -0.00004767080968
C           -0.86166507344848        2.40196007779357       -0.00017592070350
C           -1.64637055055289        3.57825783777865        0.00019919285972
C            0.99739777548584        6.23037913626401        0.00062296003061
C            0.38407923201636        4.95508475014870        0.00042582732320
C           -1.01920469182674        4.84544818854272        0.00069196474551
C           -1.79212655074091        6.03124199999910        0.00190683947645
C            0.84831883414762        8.61601336270938        0.00296197278161
N            0.22633691829372        7.38001719259892        0.00226570781376
C           -1.15424001667071        7.29152077499169        0.00349910892379
C           -1.96952987377523        8.46216814785737        0.00672729897734
C            0.04085007952645        9.77518899615420        0.01319828873459
C           -1.30955313340257        9.72604965835114        0.01499952366172
C           -2.27369323223373       -8.70626197064619       -0.00622768794056
C           -2.93584748247107       -9.95520161906055       -0.02584968152277
C           -4.28577377310144      -10.05879048677254       -0.02905862070431
C           -5.09166288239989       -8.89935044408239       -0.01354436138536
C           -2.43126467068187       -6.31119621318679       -0.00217255420398
N           -3.05549058154466       -7.55539377606706       -0.00512408530545
C           -4.44118354058954       -7.65065632131976       -0.00728033839469
C           -5.23103883453238       -6.46827763234845       -0.00461610268683
C           -2.56738631859284       -3.85829057420646       -0.00149263572456
C           -3.19792919822803       -5.13277838739121       -0.00217713591470
C           -4.61371483333549       -5.20538935823762       -0.00275389192739
C           -5.38961066391049       -4.02745037001988       -0.00208545562025
C           -2.73019270400255       -1.40904449366145       -0.00108389688067
C           -3.35260274457012       -2.67748572220408       -0.00135386770075
C           -4.76157825668599       -2.75691175436492       -0.00138303556063
C           -5.54444950104790       -1.58594528972008       -0.00093457347937
C           -2.88962992471343        1.03954339298825       -0.00047247459499
C           -3.51434409935838       -0.23088796811237       -0.00080161497036
C           -4.91980868043163       -0.31911566414085       -0.00059545741015
C           -5.70660859802560        0.85766996877627       -0.00006959810398
C           -3.05098695407395        3.48280151763589        0.00046881031944
C           -3.67312657477198        2.21525087420175        0.00000771280642
C           -5.08302087481880        2.12127133022781        0.00025761579726
C           -5.86634431954483        3.29940635908378        0.00086656401209
C           -3.20662255369859        5.93045380494930        0.00205542491351
C           -3.83618859714757        4.66425701708559        0.00120949748227
C           -5.24190482361230        4.57167669853817        0.00133218862520
C           -6.03496194148636        5.74510172506350        0.00201249909238
C           -3.36535915371426        8.34778370981421        0.00431822019764
C           -4.00866664774554        7.09450463516184        0.00273379746077
C           -5.41974345941693        6.99957211935159        0.00260855512339
C           -6.21126612314366        8.20863190939910        0.00323366479144
N           -4.18178764448064        9.46595757805084        0.00358683437182
C           -5.53507799340950        9.39458909346113        0.00298390285040
C           -6.53031107564602       -8.99673795527757       -0.00936231498287
C           -7.20865161668942      -10.21705764548760       -0.00724187767420
C           -8.59381778039124      -10.26638235413735       -0.00511840172566
C           -9.34695444712146       -9.11529835329246       -0.00466425234665
C           -6.64996280844737       -6.55389922037894       -0.00519219777346
C           -7.29970295585388       -7.80826332908444       -0.00644889568851
C           -8.71909895997166       -7.86240048937330       -0.00479557534478
C           -9.46684724367208       -6.66328997458334       -0.00312630213973
C           -6.79335367450638       -4.11105333941579       -0.00224983134407
C           -7.42005723430041       -5.37277981656168       -0.00342748218506
C           -8.84260841211303       -5.44334251173086       -0.00275499775827
N           -9.55774699615836       -4.26683680477355       -0.00138069268863
C           -6.96076538137434       -1.67104300926952       -0.00070652545270
C           -7.57876642609798       -2.93249356338301       -0.00125998077440
C           -8.99406944438979       -3.01562220862409       -0.00087859621187
C           -9.76098519066124       -1.86731505622400        0.00005721976152
C           -7.11832669938925        0.76408583082462        0.00029795616976
C           -7.74859067128245       -0.50063930396003        0.00000301517586
C           -9.16497462205424       -0.59184765607323        0.00043862093305
C           -9.92118009551056        0.60092220594297        0.00119968598733
C           -7.26787455846689        3.20313430444691        0.00120888004185
C           -7.89299853235065        1.93876502874873        0.00094727091091
C           -9.31178422325417        1.83597000357875        0.00141005325007
N          -10.03384158341517        3.00492068448505        0.00207897098937
C           -7.45864040088877        5.64587125667411        0.00225881080638
C           -8.06143484944899        4.38277464945375        0.00190800796047
C           -9.47832162071557        4.26408203793182        0.00234900837388
C          -10.25384901186268        5.39728511270695        0.00309466452754
C           -7.66126880865741        8.10836170674353        0.00369241751323
C           -8.25590214151601        6.81925574344181        0.00310401048737
C           -9.66937029468575        6.68248849208335        0.00353316864220
C          -10.46334282080973        7.84320910199846        0.00452745114232
C           -8.49293056199291        9.21982809886555        0.00492910254378
C           -9.87814468766452        9.08312970581461        0.00527281915663
H           11.53222321837048       -7.67740292432746        0.00793697519731
H           10.49064335093935       -9.91139167478373        0.00914393799519
H            8.08863292514487      -10.17337295970817        0.00702979089640
H           11.21614281627490       -5.32167316275200        0.00639679640070
H           11.17019127103617       -2.93299883550484        0.00419494078024
H           10.96886511675584       -0.43615324707489        0.00168243016923
H           10.80563604654797        1.92096465421618       -0.00086941900459
H           10.56440167122846        6.65487901916723       -0.00631456350761
H           10.47321296555362        9.09728813430476       -0.00931529782981
H            6.14585340200650      -10.31946666851574       -0.01628185213611
H            3.74885776911458      -10.44928682506594       -0.01386461454400
H            1.87782779255051      -10.61734181945730        0.04924267428420
H           -0.46775138174152      -10.77148525898487        0.04466688232926
H           -2.34408058796337      -10.85182077827626       -0.04132525192649
H           -4.73608542407604      -11.03556206647298       -0.04581762464341
H           -6.67225298585977      -11.15143849389299       -0.00612883317792
H           -9.08516740982122      -11.22897597132557       -0.00377786326465
H          -10.42588250754283       -9.16416844165209       -0.00356333892549
H          -10.54599942620757       -6.72382257626153       -0.00207975213406
H          -10.56544178209657       -4.33442724715455       -0.00085360099055
H          -10.83959837119269       -1.94406117005288        0.00044296431171
H          -11.00060955137934        0.53533770510642        0.00158975757574
H          -11.04173812157636        2.93875331080109        0.00242519945264
H          -11.33208112527658        5.31780588839363        0.00344966256720
H          -11.53889300430871        7.74268475652655        0.00479870128611
H          -10.49399544773893        9.97108959752270        0.00618608136523
H            9.16383489584224       11.18179530727941       -0.01107483989557
H            6.74165003372289       11.13600319920424       -0.01046269139932
H            4.75632376567985       11.02934533103377       -0.02052589168631
H            2.39249861771544       10.89687804431718       -0.01801680933863
H            0.52532937211004       10.73415466127363        0.02111535177135
H           -1.86937038890285       10.64746409902355        0.02473029303565
H           -3.74791982008877       10.37477636890869        0.00136662351480
H           -6.03642047543599       10.34879676410697        0.00242296815282
H           -8.07966335503115       10.21606569515597        0.00571287470205
 
 Bond Distances (Angstroems)
 ---------------------------
C1-C2=1.3886         C1-C6=1.3851         C1-H171=1.0800       C2-C1=1.3886         C2-C3=1.3752         C2-H172=1.0800       
C3-C2=1.3752         C3-C4=1.4059         C3-H173=1.0767       C4-C3=1.4059         C4-C7=1.4106         C4-C35=1.4357        
N5-C6=1.3698         N5-C10=1.3728        N5-H174=1.0100       C6-C1=1.3851         C6-N5=1.3698         C6-C7=1.4133         
C7-C4=1.4106         C7-C6=1.4133         C7-C8=1.4200         C8-C7=1.4200         C8-C11=1.4106        C8-C39=1.4108        
C9-C10=1.3698        C9-C14=1.4150        C9-H175=1.0802       C10-N5=1.3728        C10-C9=1.3698        C10-C11=1.4269       
C11-C8=1.4106        C11-C10=1.4269       C11-C12=1.4086       C12-C11=1.4086       C12-C15=1.4132       C12-C43=1.4126       
C13-C14=1.3781       C13-C18=1.4108       C13-H176=1.0780      C14-C9=1.4150        C14-C13=1.3781       C14-C15=1.4330       
C15-C12=1.4132       C15-C14=1.4330       C15-C16=1.4033       C16-C15=1.4033       C16-N19=1.3774       C16-C47=1.4168       
C17-C18=1.3800       C17-C22=1.4102       C17-H177=1.0769      C18-C13=1.4108       C18-C17=1.3800       C18-N19=1.3996       
N19-C16=1.3774       N19-C18=1.3996       N19-C20=1.3841       C20-N19=1.3841       C20-C23=1.3945       C20-C51=1.4164       
N21-C22=1.3154       N21-C26=1.3566       C22-C17=1.4102       C22-N21=1.3154       C22-C23=1.4400       C23-C20=1.3945       
C23-C22=1.4400       C23-C24=1.4138       C24-C23=1.4138       C24-C27=1.4065       C24-C55=1.4068       C25-C26=1.3848       
C25-C30=1.4053       C25-H178=1.0791      C26-N21=1.3566       C26-C25=1.3848       C26-C27=1.4330       C27-C24=1.4065       
C27-C26=1.4330       C27-C28=1.4071       C28-C27=1.4071       C28-C31=1.4122       C28-C59=1.4215       C29-C30=1.4080       
C29-C33=1.3715       C29-H179=1.0803      C30-C25=1.4053       C30-C29=1.4080       C30-C31=1.4249       C31-C28=1.4122       
C31-C30=1.4249       C31-C32=1.4201       C32-C31=1.4201       C32-C34=1.3908       C32-C63=1.4489       C33-C29=1.3715       
C33-C34=1.3914       C33-H197=1.0813      C34-C32=1.3908       C34-C33=1.3914       C34-H198=1.0784      C35-C4=1.4357        
C35-C36=1.4189       C35-C40=1.4058       C36-C35=1.4189       C36-C37=1.3511       C36-H180=1.0753      C37-C36=1.3511       
C37-C38=1.4150       C37-H181=1.0746      C38-C37=1.4150       C38-N41=1.3976       C38-C69=1.4044       C39-C8=1.4108        
C39-C40=1.4231       C39-C44=1.4101       C40-C35=1.4058       C40-C39=1.4231       C40-N41=1.3899       N41-C38=1.3976       
N41-C40=1.3899       N41-C42=1.3855       C42-N41=1.3855       C42-C45=1.4108       C42-C73=1.4164       C43-C12=1.4126       
C43-C44=1.4092       C43-C48=1.4110       C44-C39=1.4101       C44-C43=1.4092       C44-C45=1.4128       C45-C42=1.4108       
C45-C44=1.4128       C45-C46=1.4206       C46-C45=1.4206       C46-C49=1.4177       C46-C77=1.4060       C47-C16=1.4168       
C47-C48=1.4115       C47-C52=1.4150       C48-C43=1.4110       C48-C47=1.4115       C48-C49=1.4148       C49-C46=1.4177       
C49-C48=1.4148       C49-C50=1.4114       C50-C49=1.4114       C50-C53=1.4158       C50-C81=1.4091       C51-C20=1.4164       
C51-C52=1.4103       C51-C56=1.4126       C52-C47=1.4150       C52-C51=1.4103       C52-C53=1.4032       C53-C50=1.4158       
C53-C52=1.4032       C53-C54=1.4170       C54-C53=1.4170       C54-C57=1.4074       C54-C85=1.4093       C55-C24=1.4068       
C55-C56=1.4058       C55-C60=1.4159       C56-C51=1.4126       C56-C55=1.4058       C56-C57=1.4149       C57-C54=1.4074       
C57-C56=1.4149       C57-C58=1.4162       C58-C57=1.4162       C58-C61=1.4140       C58-C89=1.4064       C59-C28=1.4215       
C59-C60=1.4032       C59-C64=1.4191       C60-C55=1.4159       C60-C59=1.4032       C60-C61=1.4190       C61-C58=1.4140       
C61-C60=1.4190       C61-C62=1.4114       C62-C61=1.4114       C62-C65=1.4201       C62-C93=1.4190       C63-C32=1.4489       
C63-C64=1.4155       C63-C67=1.3973       C64-C59=1.4191       C64-C63=1.4155       C64-C65=1.4164       C65-C62=1.4201       
C65-C64=1.4164       C65-C66=1.4134       C66-C65=1.4134       C66-C68=1.4045       C66-C97=1.4291       C67-C63=1.3973       
C67-C68=1.3733       C67-H199=1.0782      C68-C66=1.4045       C68-C67=1.3733       C68-H200=1.0771      C69-C38=1.4044       
C69-C70=1.4222       C69-C74=1.4198       C70-C69=1.4222       C70-C71=1.3563       C70-H182=1.0766      C71-C70=1.3563       
C71-C72=1.4195       C71-H183=1.0769      C72-C71=1.4195       C72-C75=1.4225       C72-C103=1.4063      C73-C42=1.4164       
C73-C74=1.4187       C73-C78=1.4142       C74-C69=1.4198       C74-C73=1.4187       C74-C75=1.4025       C75-C72=1.4225       
C75-C74=1.4025       C75-C76=1.4150       C76-C75=1.4150       C76-C79=1.4160       C76-C107=1.4177      C77-C46=1.4060       
C77-C78=1.4190       C77-C82=1.4152       C78-C73=1.4142       C78-C77=1.4190       C78-C79=1.4182       C79-C76=1.4160       
C79-C78=1.4182       C79-C80=1.4167       C80-C79=1.4167       C80-C83=1.4176       C80-C111=1.4055      C81-C50=1.4091       
C81-C82=1.4122       C81-C86=1.4171       C82-C77=1.4152       C82-C81=1.4122       C82-C83=1.4104       C83-C80=1.4176       
C83-C82=1.4104       C83-C84=1.4107       C84-C83=1.4107       C84-C87=1.4165       C84-C115=1.4106      C85-C54=1.4093       
C85-C86=1.4156       C85-C90=1.4132       C86-C81=1.4171       C86-C85=1.4156       C86-C87=1.4051       C87-C84=1.4165       
C87-C86=1.4051       C87-C88=1.4154       C88-C87=1.4154       C88-C91=1.4127       C88-C119=1.4090      C89-C58=1.4064       
C89-C90=1.4165       C89-C94=1.4205       C90-C85=1.4132       C90-C89=1.4165       C90-C91=1.4102       C91-C88=1.4127       
C91-C90=1.4102       C91-C92=1.4140       C92-C91=1.4140       C92-C95=1.4139       C92-C123=1.4079      C93-C62=1.4190       
C93-C94=1.4151       C93-N98=1.3843       C94-C89=1.4205       C94-C93=1.4151       C94-C95=1.4076       C95-C92=1.4139       
C95-C94=1.4076       C95-C96=1.4155       C96-C95=1.4155       C96-C99=1.4125       C96-C127=1.4181      C97-C66=1.4291       
C97-N98=1.3837       C97-C101=1.4127      N98-C93=1.3843       N98-C97=1.3837       N98-C99=1.3834       C99-C96=1.4125       
C99-N98=1.3834       C99-C100=1.4266      C100-C99=1.4266      C100-C102=1.4258     C100-C131=1.4005     C101-C97=1.4127      
C101-C102=1.3513     C101-H201=1.0744     C102-C100=1.4258     C102-C101=1.3513     C102-H202=1.0782     C103-C72=1.4063      
C103-C104=1.4137     C103-N108=1.3913     C104-C103=1.4137     C104-C105=1.3539     C104-H184=1.0744     C105-C104=1.3539     
C105-C106=1.4121     C105-H185=1.0757     C106-C105=1.4121     C106-C109=1.4080     C106-C137=1.4419     C107-C76=1.4177      
C107-N108=1.3920     C107-C112=1.4059     N108-C103=1.3913     N108-C107=1.3920     N108-C109=1.3890     C109-C106=1.4080     
C109-N108=1.3890     C109-C110=1.4219     C110-C109=1.4219     C110-C113=1.4057     C110-C141=1.4215     C111-C80=1.4055      
C111-C112=1.4219     C111-C116=1.4180     C112-C107=1.4059     C112-C111=1.4219     C112-C113=1.4176     C113-C110=1.4057     
C113-C112=1.4176     C113-C114=1.4105     C114-C113=1.4105     C114-C117=1.4173     C114-C145=1.4062     C115-C84=1.4106      
C115-C116=1.4129     C115-C120=1.4153     C116-C111=1.4180     C116-C115=1.4129     C116-C117=1.4112     C117-C114=1.4173     
C117-C116=1.4112     C117-C118=1.4086     C118-C117=1.4086     C118-C121=1.4125     C118-C149=1.4189     C119-C88=1.4090      
C119-C120=1.4157     C119-C124=1.4129     C120-C115=1.4153     C120-C119=1.4157     C120-C121=1.4082     C121-C118=1.4125     
C121-C120=1.4082     C121-C122=1.4156     C122-C121=1.4156     C122-C125=1.4091     C122-C153=1.4148     C123-C92=1.4079      
C123-C124=1.4120     C123-C128=1.4186     C124-C119=1.4129     C124-C123=1.4120     C124-C125=1.4130     C125-C122=1.4091     
C125-C124=1.4130     C125-C126=1.4148     C126-C125=1.4148     C126-C129=1.4172     C126-C157=1.4048     C127-C96=1.4181      
C127-C128=1.4141     C127-C132=1.4136     C128-C123=1.4186     C128-C127=1.4141     C128-C129=1.4088     C129-C126=1.4172     
C129-C128=1.4088     C129-C130=1.4163     C130-C129=1.4163     C130-C133=1.3972     C130-C161=1.4271     C131-C100=1.4005     
C131-C132=1.4087     C131-N135=1.3845     C132-C127=1.4136     C132-C131=1.4087     C132-C133=1.4143     C133-C130=1.3972     
C133-C132=1.4143     C133-C134=1.4451     C134-C133=1.4451     C134-C136=1.3652     C134-C165=1.4535     N135-C131=1.3845     
N135-C136=1.3552     N135-H203=1.0071     C136-C134=1.3652     C136-N135=1.3552     C136-H204=1.0779     C137-C106=1.4419     
C137-C138=1.3962     C137-C142=1.4158     C138-C137=1.3962     C138-C139=1.3860     C138-H186=1.0774     C139-C138=1.3860     
C139-C140=1.3756     C139-H187=1.0807     C140-C139=1.3756     C140-C143=1.4014     C140-H188=1.0800     C141-C110=1.4215     
C141-C142=1.4127     C141-C146=1.4100     C142-C137=1.4158     C142-C141=1.4127     C142-C143=1.4204     C143-C140=1.4014     
C143-C142=1.4204     C143-C144=1.4132     C144-C143=1.4132     C144-C147=1.3704     C144-H189=1.0808     C145-C114=1.4062     
C145-C146=1.4088     C145-C150=1.4163     C146-C141=1.4100     C146-C145=1.4088     C146-C147=1.4243     C147-C144=1.3704     
C147-C146=1.4243     C147-N148=1.3768     N148-C147=1.3768     N148-C151=1.3723     N148-H190=1.0100     C149-C118=1.4189     
C149-C150=1.4047     C149-C154=1.4109     C150-C145=1.4163     C150-C149=1.4047     C150-C151=1.4177     C151-N148=1.3723     
C151-C150=1.4177     C151-C152=1.3809     C152-C151=1.3809     C152-C155=1.4079     C152-H191=1.0813     C153-C122=1.4148     
C153-C154=1.4131     C153-C158=1.4071     C154-C149=1.4109     C154-C153=1.4131     C154-C155=1.4193     C155-C152=1.4079     
C155-C154=1.4193     C155-C156=1.4123     C156-C155=1.4123     C156-C159=1.3772     C156-H192=1.0814     C157-C126=1.4048     
C157-C158=1.4105     C157-C162=1.4217     C158-C153=1.4071     C158-C157=1.4105     C158-C159=1.4225     C159-C156=1.3772     
C159-C158=1.4225     C159-N160=1.3740     N160-C159=1.3740     N160-C163=1.3763     N160-H193=1.0101     C161-C130=1.4271     
C161-C162=1.3996     C161-C166=1.4186     C162-C157=1.4217     C162-C161=1.3996     C162-C163=1.4218     C163-N160=1.3763     
C163-C162=1.4218     C163-C164=1.3732     C164-C163=1.3732     C164-C167=1.4119     C164-H194=1.0812     C165-C134=1.4535     
C165-C166=1.4196     C165-C169=1.3882     C166-C161=1.4186     C166-C165=1.4196     C166-C167=1.4201     C167-C164=1.4119     
C167-C166=1.4201     C167-C168=1.4063     C168-C167=1.4063     C168-C170=1.3711     C168-H195=1.0802     C169-C165=1.3882     
C169-C170=1.3919     C169-H205=1.0786     C170-C168=1.3711     C170-C169=1.3919     C170-H196=1.0806     H171-C1=1.0800       
H172-C2=1.0800       H173-C3=1.0767       H174-N5=1.0100       H175-C9=1.0802       H176-C13=1.0780      H177-C17=1.0769      
H178-C25=1.0791      H179-C29=1.0803      H180-C36=1.0753      H181-C37=1.0746      H182-C70=1.0766      H183-C71=1.0769      
H184-C104=1.0744     H185-C105=1.0757     H186-C138=1.0774     H187-C139=1.0807     H188-C140=1.0800     H189-C144=1.0808     
H190-N148=1.0100     H191-C152=1.0813     H192-C156=1.0814     H193-N160=1.0101     H194-C164=1.0812     H195-C168=1.0802     
H196-C170=1.0806     H197-C33=1.0813      H198-C34=1.0784      H199-C67=1.0782      H200-C68=1.0771      H201-C101=1.0744     
H202-C102=1.0782     H203-N135=1.0071     H204-C136=1.0779     H205-C169=1.0786     
 C  H  Rav=1.0785 sigma=0.0022  Rmin=1.0744  Rmax=1.0814    31
 C  C  Rav=1.4098 sigma=0.0154  Rmin=1.3511  Rmax=1.4535   215
 N  H  Rav=1.0093 sigma=0.0013  Rmin=1.0071  Rmax=1.0101     4
 N  C  Rav=1.3778 sigma=0.0175  Rmin=1.3154  Rmax=1.3996    22
 
 selected bond angles (degree)
 --------------------
C6-C1-C2=119.34                H171-C1-C2=120.64              H171-C1-C6=120.02              C3-C2-C1=121.33                
H172-C2-C1=119.14              H172-C2-C3=119.54              C4-C3-C2=121.04                H173-C3-C2=118.19              
H173-C3-C4=120.77              C7-C4-C3=117.78                C35-C4-C3=123.25               C35-C4-C7=118.98               
C10-N5-C6=124.20               H174-N5-C6=117.93              H174-N5-C10=117.87             N5-C6-C1=120.85                
C7-C6-C1=120.05                C7-C6-N5=119.09                C6-C7-C4=120.47                C8-C7-C4=120.15                
C8-C7-C6=119.39                C11-C8-C7=119.33               C39-C8-C7=120.19               C39-C8-C11=120.48              
C14-C9-C10=121.16              H175-C9-C10=120.24             H175-C9-C14=118.60             C9-C10-N5=121.53               
C11-C10-N5=117.49              C11-C10-C9=120.99              
 
 selected dihedral angles (degree)
 ---------------------------------
C3-C2-C1-C6=  0.04            C3-C2-C1-H171=180.02          H172-C2-C1-C6=180.04          H172-C2-C1-H171=  0.00        
C4-C3-C2-C1=  0.00            C4-C3-C2-H172=180.00          H173-C3-C2-C1=180.05          H173-C3-C2-H172=  0.04        
C7-C4-C3-C2=359.94            C7-C4-C3-H173=179.89          C35-C4-C3-C2=179.96           C35-C4-C3-H173=359.91         
N5-C6-C1-C2=179.98            N5-C6-C1-H171=  0.00          C7-C6-C1-C2=  0.00            C7-C6-C1-H171=180.00          
C1-C6-N5-C10=180.00           C1-C6-N5-H174=  0.00          C7-C6-N5-C10=  0.00           C7-C6-N5-H174=180.01          
C6-C7-C4-C3=  0.08            C6-C7-C4-C35=180.06           C8-C7-C4-C3=180.07            C8-C7-C4-C35=  0.05           
C4-C7-C6-C1=359.96            C4-C7-C6-N5=179.96            C8-C7-C6-C1=179.97            C8-C7-C6-N5=359.97            
C11-C8-C7-C4=180.04           C11-C8-C7-C6=  0.03           C39-C8-C7-C4=  0.06           C39-C8-C7-C6=180.05           
C9-C10-N5-C6=180.03           C9-C10-N5-H174=  0.00         C11-C10-N5-C6=  0.03          C11-C10-N5-H174=180.02        
N5-C10-C9-C14=180.01          N5-C10-C9-H175=  0.00         C11-C10-C9-C14=  0.00         C11-C10-C9-H175=180.00        
           -------------------------------------------------
          |                Final Singlepoint                |
           -------------------------------------------------

          ...................................................
          :                      SETUP                      :
          :.................................................:
          :  # basis functions                 715          :
          :  # atomic orbitals                 715          :
          :  # shells                          375          :
          :  # electrons                       724          :
          :  max. iterations                   250          :
          :  Hamiltonian                  GFN2-xTB          :
          :  restarted?                      false          :
          :  GBSA solvation                  false          :
          :  PC potential                    false          :
          :  electronic temp.          300.0000000     K    :
          :  accuracy                    1.0000000          :
          :  -> integral cutoff          0.2500000E+02      :
          :  -> integral neglect         0.1000000E-07      :
          :  -> SCF convergence          0.1000000E-05 Eh   :
          :  -> wf. convergence          0.1000000E-03 e    :
          :  Broyden damping             0.4000000          :
          :  net charge                          0          :
          :  unpaired electrons                  0          :
          ...................................................

 iter      E             dE          RMSdq      gap      omega  full diag
   1   -397.9551111 -0.397955E+03  0.773E-05    0.26       0.0  T
   2   -397.9551111  0.536249E-08  0.128E-04    0.26      54.7  T
   3   -397.9551111 -0.706814E-08  0.284E-05    0.26     246.1  T

   *** convergence criteria satisfied after 3 iterations ***

         #    Occupation            Energy/Eh            Energy/eV
      -------------------------------------------------------------
         1        2.0000           -0.6982662             -19.0008
       ...           ...                  ...                  ...
       356        2.0000           -0.3487576              -9.4902
       357        2.0000           -0.3410779              -9.2812
       358        2.0000           -0.3347895              -9.1101
       359        2.0000           -0.3260584              -8.8725
       360        2.0000           -0.3154882              -8.5849
       361        2.0000           -0.3131023              -8.5199
       362        1.9851           -0.3047813              -8.2935 (HOMO)
       363        0.0137           -0.2954085              -8.0385 (LUMO)
       364        0.0011           -0.2930425              -7.9741
       365        0.0000           -0.2869699              -7.8088
       366                         -0.2803352              -7.6283
       367                         -0.2766714              -7.5286
       ...                                ...                  ...
       715                          0.8001353              21.7728
      -------------------------------------------------------------
                  HL-Gap            0.0093728 Eh            0.2550 eV
             Fermi-level           -0.3001332 Eh           -8.1670 eV

 SCC (total)                   0 d,  0 h,  0 min,  0.791 sec
 SCC setup                      ...        0 min,  0.003 sec (  0.379%)
 Dispersion                     ...        0 min,  0.009 sec (  1.138%)
 classical contributions        ...        0 min,  0.001 sec (  0.126%)
 integral evaluation            ...        0 min,  0.066 sec (  8.344%)
 iterations                     ...        0 min,  0.392 sec ( 49.558%)
 molecular gradient             ...        0 min,  0.306 sec ( 38.685%)
 printout                       ...        0 min,  0.014 sec (  1.770%)

         :::::::::::::::::::::::::::::::::::::::::::::::::::::
         ::                     SUMMARY                     ::
         :::::::::::::::::::::::::::::::::::::::::::::::::::::
         :: total energy            -390.501468652343 Eh    ::
         :: gradient norm              0.000614781702 Eh/a0 ::
         :: HOMO-LUMO gap              0.255046540507 eV    ::
         ::.................................................::
         :: SCC energy              -397.972470918661 Eh    ::
         :: -> isotropic ES            0.043553666453 Eh    ::
         :: -> anisotropic ES          0.029570625375 Eh    ::
         :: -> anisotropic XC          0.120906483325 Eh    ::
         :: -> dispersion             -0.494845869733 Eh    ::
         :: repulsion energy           7.471002266318 Eh    ::
         :: add. restraining           0.000000000000 Eh    ::
         :: total charge              -0.000000000000 e     ::
         :::::::::::::::::::::::::::::::::::::::::::::::::::::

           -------------------------------------------------
          |                Property Printout                |
           -------------------------------------------------

    * Orbital Energies and Occupations

         #    Occupation            Energy/Eh            Energy/eV
      -------------------------------------------------------------
         1        2.0000           -0.6982662             -19.0008
       ...           ...                  ...                  ...
       350        2.0000           -0.3760958             -10.2341
       351        2.0000           -0.3748193             -10.1994
       352        2.0000           -0.3697997             -10.0628
       353        2.0000           -0.3638232              -9.9001
       354        2.0000           -0.3590069              -9.7691
       355        2.0000           -0.3497681              -9.5177
       356        2.0000           -0.3487576              -9.4902
       357        2.0000           -0.3410779              -9.2812
       358        2.0000           -0.3347895              -9.1101
       359        2.0000           -0.3260584              -8.8725
       360        2.0000           -0.3154882              -8.5849
       361        2.0000           -0.3131023              -8.5199
       362        1.9851           -0.3047813              -8.2935 (HOMO)
       363        0.0137           -0.2954085              -8.0385 (LUMO)
       364        0.0011           -0.2930425              -7.9741
       365        0.0000           -0.2869699              -7.8088
       366                         -0.2803352              -7.6283
       367                         -0.2766714              -7.5286
       368                         -0.2719353              -7.3997
       369                         -0.2712392              -7.3808
       370                         -0.2668038              -7.2601
       371                         -0.2635050              -7.1703
       372                         -0.2584770              -7.0335
       373                         -0.2535109              -6.8984
       ...                                ...                  ...
       715                          0.8001353              21.7728
      -------------------------------------------------------------
                  HL-Gap            0.0093728 Eh            0.2550 eV
             Fermi-level           -0.3001332 Eh           -8.1670 eV

     #   Z          covCN         q      C6AA      α(0)
     1   6 C        2.919    -0.069    29.723     8.940
     2   6 C        2.917    -0.029    28.720     8.788
     3   6 C        2.919    -0.052    29.293     8.875
     4   6 C        2.979     0.003    27.958     8.673
     5   7 N        2.706    -0.121    23.634     7.220
     6   6 C        2.917     0.069    26.462     8.436
     7   6 C        2.997    -0.013    28.332     8.731
     8   6 C        2.990     0.003    27.959     8.674
     9   6 C        2.919    -0.089    30.244     9.018
    10   6 C        2.910     0.066    26.519     8.444
    11   6 C        2.994    -0.017    28.418     8.745
    12   6 C        2.993     0.002    27.962     8.674
    13   6 C        2.925    -0.078    29.959     8.976
    14   6 C        2.975     0.016    27.653     8.626
    15   6 C        2.995    -0.020    28.487     8.755
    16   6 C        2.933     0.056    26.733     8.479
    17   6 C        2.927    -0.090    30.251     9.020
    18   6 C        2.918     0.056    26.740     8.480
    19   7 N        2.756     0.012    21.049     6.814
    20   6 C        2.936     0.047    26.950     8.514
    21   7 N        1.845    -0.296    28.522     7.915
    22   6 C        2.945     0.099    25.813     8.333
    23   6 C        2.996    -0.026    28.639     8.779
    24   6 C        3.000     0.006    27.865     8.659
    25   6 C        2.925    -0.066    29.636     8.928
    26   6 C        2.946     0.087    26.069     8.374
    27   6 C        2.996    -0.015    28.384     8.739
    28   6 C        2.988    -0.003    28.087     8.693
    29   6 C        2.920    -0.043    29.074     8.842
    30   6 C        2.979     0.011    27.773     8.645
    31   6 C        2.995    -0.003    28.100     8.695
    32   6 C        2.974     0.002    27.969     8.675
    33   6 C        2.912    -0.032    28.809     8.801
    34   6 C        2.920    -0.047    29.173     8.857
    35   6 C        2.981    -0.016    28.405     8.742
    36   6 C        2.916    -0.037    28.915     8.818
    37   6 C        2.916    -0.051    29.259     8.870
    38   6 C        2.925     0.037    27.165     8.547
    39   6 C        2.990    -0.016    28.404     8.742
    40   6 C        2.930     0.054    26.788     8.488
    41   7 N        2.751     0.023    20.844     6.781
    42   6 C        2.930     0.047    26.940     8.512
    43   6 C        2.994    -0.009    28.231     8.716
    44   6 C        2.993     0.004    27.916     8.667
    45   6 C        2.989    -0.018    28.451     8.750
    46   6 C        2.990    -0.002    28.071     8.691
    47   6 C        2.991    -0.016    28.409     8.743
    48   6 C        2.993    -0.000    28.026     8.684
    49   6 C        2.991    -0.004    28.120     8.699
    50   6 C        2.993     0.000    28.017     8.683
    51   6 C        2.993    -0.015    28.374     8.738
    52   6 C        2.996     0.003    27.939     8.671
    53   6 C        2.993    -0.006    28.166     8.706
    54   6 C        2.994    -0.000    28.027     8.684
    55   6 C        2.995    -0.010    28.246     8.718
    56   6 C        2.995    -0.001    28.041     8.686
    57   6 C        2.993    -0.005    28.126     8.699
    58   6 C        2.991    -0.001    28.031     8.685
    59   6 C        2.990    -0.005    28.140     8.702
    60   6 C        2.991    -0.003    28.095     8.695
    61   6 C        2.991    -0.009    28.222     8.714
    62   6 C        2.986    -0.009    28.235     8.716
    63   6 C        2.976    -0.001    28.058     8.689
    64   6 C        2.992     0.001    28.003     8.681
    65   6 C        2.995     0.003    27.945     8.672
    66   6 C        2.979    -0.007    28.190     8.709
    67   6 C        2.919    -0.035    28.867     8.811
    68   6 C        2.917    -0.051    29.264     8.871
    69   6 C        2.979    -0.014    28.358     8.735
    70   6 C        2.915    -0.045    29.112     8.848
    71   6 C        2.915    -0.040    28.994     8.830
    72   6 C        2.980    -0.021    28.530     8.762
    73   6 C        2.988    -0.009    28.244     8.718
    74   6 C        2.994    -0.001    28.035     8.686
    75   6 C        2.994    -0.001    28.047     8.687
    76   6 C        2.988    -0.009    28.226     8.715
    77   6 C        2.990    -0.006    28.165     8.706
    78   6 C        2.989    -0.006    28.164     8.705
    79   6 C        2.989    -0.004    28.126     8.700
    80   6 C        2.990    -0.004    28.110     8.697
    81   6 C        2.992    -0.004    28.118     8.698
    82   6 C        2.992    -0.000    28.030     8.685
    83   6 C        2.992    -0.003    28.084     8.693
    84   6 C        2.992    -0.003    28.099     8.695
    85   6 C        2.993    -0.005    28.133     8.701
    86   6 C        2.992    -0.000    28.025     8.684
    87   6 C        2.993    -0.003    28.094     8.695
    88   6 C        2.993    -0.002    28.069     8.691
    89   6 C        2.992    -0.005    28.129     8.700
    90   6 C        2.992    -0.001    28.052     8.688
    91   6 C        2.993    -0.002    28.064     8.690
    92   6 C        2.991    -0.002    28.055     8.689
    93   6 C        2.935     0.039    27.128     8.542
    94   6 C        2.988    -0.010    28.267     8.721
    95   6 C        2.994    -0.004    28.109     8.697
    96   6 C        2.987    -0.014    28.348     8.734
    97   6 C        2.928     0.029    27.358     8.578
    98   7 N        2.751     0.044    20.474     6.720
    99   6 C        2.936     0.051    26.851     8.498
   100   6 C        2.980    -0.030    28.744     8.794
   101   6 C        2.916    -0.046    29.149     8.853
   102   6 C        2.913    -0.049    29.208     8.862
   103   6 C        2.925     0.046    26.972     8.517
   104   6 C        2.917    -0.054    29.351     8.884
   105   6 C        2.918    -0.031    28.767     8.795
   106   6 C        2.981    -0.017    28.431     8.746
   107   6 C        2.930     0.044    27.006     8.522
   108   7 N        2.752     0.025    20.814     6.776
   109   6 C        2.931     0.054    26.784     8.487
   110   6 C        2.989    -0.016    28.399     8.742
   111   6 C        2.990    -0.003    28.100     8.695
   112   6 C        2.988    -0.017    28.435     8.747
   113   6 C        2.992     0.004    27.928     8.669
   114   6 C        2.993    -0.008    28.198     8.711
   115   6 C        2.992    -0.001    28.042     8.687
   116   6 C        2.991    -0.004    28.107     8.697
   117   6 C        2.992    -0.001    28.052     8.688
   118   6 C        2.992    -0.005    28.139     8.702
   119   6 C        2.993    -0.003    28.079     8.692
   120   6 C        2.992    -0.003    28.086     8.693
   121   6 C        2.993    -0.001    28.040     8.686
   122   6 C        2.992    -0.004    28.113     8.698
   123   6 C        2.992    -0.001    28.035     8.686
   124   6 C        2.992    -0.004    28.107     8.697
   125   6 C        2.993     0.000    28.016     8.683
   126   6 C        2.992    -0.005    28.126     8.700
   127   6 C        2.993    -0.005    28.134     8.701
   128   6 C        2.991    -0.003    28.099     8.695
   129   6 C        2.991    -0.005    28.141     8.702
   130   6 C        2.989    -0.007    28.186     8.709
   131   6 C        2.918     0.037    27.174     8.548
   132   6 C        2.991    -0.002    28.075     8.692
   133   6 C        2.994     0.001    27.994     8.679
   134   6 C        2.969    -0.015    28.371     8.737
   135   7 N        2.700    -0.095    23.106     7.139
   136   6 C        2.853     0.019    27.579     8.607
   137   6 C        2.977     0.003    27.962     8.674
   138   6 C        2.921    -0.050    29.230     8.866
   139   6 C        2.914    -0.030    28.760     8.794
   140   6 C        2.921    -0.048    29.202     8.862
   141   6 C        2.989    -0.001    28.041     8.686
   142   6 C        2.997    -0.007    28.178     8.708
   143   6 C        2.983     0.014    27.700     8.633
   144   6 C        2.921    -0.084    30.105     8.998
   145   6 C        2.993     0.007    27.846     8.656
   146   6 C        2.996    -0.013    28.338     8.732
   147   6 C        2.909     0.064    26.561     8.451
   148   7 N        2.704    -0.123    23.682     7.228
   149   6 C        2.993     0.002    27.971     8.675
   150   6 C        2.996    -0.016    28.404     8.743
   151   6 C        2.909     0.067    26.509     8.443
   152   6 C        2.919    -0.082    30.059     8.991
   153   6 C        2.993    -0.001    28.038     8.686
   154   6 C        2.995    -0.014    28.347     8.734
   155   6 C        2.977     0.016    27.649     8.625
   156   6 C        2.919    -0.083    30.087     8.995
   157   6 C        2.992     0.002    27.962     8.674
   158   6 C        2.995    -0.013    28.333     8.732
   159   6 C        2.908     0.067    26.503     8.442
   160   7 N        2.704    -0.123    23.683     7.228
   161   6 C        2.988     0.001    27.995     8.679
   162   6 C        2.994    -0.012    28.308     8.728
   163   6 C        2.909     0.065    26.548     8.449
   164   6 C        2.921    -0.081    30.023     8.985
   165   6 C        2.973     0.004    27.933     8.669
   166   6 C        2.994    -0.004    28.105     8.696
   167   6 C        2.983     0.013    27.721     8.637
   168   6 C        2.920    -0.045    29.106     8.847
   169   6 C        2.920    -0.049    29.214     8.864
   170   6 C        2.913    -0.031    28.763     8.794
   171   1 H        0.926     0.024     2.680     2.560
   172   1 H        0.926     0.031     2.569     2.507
   173   1 H        0.926     0.030     2.580     2.512
   174   1 H        0.860     0.167     1.293     1.781
   175   1 H        0.926     0.021     2.711     2.575
   176   1 H        0.926     0.036     2.505     2.475
   177   1 H        0.926     0.047     2.357     2.401
   178   1 H        0.926     0.037     2.482     2.464
   179   1 H        0.926     0.025     2.657     2.549
   180   1 H        0.926     0.041     2.441     2.443
   181   1 H        0.926     0.045     2.388     2.416
   182   1 H        0.926     0.029     2.594     2.519
   183   1 H        0.926     0.030     2.586     2.515
   184   1 H        0.926     0.045     2.386     2.415
   185   1 H        0.926     0.043     2.413     2.429
   186   1 H        0.926     0.024     2.673     2.557
   187   1 H        0.926     0.024     2.666     2.553
   188   1 H        0.926     0.024     2.677     2.558
   189   1 H        0.926     0.020     2.738     2.588
   190   1 H        0.860     0.163     1.314     1.796
   191   1 H        0.925     0.019     2.754     2.595
   192   1 H        0.925     0.018     2.767     2.601
   193   1 H        0.860     0.162     1.320     1.800
   194   1 H        0.926     0.020     2.727     2.582
   195   1 H        0.926     0.026     2.644     2.543
   196   1 H        0.926     0.026     2.649     2.545
   197   1 H        0.925     0.020     2.735     2.586
   198   1 H        0.926     0.020     2.737     2.587
   199   1 H        0.926     0.032     2.555     2.500
   200   1 H        0.926     0.023     2.681     2.561
   201   1 H        0.926     0.047     2.362     2.403
   202   1 H        0.926     0.021     2.718     2.578
   203   1 H        0.860     0.174     1.250     1.751
   204   1 H        0.926     0.044     2.393     2.419
   205   1 H        0.926     0.018     2.757     2.596

 Mol. C6AA /au·bohr⁶  :     905737.994123
 Mol. C8AA /au·bohr⁸  :   24855194.895088
 Mol. α(0) /au        :       1550.565259


Wiberg/Mayer (AO) data.
largest (>0.10) Wiberg bond orders for each atom

 ---------------------------------------------------------------------------
     #   Z sym  total        # sym  WBO       # sym  WBO       # sym  WBO
 ---------------------------------------------------------------------------
     1   6 C    3.946 --     2 C    1.393     6 C    1.383   171 H    0.968
     2   6 C    3.975 --     3 C    1.487     1 C    1.393   172 H    0.971
     3   6 C    3.954 --     2 C    1.487     4 C    1.317   173 H    0.962
     4   6 C    3.962 --     3 C    1.317     7 C    1.275    35 C    1.178
     5   7 N    3.494 --     6 C    1.153    10 C    1.139   174 H    0.938
     6   6 C    3.961 --     1 C    1.383     7 C    1.249     5 N    1.153
     7   6 C    3.961 --     4 C    1.275     6 C    1.249     8 C    1.207
     8   6 C    3.949 --    11 C    1.266    39 C    1.265     7 C    1.207
     9   6 C    3.931 --    10 C    1.474    14 C    1.238   175 H    0.966
    10   6 C    3.939 --     9 C    1.474    11 C    1.176     5 N    1.139
    11   6 C    3.934 --     8 C    1.266    12 C    1.263    10 C    1.176
    12   6 C    3.971 --    11 C    1.263    15 C    1.253    43 C    1.238
    13   6 C    3.886 --    14 C    1.421    18 C    1.259   176 H    0.966
    14   6 C    3.970 --    13 C    1.421     9 C    1.238    15 C    1.159
    15   6 C    3.939 --    16 C    1.305    12 C    1.253    14 C    1.159
    16   6 C    3.944 --    15 C    1.305    47 C    1.241    19 N    1.164
    17   6 C    3.890 --    18 C    1.432    22 C    1.243   177 H    0.965
    18   6 C    3.939 --    17 C    1.432    13 C    1.259    19 N    1.086
    19   7 N    3.625 --    16 C    1.164    20 C    1.132    18 C    1.086
    20   6 C    3.925 --    23 C    1.334    51 C    1.235    19 N    1.132
    21   7 N    2.974 --    22 C    1.439    26 C    1.244
    22   6 C    3.969 --    21 N    1.439    17 C    1.243    23 C    1.130
    23   6 C    3.941 --    20 C    1.334    24 C    1.238    22 C    1.130
    24   6 C    3.967 --    27 C    1.267    55 C    1.251    23 C    1.238
    25   6 C    3.897 --    26 C    1.397    30 C    1.304   178 H    0.967
    26   6 C    3.976 --    25 C    1.397    21 N    1.244    27 C    1.168
    27   6 C    3.946 --    28 C    1.280    24 C    1.267    26 C    1.168
    28   6 C    3.979 --    27 C    1.280    31 C    1.255    59 C    1.217
    29   6 C    3.931 --    33 C    1.503    30 C    1.285   179 H    0.969
    30   6 C    3.983 --    25 C    1.304    29 C    1.285    31 C    1.228
    31   6 C    3.962 --    28 C    1.255    32 C    1.252    30 C    1.228
    32   6 C    3.981 --    34 C    1.399    31 C    1.252    63 C    1.136
    33   6 C    3.982 --    29 C    1.503    34 C    1.384   197 H    0.971
    34   6 C    3.925 --    32 C    1.399    33 C    1.384   198 H    0.964
    35   6 C    3.926 --    40 C    1.329    36 C    1.213     4 C    1.178
    36   6 C    3.910 --    37 C    1.598    35 C    1.213   180 H    0.960
    37   6 C    3.954 --    36 C    1.598    38 C    1.237   181 H    0.957
    38   6 C    3.843 --    69 C    1.297    37 C    1.237    41 N    1.110
    39   6 C    3.965 --     8 C    1.265    44 C    1.245    40 C    1.219
    40   6 C    3.947 --    35 C    1.329    39 C    1.219    41 N    1.151
    41   7 N    3.627 --    40 C    1.151    42 C    1.149    38 C    1.110
    42   6 C    3.923 --    45 C    1.271    73 C    1.262    41 N    1.149
    43   6 C    3.959 --    44 C    1.262    48 C    1.239    12 C    1.238
    44   6 C    3.965 --    43 C    1.262    39 C    1.245    45 C    1.231
    45   6 C    3.946 --    42 C    1.271    44 C    1.231    46 C    1.220
    46   6 C    3.959 --    77 C    1.280    49 C    1.241    45 C    1.220
    47   6 C    3.941 --    48 C    1.263    16 C    1.241    52 C    1.220
    48   6 C    3.964 --    47 C    1.263    49 C    1.243    43 C    1.239
    49   6 C    3.954 --    50 C    1.255    48 C    1.243    46 C    1.241
    50   6 C    3.956 --    81 C    1.258    49 C    1.255    53 C    1.231
    51   6 C    3.952 --    56 C    1.255    52 C    1.238    20 C    1.235
    52   6 C    3.952 --    53 C    1.283    51 C    1.238    47 C    1.220
    53   6 C    3.957 --    52 C    1.283    50 C    1.231    54 C    1.226
    54   6 C    3.959 --    57 C    1.268    85 C    1.253    53 C    1.226
    55   6 C    3.964 --    56 C    1.261    24 C    1.251    60 C    1.229
    56   6 C    3.966 --    55 C    1.261    51 C    1.255    57 C    1.231
    57   6 C    3.950 --    54 C    1.268    58 C    1.238    56 C    1.231
    58   6 C    3.961 --    89 C    1.271    61 C    1.239    57 C    1.238
    59   6 C    3.959 --    60 C    1.295    64 C    1.221    28 C    1.217
    60   6 C    3.969 --    59 C    1.295    55 C    1.229    61 C    1.223
    61   6 C    3.950 --    62 C    1.269    58 C    1.239    60 C    1.223
    62   6 C    3.956 --    61 C    1.269    93 C    1.248    65 C    1.219
    63   6 C    3.933 --    67 C    1.342    64 C    1.267    32 C    1.136
    64   6 C    3.979 --    65 C    1.267    63 C    1.267    59 C    1.221
    65   6 C    3.958 --    64 C    1.267    66 C    1.250    62 C    1.219
    66   6 C    3.959 --    68 C    1.309    65 C    1.250    97 C    1.199
    67   6 C    3.967 --    68 C    1.492    63 C    1.342   199 H    0.962
    68   6 C    3.932 --    67 C    1.492    66 C    1.309   200 H    0.960
    69   6 C    3.928 --    38 C    1.297    70 C    1.217    74 C    1.213
    70   6 C    3.934 --    71 C    1.608    69 C    1.217   182 H    0.959
    71   6 C    3.943 --    70 C    1.608    72 C    1.228   183 H    0.959
    72   6 C    3.922 --   103 C    1.288    71 C    1.228    75 C    1.200
    73   6 C    3.948 --    42 C    1.262    78 C    1.260    74 C    1.213
    74   6 C    3.948 --    75 C    1.307    69 C    1.213    73 C    1.213
    75   6 C    3.945 --    74 C    1.307    76 C    1.227    72 C    1.200
    76   6 C    3.956 --   107 C    1.256    79 C    1.253    75 C    1.227
    77   6 C    3.956 --    46 C    1.280    82 C    1.237    78 C    1.224
    78   6 C    3.957 --    73 C    1.260    79 C    1.250    77 C    1.224
    79   6 C    3.957 --    76 C    1.253    78 C    1.250    80 C    1.234
    80   6 C    3.958 --   111 C    1.283    79 C    1.234    83 C    1.227
    81   6 C    3.951 --    50 C    1.258    82 C    1.253    86 C    1.230
[...]
    19   7 N       20   6 C                                       1.3840642
    17   6 C       22   6 C                                       1.4102121
    21   7 N       22   6 C                                       1.3153837
    20   6 C       23   6 C                                       1.3944676
    23   6 C       24   6 C                                       1.4137620
    21   7 N       26   6 C                                       1.3565578
    25   6 C       26   6 C                                       1.3848389
    24   6 C       27   6 C                                       1.4064949
    26   6 C       27   6 C                                       1.4330263
    27   6 C       28   6 C                                       1.4070813
    25   6 C       30   6 C                                       1.4052652
    29   6 C       30   6 C                                       1.4079995
    28   6 C       31   6 C                                       1.4122378
    30   6 C       31   6 C                                       1.4249397
    31   6 C       32   6 C                                       1.4201387
    29   6 C       33   6 C                                       1.3714766
    32   6 C       34   6 C                                       1.3907865
    33   6 C       34   6 C                                       1.3914141
    35   6 C       36   6 C                                       1.4189390
    36   6 C       37   6 C                                       1.3511280
    37   6 C       38   6 C                                       1.4150284
     8   6 C       39   6 C                                       1.4107680
    35   6 C       40   6 C                                       1.4057673
    39   6 C       40   6 C                                       1.4230911
    38   6 C       41   7 N                                       1.3975508
    40   6 C       41   7 N                                       1.3899250
    41   7 N       42   6 C                                       1.3855119
    12   6 C       43   6 C                                       1.4126170
    39   6 C       44   6 C                                       1.4101352
    43   6 C       44   6 C                                       1.4091840
    42   6 C       45   6 C                                       1.4108080
    44   6 C       45   6 C                                       1.4127549
    45   6 C       46   6 C                                       1.4206281
    16   6 C       47   6 C                                       1.4167888
    43   6 C       48   6 C                                       1.4110286
    47   6 C       48   6 C                                       1.4115015
    46   6 C       49   6 C                                       1.4176763
    48   6 C       49   6 C                                       1.4148335
    49   6 C       50   6 C                                       1.4114249
    20   6 C       51   6 C                                       1.4163584
    47   6 C       52   6 C                                       1.4150391
    51   6 C       52   6 C                                       1.4103182
    50   6 C       53   6 C                                       1.4158322
    52   6 C       53   6 C                                       1.4032127
    53   6 C       54   6 C                                       1.4170402
    24   6 C       55   6 C                                       1.4067979
    51   6 C       56   6 C                                       1.4125916
    55   6 C       56   6 C                                       1.4057933
    54   6 C       57   6 C                                       1.4074192
    56   6 C       57   6 C                                       1.4148509
    57   6 C       58   6 C                                       1.4162183
    28   6 C       59   6 C                                       1.4215210
    55   6 C       60   6 C                                       1.4158801
    59   6 C       60   6 C                                       1.4031570
    58   6 C       61   6 C                                       1.4140311
    60   6 C       61   6 C                                       1.4189933
    61   6 C       62   6 C                                       1.4114427
    59   6 C       64   6 C                                       1.4190684
    63   6 C       64   6 C                                       1.4155270
    62   6 C       65   6 C                                       1.4200814
    64   6 C       65   6 C                                       1.4163542
    65   6 C       66   6 C                                       1.4134285
    63   6 C       67   6 C                                       1.3973118
    66   6 C       68   6 C                                       1.4044827
    67   6 C       68   6 C                                       1.3733198
    38   6 C       69   6 C                                       1.4043745
    69   6 C       70   6 C                                       1.4221581
    70   6 C       71   6 C                                       1.3563389
    71   6 C       72   6 C                                       1.4194593
    42   6 C       73   6 C                                       1.4163532
    69   6 C       74   6 C                                       1.4198095
    73   6 C       74   6 C                                       1.4187284
    72   6 C       75   6 C                                       1.4224849
    74   6 C       75   6 C                                       1.4024780
    75   6 C       76   6 C                                       1.4149799
    46   6 C       77   6 C                                       1.4060133
    73   6 C       78   6 C                                       1.4142038
    77   6 C       78   6 C                                       1.4189960
    76   6 C       79   6 C                                       1.4160102
    78   6 C       79   6 C                                       1.4181970
    79   6 C       80   6 C                                       1.4166915
    50   6 C       81   6 C                                       1.4091409
    77   6 C       82   6 C                                       1.4151795
    81   6 C       82   6 C                                       1.4121844
    80   6 C       83   6 C                                       1.4176045
    82   6 C       83   6 C                                       1.4103948
    83   6 C       84   6 C                                       1.4106815
    54   6 C       85   6 C                                       1.4092503
    81   6 C       86   6 C                                       1.4170832
    85   6 C       86   6 C                                       1.4155903
    84   6 C       87   6 C                                       1.4164532
    86   6 C       87   6 C                                       1.4051026
    87   6 C       88   6 C                                       1.4153739
    58   6 C       89   6 C                                       1.4063995
    85   6 C       90   6 C                                       1.4132312
    89   6 C       90   6 C                                       1.4165291
    88   6 C       91   6 C                                       1.4127080
    90   6 C       91   6 C                                       1.4101761
    91   6 C       92   6 C                                       1.4140154
    62   6 C       93   6 C                                       1.4190106
    89   6 C       94   6 C                                       1.4205488
    93   6 C       94   6 C                                       1.4151098
    92   6 C       95   6 C                                       1.4138985
    94   6 C       95   6 C                                       1.4075604
    95   6 C       96   6 C                                       1.4154565
    66   6 C       97   6 C                                       1.4290772
    93   6 C       98   7 N                                       1.3842708
    97   6 C       98   7 N                                       1.3836722
    96   6 C       99   6 C                                       1.4125172
    98   7 N       99   6 C                                       1.3834111
    99   6 C      100   6 C                                       1.4265776
    97   6 C      101   6 C                                       1.4127275
   100   6 C      102   6 C                                       1.4258452
   101   6 C      102   6 C                                       1.3512983
    72   6 C      103   6 C                                       1.4062814
   103   6 C      104   6 C                                       1.4137482
   104   6 C      105   6 C                                       1.3538989
   105   6 C      106   6 C                                       1.4120905
    76   6 C      107   6 C                                       1.4176783
   103   6 C      108   7 N                                       1.3912966
   107   6 C      108   7 N                                       1.3920110
   106   6 C      109   6 C                                       1.4079773
   108   7 N      109   6 C                                       1.3889654
   109   6 C      110   6 C                                       1.4219347
    80   6 C      111   6 C                                       1.4055253
   107   6 C      112   6 C                                       1.4058604
   111   6 C      112   6 C                                       1.4219368
   110   6 C      113   6 C                                       1.4056954
   112   6 C      113   6 C                                       1.4176466
   113   6 C      114   6 C                                       1.4105160
    84   6 C      115   6 C                                       1.4106376
   111   6 C      116   6 C                                       1.4180498
   115   6 C      116   6 C                                       1.4129182
   114   6 C      117   6 C                                       1.4172840
   116   6 C      117   6 C                                       1.4112125
   117   6 C      118   6 C                                       1.4085632
    88   6 C      119   6 C                                       1.4090066
   115   6 C      120   6 C                                       1.4152550
   119   6 C      120   6 C                                       1.4157204
   118   6 C      121   6 C                                       1.4124567
   120   6 C      121   6 C                                       1.4082312
   121   6 C      122   6 C                                       1.4155844
    92   6 C      123   6 C                                       1.4078564
   119   6 C      124   6 C                                       1.4128537
   123   6 C      124   6 C                                       1.4119996
   122   6 C      125   6 C                                       1.4090956
   124   6 C      125   6 C                                       1.4130232
   125   6 C      126   6 C                                       1.4147786
    96   6 C      127   6 C                                       1.4180824
   123   6 C      128   6 C                                       1.4185837
   127   6 C      128   6 C                                       1.4140752
   126   6 C      129   6 C                                       1.4172498
   128   6 C      129   6 C                                       1.4087617
   129   6 C      130   6 C                                       1.4162862
   100   6 C      131   6 C                                       1.4005104
   127   6 C      132   6 C                                       1.4136088
   131   6 C      132   6 C                                       1.4087426
   130   6 C      133   6 C                                       1.3972081
   132   6 C      133   6 C                                       1.4142667
   131   6 C      135   7 N                                       1.3845104
   134   6 C      136   6 C                                       1.3651832
   135   7 N      136   6 C                                       1.3551712
   137   6 C      138   6 C                                       1.3961844
   138   6 C      139   6 C                                       1.3860458
   139   6 C      140   6 C                                       1.3755762
   110   6 C      141   6 C                                       1.4215052
   137   6 C      142   6 C                                       1.4157841
   141   6 C      142   6 C                                       1.4126548
   140   6 C      143   6 C                                       1.4014121
   142   6 C      143   6 C                                       1.4204291
   143   6 C      144   6 C                                       1.4131513
   114   6 C      145   6 C                                       1.4062305
   141   6 C      146   6 C                                       1.4099971
   145   6 C      146   6 C                                       1.4087984
   144   6 C      147   6 C                                       1.3703819
   146   6 C      147   6 C                                       1.4243005
   147   6 C      148   7 N                                       1.3768047
   118   6 C      149   6 C                                       1.4188702
   145   6 C      150   6 C                                       1.4162901
   149   6 C      150   6 C                                       1.4047005
   148   7 N      151   6 C                                       1.3723232
   150   6 C      151   6 C                                       1.4177424
   151   6 C      152   6 C                                       1.3808585
   122   6 C      153   6 C                                       1.4148168
   149   6 C      154   6 C                                       1.4108559
   153   6 C      154   6 C                                       1.4130686
   152   6 C      155   6 C                                       1.4078516
   154   6 C      155   6 C                                       1.4193178
   155   6 C      156   6 C                                       1.4122845
   126   6 C      157   6 C                                       1.4048330
   153   6 C      158   6 C                                       1.4071206
   157   6 C      158   6 C                                       1.4104645
   156   6 C      159   6 C                                       1.3772098
   158   6 C      159   6 C                                       1.4225049
   159   6 C      160   7 N                                       1.3739772
   130   6 C      161   6 C                                       1.4271326
   157   6 C      162   6 C                                       1.4217208
   161   6 C      162   6 C                                       1.3995623
   160   7 N      163   6 C                                       1.3762595
   162   6 C      163   6 C                                       1.4218497
   163   6 C      164   6 C                                       1.3731689
   161   6 C      166   6 C                                       1.4186115
   165   6 C      166   6 C                                       1.4196421
   164   6 C      167   6 C                                       1.4118653
   166   6 C      167   6 C                                       1.4200697
   167   6 C      168   6 C                                       1.4062952
   165   6 C      169   6 C                                       1.3881717
   168   6 C      170   6 C                                       1.3710802
   169   6 C      170   6 C                                       1.3919429
     1   6 C      171   1 H                                       1.0799930
     2   6 C      172   1 H                                       1.0799830
     3   6 C      173   1 H                                       1.0767440
     5   7 N      174   1 H                                       1.0099874
     9   6 C      175   1 H                                       1.0802177
    13   6 C      176   1 H                                       1.0779928
    17   6 C      177   1 H                                       1.0768928
    25   6 C      178   1 H                                       1.0790833
    29   6 C      179   1 H                                       1.0802902
    36   6 C      180   1 H                                       1.0752841
    37   6 C      181   1 H                                       1.0745843
    70   6 C      182   1 H                                       1.0766415
    71   6 C      183   1 H                                       1.0768628
   104   6 C      184   1 H                                       1.0744085
   105   6 C      185   1 H                                       1.0757065
   138   6 C      186   1 H                                       1.0774008
   139   6 C      187   1 H                                       1.0807465
   140   6 C      188   1 H                                       1.0800349
   144   6 C      189   1 H                                       1.0808492
   148   7 N      190   1 H                                       1.0099593
   152   6 C      191   1 H                                       1.0813402
   156   6 C      192   1 H                                       1.0814202
   160   7 N      193   1 H                                       1.0100663
   164   6 C      194   1 H                                       1.0811576
   168   6 C      195   1 H                                       1.0802378
   170   6 C      196   1 H                                       1.0806230
    33   6 C      197   1 H                                       1.0812823
    34   6 C      198   1 H                                       1.0784143
    67   6 C      199   1 H                                       1.0781862
    68   6 C      200   1 H                                       1.0771333
   101   6 C      201   1 H                                       1.0744293
   102   6 C      202   1 H                                       1.0781905
   135   7 N      203   1 H                                       1.0070740 (min)
   136   6 C      204   1 H                                       1.0778948
   169   6 C      205   1 H                                       1.0785546

 * 4 distinct bonds (by element types)

   Z      Z             #   av. dist./Å        max./Å        min./Å
   1 H    6 C          31     1.0784703     1.0814202     1.0744085
   6 C    6 C         209     1.4088347     1.4330294     1.3511280
   1 H    7 N           4     1.0092717     1.0100663     1.0070740
   6 C    7 N          22     1.3777886     1.3996013     1.3153837


optimized geometry written to: xtbopt.xyz


           -------------------------------------------------
          | TOTAL ENERGY             -390.501468652343 Eh   |
          | GRADIENT NORM               0.000614781702 Eh/α |
          | HOMO-LUMO GAP               0.255046540507 eV   |
           -------------------------------------------------

------------------------------------------------------------------------
 * finished run on 2025/12/08 at 00:51:37.106     
------------------------------------------------------------------------
 total:
 * wall-time:     0 d,  0 h,  0 min, 15.049 sec
 *  cpu-time:     0 d,  0 h,  0 min, 59.531 sec
 * ratio c/w:     3.956 speedup
 SCF:
 * wall-time:     0 d,  0 h,  0 min,  3.750 sec
 *  cpu-time:     0 d,  0 h,  0 min, 14.781 sec
 * ratio c/w:     3.942 speedup
 ANC optimizer:
 * wall-time:     0 d,  0 h,  0 min, 11.159 sec
 *  cpu-time:     0 d,  0 h,  0 min, 44.188 sec
 * ratio c/w:     3.960 speedup

normal termination of xtb
