      -----------------------------------------------------------      
     |                   =====================                   |     
     |                           x T B                           |     
     |                   =====================                   |     
     |                         S. Grimme                         |     
     |          Mulliken Center for Theoretical Chemistry        |     
     |                    University of Bonn                     |     
      -----------------------------------------------------------      

   * xtb version 6.7.1pre (5071a88) compiled by 'Marcel@Raven' on 2024-07-23

   xtb is free software: you can redistribute it and/or modify it under
   the terms of the GNU Lesser General Public License as published by
   the Free Software Foundation, either version 3 of the License, or
   (at your option) any later version.
   
   xtb is distributed in the hope that it will be useful,
   but WITHOUT ANY WARRANTY; without even the implied warranty of
   MERCHANTABILITY or FITNESS FOR A PARTICULAR PURPOSE.  See the
   GNU Lesser General Public License for more details.
   
   Cite this work as:
   * C. Bannwarth, E. Caldeweyher, S. Ehlert, A. Hansen, P. Pracht,
     J. Seibert, S. Spicher, S. Grimme, WIREs Comput. Mol. Sci., 2020, 11,
     e01493. DOI: 10.1002/wcms.1493
   
   for GFN2-xTB:
   * C. Bannwarth, S. Ehlert and S. Grimme., J. Chem. Theory Comput., 2019,
     15, 1652-1671. DOI: 10.1021/acs.jctc.8b01176
   for GFN1-xTB:
   * S. Grimme, C. Bannwarth, P. Shushkov, J. Chem. Theory Comput., 2017,
     13, 1989-2009. DOI: 10.1021/acs.jctc.7b00118
   for GFN0-xTB:
   * P. Pracht, E. Caldeweyher, S. Ehlert, S. Grimme, ChemRxiv, 2019, preprint.
     DOI: 10.26434/chemrxiv.8326202.v1
   for GFN-FF:
   * S. Spicher and S. Grimme, Angew. Chem. Int. Ed., 2020, 59, 15665-15673.
     DOI: 10.1002/anie.202004239
   
   for ALPB and GBSA implicit solvation:
   * S. Ehlert, M. Stahn, S. Spicher, S. Grimme, J. Chem. Theory Comput.,
     2021, 17, 4250-4261. DOI: 10.1021/acs.jctc.1c00471
   
   for ddCOSMO and CPCM-X implicit solvation:
   * M. Stahn, S. Ehlert, S. Grimme, J. Phys. Chem. A,
     2023, XX, XXXX-XXXX. DOI: 10.1021/acs.jpca.3c04382
   
   for DFT-D4:
   * E. Caldeweyher, C. Bannwarth and S. Grimme, J. Chem. Phys., 2017,
     147, 034112. DOI: 10.1063/1.4993215
   * E. Caldeweyher, S. Ehlert, A. Hansen, H. Neugebauer, S. Spicher,
     C. Bannwarth and S. Grimme, J. Chem. Phys., 2019, 150, 154122.
     DOI: 10.1063/1.5090222
   * E. Caldeweyher, J.-M. Mewes, S. Ehlert and S. Grimme, Phys. Chem. Chem. Phys.
     2020, 22, 8499-8512. DOI: 10.1039/D0CP00502A
   
   for sTDA-xTB:
   * S. Grimme and C. Bannwarth, J. Chem. Phys., 2016, 145, 054103.
     DOI: 10.1063/1.4959605
   
   in the mass-spec context:
   * V. Asgeirsson, C. Bauer and S. Grimme, Chem. Sci., 2017, 8, 4879.
     DOI: 10.1039/c7sc00601b
   * J. Koopman and S. Grimme, ACS Omega 2019, 4, 12, 15120-15133.
     DOI: 10.1021/acsomega.9b02011
   
   for metadynamics refer to:
   * S. Grimme, J. Chem. Theory Comput., 2019, 155, 2847-2862
     DOI: 10.1021/acs.jctc.9b00143
   
   for SPH calculations refer to:
   * S. Spicher and S. Grimme, J. Chem. Theory Comput., 2021, 17, 1701-1714
     DOI: 10.1021/acs.jctc.0c01306
   
   for ONIOM refer to:
   * C. Plett, A. Katbashev, S. Ehlert, S. Grimme, M. Bursch,
     Phys. Chem. Chem. Phys., 2023, 25, 17860-17868. DOI: 10.1039/D3CP02178E
   
   for DIPRO refer to:
   * J. Kohn, N. Gildemeister, S. Grimme, D. Fazzi, A. Hansen,
     J. Chem. Phys., 2023, just accepted.
   
   for PTB refer to:
   * S. Grimme, M. Mueller, A. Hansen, J. Chem. Phys., 2023, 158, 124111.
     DOI: 10.1063/5.0137838
   
   with help from (in alphabetical order)
   P. Atkinson, C. Bannwarth, F. Bohle, G. Brandenburg, E. Caldeweyher
   M. Checinski, S. Dohm, S. Ehlert, S. Ehrlich, I. Gerasimov, C. Hölzer
   A. Katbashev, J. Kohn, J. Koopman, C. Lavigne, S. Lehtola, F. März, M. Müller,
   F. Musil, H. Neugebauer, J. Pisarek, C. Plett, P. Pracht, F. Pultar,
   J. Seibert, P. Shushkov, S. Spicher, M. Stahn, M. Steiner, T. Strunk,
   J. Stückrath, T. Rose, and J. Unsleber
   
 * started run on 2025/12/08 at 00:51:37.134     
   ID    Z sym.   atoms
    1    6 C      1-4, 6-18, 20, 22-40, 42-97, 99-107, 109-134, 136-147,
                  149-159, 161-170
    2    7 N      5, 19, 21, 41, 98, 108, 135, 148, 160
    3    1 H      171-205

           -------------------------------------------------
          |                Calculation Setup                |
           -------------------------------------------------

          program call               : xtb "C:\Users\LENOVO GAMING\Documents\GitHub\molecular-conductivity-sim\results\2nm-9Ndoped-5percent\xtbopt.xyz" --sp
          coordinate file            : C:\Users\LENOVO GAMING\Documents\GitHub\molecular-conductivity-sim\results\2nm-9Ndoped-5percent\xtbopt.xyz
          omp threads                :                    16


           -------------------------------------------------
          |                 G F N 2 - x T B                 |
           -------------------------------------------------

        Reference                      10.1021/acs.jctc.8b01176
      * Hamiltonian:
        H0-scaling (s, p, d)           1.850000    2.230000    2.230000
        zeta-weighting                 0.500000
      * Dispersion:
        s8                             2.700000
        a1                             0.520000
        a2                             5.000000
        s9                             5.000000
      * Repulsion:
        kExp                           1.500000    1.000000
        rExp                           1.000000
      * Coulomb:
        alpha                          2.000000
        third order                    shell-resolved
        anisotropic                    true
        a3                             3.000000
        a5                             4.000000
        cn-shift                       1.200000
        cn-exp                         4.000000
        max-rad                        5.000000

q/qsh data taken from xtbrestart
CAMM data taken from xtbrestart

          ...................................................
          :                      SETUP                      :
          :.................................................:
          :  # basis functions                 715          :
          :  # atomic orbitals                 715          :
          :  # shells                          375          :
          :  # electrons                       724          :
          :  max. iterations                   250          :
          :  Hamiltonian                  GFN2-xTB          :
          :  restarted?                       true          :
          :  GBSA solvation                  false          :
          :  PC potential                    false          :
          :  electronic temp.          300.0000000     K    :
          :  accuracy                    1.0000000          :
          :  -> integral cutoff          0.2500000E+02      :
          :  -> integral neglect         0.1000000E-07      :
          :  -> SCF convergence          0.1000000E-05 Eh   :
          :  -> wf. convergence          0.1000000E-03 e    :
          :  Broyden damping             0.4000000          :
          :  net charge                          0          :
          :  unpaired electrons                  0          :
          ...................................................

 iter      E             dE          RMSdq      gap      omega  full diag
   1   -397.9551111 -0.397955E+03  0.221E-05    0.26       0.0  T
   2   -397.9551111  0.310183E-08  0.727E-05    0.26      96.1  T
   3   -397.9551111 -0.336166E-08  0.599E-06    0.26    1166.6  T

   *** convergence criteria satisfied after 3 iterations ***

         #    Occupation            Energy/Eh            Energy/eV
      -------------------------------------------------------------
         1        2.0000           -0.6982658             -19.0008
       ...           ...                  ...                  ...
       356        2.0000           -0.3487575              -9.4902
       357        2.0000           -0.3410779              -9.2812
       358        2.0000           -0.3347895              -9.1101
       359        2.0000           -0.3260580              -8.8725
       360        2.0000           -0.3154880              -8.5849
       361        2.0000           -0.3131023              -8.5199
       362        1.9851           -0.3047815              -8.2935 (HOMO)
       363        0.0137           -0.2954087              -8.0385 (LUMO)
       364        0.0011           -0.2930426              -7.9741
       365        0.0000           -0.2869700              -7.8089
       366                         -0.2803351              -7.6283
       367                         -0.2766715              -7.5286
       ...                                ...                  ...
       715                          0.8001355              21.7728
      -------------------------------------------------------------
                  HL-Gap            0.0093728 Eh            0.2550 eV
             Fermi-level           -0.3001334 Eh           -8.1670 eV

 SCC (total)                   0 d,  0 h,  0 min,  0.524 sec
 SCC setup                      ...        0 min,  0.002 sec (  0.382%)
 Dispersion                     ...        0 min,  0.017 sec (  3.244%)
 classical contributions        ...        0 min,  0.001 sec (  0.191%)
 integral evaluation            ...        0 min,  0.045 sec (  8.588%)
 iterations                     ...        0 min,  0.317 sec ( 60.496%)
 molecular gradient             ...        0 min,  0.132 sec ( 25.191%)
 printout                       ...        0 min,  0.010 sec (  1.908%)

         :::::::::::::::::::::::::::::::::::::::::::::::::::::
         ::                     SUMMARY                     ::
         :::::::::::::::::::::::::::::::::::::::::::::::::::::
         :: total energy            -390.501468652805 Eh    ::
         :: gradient norm              0.000616805300 Eh/a0 ::
         :: HOMO-LUMO gap              0.255048112544 eV    ::
         ::.................................................::
         :: SCC energy              -397.972470919123 Eh    ::
         :: -> isotropic ES            0.043553423762 Eh    ::
         :: -> anisotropic ES          0.029570632737 Eh    ::
         :: -> anisotropic XC          0.120906444798 Eh    ::
         :: -> dispersion             -0.494845849650 Eh    ::
         :: repulsion energy           7.471002266318 Eh    ::
         :: add. restraining           0.000000000000 Eh    ::
         :: total charge              -0.000000000000 e     ::
         :::::::::::::::::::::::::::::::::::::::::::::::::::::

           -------------------------------------------------
          |                Property Printout                |
           -------------------------------------------------

    * Orbital Energies and Occupations

         #    Occupation            Energy/Eh            Energy/eV
      -------------------------------------------------------------
         1        2.0000           -0.6982658             -19.0008
       ...           ...                  ...                  ...
       350        2.0000           -0.3760957             -10.2341
       351        2.0000           -0.3748192             -10.1994
       352        2.0000           -0.3697997             -10.0628
       353        2.0000           -0.3638231              -9.9001
       354        2.0000           -0.3590068              -9.7691
       355        2.0000           -0.3497681              -9.5177
       356        2.0000           -0.3487575              -9.4902
       357        2.0000           -0.3410779              -9.2812
       358        2.0000           -0.3347895              -9.1101
       359        2.0000           -0.3260580              -8.8725
       360        2.0000           -0.3154880              -8.5849
       361        2.0000           -0.3131023              -8.5199
       362        1.9851           -0.3047815              -8.2935 (HOMO)
       363        0.0137           -0.2954087              -8.0385 (LUMO)
       364        0.0011           -0.2930426              -7.9741
       365        0.0000           -0.2869700              -7.8089
       366                         -0.2803351              -7.6283
       367                         -0.2766715              -7.5286
       368                         -0.2719352              -7.3997
       369                         -0.2712392              -7.3808
       370                         -0.2668040              -7.2601
       371                         -0.2635050              -7.1703
       372                         -0.2584770              -7.0335
       373                         -0.2535108              -6.8984
       ...                                ...                  ...
       715                          0.8001355              21.7728
      -------------------------------------------------------------
                  HL-Gap            0.0093728 Eh            0.2550 eV
             Fermi-level           -0.3001334 Eh           -8.1670 eV

     #   Z          covCN         q      C6AA      α(0)
     1   6 C        2.919    -0.069    29.723     8.940
     2   6 C        2.917    -0.029    28.720     8.788
     3   6 C        2.919    -0.052    29.293     8.875
     4   6 C        2.979     0.003    27.958     8.673
     5   7 N        2.706    -0.121    23.634     7.220
     6   6 C        2.917     0.069    26.462     8.436
     7   6 C        2.997    -0.013    28.332     8.731
     8   6 C        2.990     0.003    27.959     8.674
     9   6 C        2.919    -0.089    30.244     9.018
    10   6 C        2.910     0.066    26.519     8.444
    11   6 C        2.994    -0.017    28.418     8.745
    12   6 C        2.993     0.002    27.962     8.674
    13   6 C        2.925    -0.078    29.959     8.976
    14   6 C        2.975     0.016    27.653     8.626
    15   6 C        2.995    -0.020    28.487     8.755
    16   6 C        2.933     0.056    26.733     8.479
    17   6 C        2.927    -0.090    30.251     9.020
    18   6 C        2.918     0.056    26.740     8.480
    19   7 N        2.756     0.012    21.049     6.814
    20   6 C        2.936     0.047    26.950     8.514
    21   7 N        1.845    -0.296    28.522     7.915
    22   6 C        2.945     0.099    25.813     8.333
    23   6 C        2.996    -0.026    28.639     8.779
    24   6 C        3.000     0.006    27.865     8.659
    25   6 C        2.925    -0.066    29.636     8.928
    26   6 C        2.946     0.087    26.069     8.374
    27   6 C        2.996    -0.015    28.384     8.739
    28   6 C        2.988    -0.003    28.087     8.693
    29   6 C        2.920    -0.043    29.074     8.842
    30   6 C        2.979     0.011    27.773     8.645
    31   6 C        2.995    -0.003    28.100     8.695
    32   6 C        2.974     0.002    27.969     8.675
    33   6 C        2.912    -0.032    28.809     8.801
    34   6 C        2.920    -0.047    29.173     8.857
    35   6 C        2.981    -0.016    28.405     8.742
    36   6 C        2.916    -0.037    28.915     8.818
    37   6 C        2.916    -0.051    29.259     8.870
    38   6 C        2.925     0.037    27.165     8.547
    39   6 C        2.990    -0.016    28.404     8.742
    40   6 C        2.930     0.054    26.788     8.488
    41   7 N        2.751     0.023    20.844     6.781
    42   6 C        2.930     0.047    26.940     8.512
    43   6 C        2.994    -0.009    28.231     8.716
    44   6 C        2.993     0.004    27.916     8.667
    45   6 C        2.989    -0.018    28.451     8.750
    46   6 C        2.990    -0.002    28.071     8.691
    47   6 C        2.991    -0.016    28.409     8.743
    48   6 C        2.993    -0.000    28.026     8.684
    49   6 C        2.991    -0.004    28.120     8.699
    50   6 C        2.993     0.000    28.017     8.683
    51   6 C        2.993    -0.015    28.374     8.738
    52   6 C        2.996     0.003    27.939     8.671
    53   6 C        2.993    -0.006    28.166     8.706
    54   6 C        2.994    -0.000    28.027     8.684
    55   6 C        2.995    -0.010    28.246     8.718
    56   6 C        2.995    -0.001    28.041     8.686
    57   6 C        2.993    -0.005    28.126     8.699
    58   6 C        2.991    -0.001    28.031     8.685
    59   6 C        2.990    -0.005    28.140     8.702
    60   6 C        2.991    -0.003    28.095     8.695
    61   6 C        2.991    -0.009    28.222     8.714
    62   6 C        2.986    -0.009    28.235     8.716
    63   6 C        2.976    -0.001    28.058     8.689
    64   6 C        2.992     0.001    28.003     8.681
    65   6 C        2.995     0.003    27.945     8.672
    66   6 C        2.979    -0.007    28.190     8.709
    67   6 C        2.919    -0.035    28.867     8.811
    68   6 C        2.917    -0.051    29.264     8.871
    69   6 C        2.979    -0.014    28.358     8.735
    70   6 C        2.915    -0.045    29.112     8.848
    71   6 C        2.915    -0.040    28.994     8.830
    72   6 C        2.980    -0.021    28.530     8.762
    73   6 C        2.988    -0.009    28.244     8.718
    74   6 C        2.994    -0.001    28.035     8.686
    75   6 C        2.994    -0.001    28.047     8.687
    76   6 C        2.988    -0.009    28.226     8.715
    77   6 C        2.990    -0.006    28.165     8.706
    78   6 C        2.989    -0.006    28.164     8.705
    79   6 C        2.989    -0.004    28.126     8.700
    80   6 C        2.990    -0.004    28.110     8.697
    81   6 C        2.992    -0.004    28.118     8.698
    82   6 C        2.992    -0.000    28.030     8.685
    83   6 C        2.992    -0.003    28.084     8.693
    84   6 C        2.992    -0.003    28.099     8.695
    85   6 C        2.993    -0.005    28.133     8.701
    86   6 C        2.992    -0.000    28.025     8.684
    87   6 C        2.993    -0.003    28.094     8.695
    88   6 C        2.993    -0.002    28.069     8.691
    89   6 C        2.992    -0.005    28.129     8.700
    90   6 C        2.992    -0.001    28.052     8.688
    91   6 C        2.993    -0.002    28.064     8.690
    92   6 C        2.991    -0.002    28.055     8.689
    93   6 C        2.935     0.039    27.128     8.542
    94   6 C        2.988    -0.010    28.267     8.721
    95   6 C        2.994    -0.004    28.109     8.697
    96   6 C        2.987    -0.014    28.348     8.734
    97   6 C        2.928     0.029    27.357     8.578
    98   7 N        2.751     0.044    20.474     6.720
    99   6 C        2.936     0.051    26.851     8.498
   100   6 C        2.980    -0.030    28.744     8.794
   101   6 C        2.916    -0.046    29.149     8.853
   102   6 C        2.913    -0.049    29.208     8.862
   103   6 C        2.925     0.046    26.972     8.517
   104   6 C        2.917    -0.054    29.351     8.884
   105   6 C        2.918    -0.031    28.767     8.795
   106   6 C        2.981    -0.017    28.431     8.746
   107   6 C        2.930     0.044    27.006     8.522
   108   7 N        2.752     0.025    20.814     6.776
   109   6 C        2.931     0.054    26.784     8.487
   110   6 C        2.989    -0.016    28.399     8.742
   111   6 C        2.990    -0.003    28.100     8.695
   112   6 C        2.988    -0.017    28.435     8.747
   113   6 C        2.992     0.004    27.928     8.669
   114   6 C        2.993    -0.008    28.198     8.711
   115   6 C        2.992    -0.001    28.042     8.687
   116   6 C        2.991    -0.004    28.107     8.697
   117   6 C        2.992    -0.001    28.052     8.688
   118   6 C        2.992    -0.005    28.139     8.702
   119   6 C        2.993    -0.003    28.079     8.692
   120   6 C        2.992    -0.003    28.086     8.693
   121   6 C        2.993    -0.001    28.040     8.686
   122   6 C        2.992    -0.004    28.113     8.698
   123   6 C        2.992    -0.001    28.035     8.686
   124   6 C        2.992    -0.004    28.107     8.697
   125   6 C        2.993     0.000    28.016     8.683
   126   6 C        2.992    -0.005    28.126     8.700
   127   6 C        2.993    -0.005    28.134     8.701
   128   6 C        2.991    -0.003    28.099     8.695
   129   6 C        2.991    -0.005    28.141     8.702
   130   6 C        2.989    -0.007    28.186     8.709
   131   6 C        2.918     0.037    27.174     8.548
   132   6 C        2.991    -0.002    28.075     8.692
   133   6 C        2.994     0.001    27.994     8.679
   134   6 C        2.969    -0.015    28.371     8.737
   135   7 N        2.700    -0.095    23.106     7.139
   136   6 C        2.853     0.019    27.579     8.607
   137   6 C        2.977     0.003    27.962     8.674
   138   6 C        2.921    -0.050    29.230     8.866
   139   6 C        2.914    -0.030    28.760     8.794
   140   6 C        2.921    -0.048    29.202     8.862
   141   6 C        2.989    -0.001    28.041     8.686
   142   6 C        2.997    -0.007    28.178     8.708
   143   6 C        2.983     0.014    27.700     8.633
   144   6 C        2.921    -0.084    30.105     8.998
   145   6 C        2.993     0.007    27.846     8.656
   146   6 C        2.996    -0.013    28.338     8.732
   147   6 C        2.909     0.064    26.561     8.451
   148   7 N        2.704    -0.123    23.682     7.228
   149   6 C        2.993     0.002    27.971     8.675
   150   6 C        2.996    -0.016    28.404     8.743
   151   6 C        2.909     0.067    26.509     8.443
   152   6 C        2.919    -0.082    30.059     8.991
   153   6 C        2.993    -0.001    28.038     8.686
   154   6 C        2.995    -0.014    28.347     8.734
   155   6 C        2.977     0.016    27.649     8.625
   156   6 C        2.919    -0.083    30.087     8.995
   157   6 C        2.992     0.002    27.962     8.674
   158   6 C        2.995    -0.013    28.333     8.732
   159   6 C        2.908     0.067    26.503     8.442
   160   7 N        2.704    -0.123    23.683     7.228
   161   6 C        2.988     0.001    27.995     8.679
   162   6 C        2.994    -0.012    28.308     8.728
   163   6 C        2.909     0.065    26.548     8.449
   164   6 C        2.921    -0.081    30.023     8.985
   165   6 C        2.973     0.004    27.933     8.669
   166   6 C        2.994    -0.004    28.105     8.696
   167   6 C        2.983     0.013    27.721     8.637
   168   6 C        2.920    -0.045    29.106     8.847
   169   6 C        2.920    -0.049    29.214     8.864
   170   6 C        2.913    -0.031    28.763     8.794
   171   1 H        0.926     0.024     2.680     2.560
   172   1 H        0.926     0.031     2.569     2.507
   173   1 H        0.926     0.030     2.580     2.512
   174   1 H        0.860     0.167     1.293     1.781
   175   1 H        0.926     0.021     2.711     2.575
   176   1 H        0.926     0.036     2.505     2.475
   177   1 H        0.926     0.047     2.357     2.401
   178   1 H        0.926     0.037     2.482     2.464
   179   1 H        0.926     0.025     2.657     2.549
   180   1 H        0.926     0.041     2.441     2.443
   181   1 H        0.926     0.045     2.388     2.416
   182   1 H        0.926     0.029     2.594     2.519
   183   1 H        0.926     0.030     2.586     2.515
   184   1 H        0.926     0.045     2.386     2.415
   185   1 H        0.926     0.043     2.413     2.429
   186   1 H        0.926     0.024     2.673     2.557
   187   1 H        0.926     0.024     2.666     2.553
   188   1 H        0.926     0.024     2.677     2.558
   189   1 H        0.926     0.020     2.738     2.588
   190   1 H        0.860     0.163     1.314     1.796
   191   1 H        0.925     0.019     2.754     2.595
   192   1 H        0.925     0.018     2.767     2.601
   193   1 H        0.860     0.162     1.320     1.800
   194   1 H        0.926     0.020     2.727     2.582
   195   1 H        0.926     0.026     2.644     2.543
   196   1 H        0.926     0.026     2.649     2.545
   197   1 H        0.925     0.020     2.735     2.586
   198   1 H        0.926     0.020     2.737     2.587
   199   1 H        0.926     0.032     2.555     2.500
   200   1 H        0.926     0.023     2.681     2.561
   201   1 H        0.926     0.047     2.362     2.403
   202   1 H        0.926     0.021     2.718     2.578
   203   1 H        0.860     0.174     1.250     1.751
   204   1 H        0.926     0.044     2.393     2.419
   205   1 H        0.926     0.018     2.757     2.596

 Mol. C6AA /au·bohr⁶  :     905738.000181
 Mol. C8AA /au·bohr⁸  :   24855194.928915
 Mol. α(0) /au        :       1550.565264


Wiberg/Mayer (AO) data.
largest (>0.10) Wiberg bond orders for each atom

 ---------------------------------------------------------------------------
     #   Z sym  total        # sym  WBO       # sym  WBO       # sym  WBO
 ---------------------------------------------------------------------------
     1   6 C    3.946 --     2 C    1.393     6 C    1.383   171 H    0.968
     2   6 C    3.975 --     3 C    1.487     1 C    1.393   172 H    0.971
     3   6 C    3.954 --     2 C    1.487     4 C    1.317   173 H    0.962
     4   6 C    3.962 --     3 C    1.317     7 C    1.275    35 C    1.178
     5   7 N    3.494 --     6 C    1.153    10 C    1.139   174 H    0.938
     6   6 C    3.961 --     1 C    1.383     7 C    1.249     5 N    1.153
     7   6 C    3.961 --     4 C    1.275     6 C    1.249     8 C    1.207
     8   6 C    3.949 --    11 C    1.266    39 C    1.265     7 C    1.207
     9   6 C    3.931 --    10 C    1.474    14 C    1.238   175 H    0.966
    10   6 C    3.939 --     9 C    1.474    11 C    1.176     5 N    1.139
    11   6 C    3.934 --     8 C    1.266    12 C    1.263    10 C    1.176
    12   6 C    3.971 --    11 C    1.263    15 C    1.253    43 C    1.238
    13   6 C    3.886 --    14 C    1.421    18 C    1.259   176 H    0.966
    14   6 C    3.970 --    13 C    1.421     9 C    1.238    15 C    1.159
    15   6 C    3.939 --    16 C    1.305    12 C    1.253    14 C    1.159
    16   6 C    3.944 --    15 C    1.305    47 C    1.241    19 N    1.164
    17   6 C    3.890 --    18 C    1.432    22 C    1.243   177 H    0.965
    18   6 C    3.939 --    17 C    1.432    13 C    1.259    19 N    1.086
    19   7 N    3.625 --    16 C    1.164    20 C    1.132    18 C    1.086
    20   6 C    3.925 --    23 C    1.334    51 C    1.235    19 N    1.132
    21   7 N    2.974 --    22 C    1.439    26 C    1.244
    22   6 C    3.969 --    21 N    1.439    17 C    1.243    23 C    1.130
    23   6 C    3.941 --    20 C    1.334    24 C    1.238    22 C    1.130
    24   6 C    3.967 --    27 C    1.267    55 C    1.251    23 C    1.238
    25   6 C    3.897 --    26 C    1.397    30 C    1.304   178 H    0.967
    26   6 C    3.976 --    25 C    1.397    21 N    1.244    27 C    1.168
    27   6 C    3.946 --    28 C    1.280    24 C    1.267    26 C    1.168
    28   6 C    3.979 --    27 C    1.280    31 C    1.255    59 C    1.217
    29   6 C    3.931 --    33 C    1.503    30 C    1.285   179 H    0.969
    30   6 C    3.983 --    25 C    1.304    29 C    1.285    31 C    1.228
    31   6 C    3.962 --    28 C    1.255    32 C    1.252    30 C    1.228
    32   6 C    3.981 --    34 C    1.399    31 C    1.252    63 C    1.136
    33   6 C    3.982 --    29 C    1.503    34 C    1.384   197 H    0.971
    34   6 C    3.925 --    32 C    1.399    33 C    1.384   198 H    0.964
    35   6 C    3.926 --    40 C    1.329    36 C    1.213     4 C    1.178
    36   6 C    3.910 --    37 C    1.598    35 C    1.213   180 H    0.960
    37   6 C    3.954 --    36 C    1.598    38 C    1.237   181 H    0.957
    38   6 C    3.843 --    69 C    1.297    37 C    1.237    41 N    1.110
    39   6 C    3.965 --     8 C    1.265    44 C    1.245    40 C    1.219
    40   6 C    3.947 --    35 C    1.329    39 C    1.219    41 N    1.151
    41   7 N    3.627 --    40 C    1.151    42 C    1.149    38 C    1.110
    42   6 C    3.923 --    45 C    1.271    73 C    1.262    41 N    1.149
    43   6 C    3.959 --    44 C    1.262    48 C    1.239    12 C    1.238
    44   6 C    3.965 --    43 C    1.262    39 C    1.245    45 C    1.231
    45   6 C    3.946 --    42 C    1.271    44 C    1.231    46 C    1.220
    46   6 C    3.959 --    77 C    1.280    49 C    1.241    45 C    1.220
    47   6 C    3.941 --    48 C    1.263    16 C    1.241    52 C    1.220
    48   6 C    3.964 --    47 C    1.263    49 C    1.243    43 C    1.239
    49   6 C    3.954 --    50 C    1.255    48 C    1.243    46 C    1.241
    50   6 C    3.956 --    81 C    1.258    49 C    1.255    53 C    1.231
    51   6 C    3.952 --    56 C    1.255    52 C    1.238    20 C    1.235
    52   6 C    3.952 --    53 C    1.283    51 C    1.238    47 C    1.220
    53   6 C    3.957 --    52 C    1.283    50 C    1.231    54 C    1.226
    54   6 C    3.959 --    57 C    1.268    85 C    1.253    53 C    1.226
    55   6 C    3.964 --    56 C    1.261    24 C    1.251    60 C    1.229
    56   6 C    3.966 --    55 C    1.261    51 C    1.255    57 C    1.231
    57   6 C    3.950 --    54 C    1.268    58 C    1.238    56 C    1.231
    58   6 C    3.961 --    89 C    1.271    61 C    1.239    57 C    1.238
    59   6 C    3.959 --    60 C    1.295    64 C    1.221    28 C    1.217
    60   6 C    3.969 --    59 C    1.295    55 C    1.229    61 C    1.223
    61   6 C    3.950 --    62 C    1.269    58 C    1.239    60 C    1.223
    62   6 C    3.956 --    61 C    1.269    93 C    1.248    65 C    1.219
    63   6 C    3.933 --    67 C    1.342    64 C    1.267    32 C    1.136
    64   6 C    3.979 --    65 C    1.267    63 C    1.267    59 C    1.221
    65   6 C    3.958 --    64 C    1.267    66 C    1.250    62 C    1.219
    66   6 C    3.959 --    68 C    1.309    65 C    1.250    97 C    1.199
    67   6 C    3.967 --    68 C    1.492    63 C    1.342   199 H    0.962
    68   6 C    3.932 --    67 C    1.492    66 C    1.309   200 H    0.960
    69   6 C    3.928 --    38 C    1.297    70 C    1.217    74 C    1.213
    70   6 C    3.934 --    71 C    1.608    69 C    1.217   182 H    0.959
    71   6 C    3.943 --    70 C    1.608    72 C    1.228   183 H    0.959
    72   6 C    3.922 --   103 C    1.288    71 C    1.228    75 C    1.200
    73   6 C    3.948 --    42 C    1.262    78 C    1.260    74 C    1.213
    74   6 C    3.948 --    75 C    1.307    69 C    1.213    73 C    1.213
    75   6 C    3.945 --    74 C    1.307    76 C    1.227    72 C    1.200
    76   6 C    3.956 --   107 C    1.256    79 C    1.253    75 C    1.227
    77   6 C    3.956 --    46 C    1.280    82 C    1.237    78 C    1.224
    78   6 C    3.957 --    73 C    1.260    79 C    1.250    77 C    1.224
    79   6 C    3.957 --    76 C    1.253    78 C    1.250    80 C    1.234
    80   6 C    3.958 --   111 C    1.283    79 C    1.234    83 C    1.227
    81   6 C    3.951 --    50 C    1.258    82 C    1.253    86 C    1.230
    82   6 C    3.956 --    83 C    1.254    81 C    1.253    77 C    1.237
    83   6 C    3.952 --    84 C    1.259    82 C    1.254    80 C    1.227
    84   6 C    3.953 --    83 C    1.259   115 C    1.252    87 C    1.231
    85   6 C    3.951 --    54 C    1.253    90 C    1.251    86 C    1.236
    86   6 C    3.956 --    87 C    1.277    85 C    1.236    81 C    1.230
    87   6 C    3.954 --    86 C    1.277    88 C    1.234    84 C    1.231
    88   6 C    3.958 --   119 C    1.259    91 C    1.251    87 C    1.234
    89   6 C    3.955 --    58 C    1.271    90 C    1.241    94 C    1.226
    90   6 C    3.959 --    91 C    1.253    85 C    1.251    89 C    1.241
    91   6 C    3.952 --    90 C    1.253    88 C    1.251    92 C    1.238
    92   6 C    3.960 --   123 C    1.266    95 C    1.240    91 C    1.238
    93   6 C    3.927 --    94 C    1.256    62 C    1.248    98 N    1.152
    94   6 C    3.958 --    95 C    1.258    93 C    1.256    89 C    1.226
    95   6 C    3.957 --    94 C    1.258    92 C    1.240    96 C    1.224
    96   6 C    3.966 --    99 C    1.273   127 C    1.243    95 C    1.224
    97   6 C    3.842 --   101 C    1.247    66 C    1.199    98 N    1.155
    98   7 N    3.691 --    99 C    1.173    97 C    1.155    93 C    1.152
    99   6 C    3.933 --    96 C    1.273   100 C    1.231    98 N    1.173
   100   6 C    3.938 --   131 C    1.307    99 C    1.231   102 C    1.184
   101   6 C    3.962 --   102 C    1.599    97 C    1.247   201 H    0.956
   102   6 C    3.906 --   101 C    1.599   100 C    1.184   202 H    0.959
   103   6 C    3.865 --    72 C    1.288   104 C    1.244   108 N    1.131
   104   6 C    3.948 --   105 C    1.577   103 C    1.244   184 H    0.957
   105   6 C    3.932 --   104 C    1.577   106 C    1.244   185 H    0.960
   106   6 C    3.914 --   109 C    1.315   105 C    1.244   137 C    1.155
   107   6 C    3.916 --   112 C    1.293    76 C    1.256   108 N    1.129
   108   7 N    3.635 --   109 C    1.156   103 C    1.131   107 C    1.129
   109   6 C    3.947 --   106 C    1.315   110 C    1.224   108 N    1.156
   110   6 C    3.959 --   113 C    1.272   141 C    1.228   109 C    1.224
   111   6 C    3.955 --    80 C    1.283   116 C    1.237   112 C    1.218
   112   6 C    3.946 --   107 C    1.293   111 C    1.218   113 C    1.213
   113   6 C    3.964 --   110 C    1.272   114 C    1.255   112 C    1.213
   114   6 C    3.965 --   145 C    1.268   113 C    1.255   117 C    1.218
   115   6 C    3.958 --    84 C    1.252   116 C    1.252   120 C    1.241
   116   6 C    3.952 --   117 C    1.252   115 C    1.252   111 C    1.237
   117   6 C    3.955 --   118 C    1.273   116 C    1.252   114 C    1.218
   118   6 C    3.949 --   117 C    1.273   121 C    1.245   149 C    1.221
   119   6 C    3.952 --    88 C    1.259   124 C    1.247   120 C    1.235
   120   6 C    3.959 --   121 C    1.267   115 C    1.241   119 C    1.235
   121   6 C    3.957 --   120 C    1.267   118 C    1.245   122 C    1.233
   122   6 C    3.957 --   125 C    1.268   153 C    1.239   121 C    1.233
   123   6 C    3.947 --    92 C    1.266   124 C    1.253   128 C    1.218
   124   6 C    3.956 --   123 C    1.253   119 C    1.247   125 C    1.243
   125   6 C    3.964 --   122 C    1.268   124 C    1.243   126 C    1.236
   126   6 C    3.967 --   157 C    1.280   125 C    1.236   129 C    1.228
   127   6 C    3.962 --   128 C    1.252    96 C    1.243   132 C    1.240
   128   6 C    3.972 --   129 C    1.273   127 C    1.252   123 C    1.218
   129   6 C    3.948 --   128 C    1.273   130 C    1.235   126 C    1.228
   130   6 C    3.973 --   133 C    1.319   129 C    1.235   161 C    1.189
   131   6 C    3.881 --   100 C    1.307   132 C    1.251   135 N    1.110
   132   6 C    3.972 --   133 C    1.261   131 C    1.251   127 C    1.240
   133   6 C    3.926 --   130 C    1.319   132 C    1.261   134 C    1.135
   134   6 C    3.951 --   136 C    1.519   133 C    1.135   165 C    1.112
   135   7 N    3.482 --   136 C    1.230   131 C    1.110   203 H    0.930
   136   6 C    3.912 --   134 C    1.519   135 N    1.230   204 H    0.959
   137   6 C    3.976 --   138 C    1.369   142 C    1.255   106 C    1.155
   138   6 C    3.925 --   139 C    1.415   137 C    1.369   186 H    0.963
   139   6 C    3.981 --   140 C    1.471   138 C    1.415   187 H    0.971
   140   6 C    3.932 --   139 C    1.471   143 C    1.314   188 H    0.970
   141   6 C    3.974 --   146 C    1.274   142 C    1.248   110 C    1.228
   142   6 C    3.972 --   137 C    1.255   141 C    1.248   143 C    1.242
   143   6 C    3.983 --   140 C    1.314   144 C    1.256   142 C    1.242
   144   6 C    3.934 --   147 C    1.465   143 C    1.256   189 H    0.966
   145   6 C    3.956 --   114 C    1.268   146 C    1.252   150 C    1.225
   146   6 C    3.945 --   141 C    1.274   145 C    1.252   147 C    1.191
   147   6 C    3.959 --   144 C    1.465   146 C    1.191   148 N    1.136
   148   7 N    3.480 --   151 C    1.149   147 C    1.136   190 H    0.939
   149   6 C    3.972 --   150 C    1.277   154 C    1.258   118 C    1.221
   150   6 C    3.943 --   149 C    1.277   145 C    1.225   151 C    1.214
   151   6 C    3.946 --   152 C    1.422   150 C    1.214   148 N    1.149
   152   6 C    3.929 --   151 C    1.422   155 C    1.297   191 H    0.966
   153   6 C    3.966 --   158 C    1.270   154 C    1.244   122 C    1.239
   154   6 C    3.960 --   149 C    1.258   153 C    1.244   155 C    1.234
   155   6 C    3.968 --   152 C    1.297   156 C    1.275   154 C    1.234
   156   6 C    3.930 --   159 C    1.446   155 C    1.275   192 H    0.966
   157   6 C    3.939 --   126 C    1.280   158 C    1.255   162 C    1.201
   158   6 C    3.943 --   153 C    1.270   157 C    1.255   159 C    1.196
   159   6 C    3.947 --   156 C    1.446   158 C    1.196   160 N    1.146
   160   7 N    3.477 --   159 C    1.146   163 C    1.139   193 H    0.939
   161   6 C    3.969 --   162 C    1.325   166 C    1.234   130 C    1.189
   162   6 C    3.947 --   161 C    1.325   157 C    1.201   163 C    1.199
   163   6 C    3.958 --   164 C    1.454   162 C    1.199   160 N    1.139
   164   6 C    3.940 --   163 C    1.454   167 C    1.270   194 H    0.966
   165   6 C    3.981 --   169 C    1.415   166 C    1.259   134 C    1.112
   166   6 C    3.972 --   165 C    1.259   167 C    1.250   161 C    1.234
   167   6 C    3.981 --   168 C    1.292   164 C    1.270   166 C    1.250
   168   6 C    3.959 --   170 C    1.505   167 C    1.292   195 H    0.969
   169   6 C    3.959 --   165 C    1.415   170 C    1.380   205 H    0.965
   170   6 C    3.982 --   168 C    1.505   169 C    1.380   196 H    0.971
   171   1 H    0.999 --     1 C    0.968
   172   1 H    0.998 --     2 C    0.971
   173   1 H    0.999 --     3 C    0.962
   174   1 H    0.971 --     5 N    0.938
   175   1 H    0.998 --     9 C    0.966
   176   1 H    0.998 --    13 C    0.966
   177   1 H    0.997 --    17 C    0.965
   178   1 H    0.997 --    25 C    0.967
   179   1 H    0.998 --    29 C    0.969
   180   1 H    0.997 --    36 C    0.960
   181   1 H    0.997 --    37 C    0.957
   182   1 H    0.998 --    70 C    0.959
   183   1 H    0.998 --    71 C    0.959
   184   1 H    0.997 --   104 C    0.957
   185   1 H    0.997 --   105 C    0.960
   186   1 H    0.999 --   138 C    0.963
   187   1 H    0.999 --   139 C    0.971
   188   1 H    0.998 --   140 C    0.970
   189   1 H    0.998 --   144 C    0.966
   190   1 H    0.972 --   148 N    0.939
   191   1 H    0.998 --   152 C    0.966
   192   1 H    0.998 --   156 C    0.966
   193   1 H    0.973 --   160 N    0.939
   194   1 H    0.998 --   164 C    0.966
   195   1 H    0.998 --   168 C    0.969
   196   1 H    0.998 --   170 C    0.971
   197   1 H    0.999 --    33 C    0.971
   198   1 H    0.999 --    34 C    0.964
   199   1 H    0.998 --    67 C    0.962
   200   1 H    0.999 --    68 C    0.960
   201   1 H    0.997 --   101 C    0.956
   202   1 H    0.999 --   102 C    0.959
   203   1 H    0.969 --   135 N    0.930
   204   1 H    0.997 --   136 C    0.959
   205   1 H    0.999 --   169 C    0.965
 ---------------------------------------------------------------------------

Topologies differ in total number of bonds
Writing topology from bond orders to xtbtopo.mol

molecular dipole:
                 x           y           z       tot (Debye)
 q only:       -3.442      -1.658       0.000
   full:       -4.082      -1.574       0.001      11.120
molecular quadrupole (traceless):
                xx          xy          yy          xz          yz          zz
 q only:      -29.326    -112.017      57.310       0.090       0.154     -27.983
  q+dip:        1.405    -123.927     102.951       0.094       0.196    -104.355
   full:      -28.262    -124.737      74.249       0.097       0.188     -45.988


           -------------------------------------------------
          | TOTAL ENERGY             -390.501468652805 Eh   |
          | GRADIENT NORM               0.000616805300 Eh/α |
          | HOMO-LUMO GAP               0.255048112544 eV   |
           -------------------------------------------------

------------------------------------------------------------------------
 * finished run on 2025/12/08 at 00:51:37.759     
------------------------------------------------------------------------
 total:
 * wall-time:     0 d,  0 h,  0 min,  0.623 sec
 *  cpu-time:     0 d,  0 h,  0 min,  8.938 sec
 * ratio c/w:    14.346 speedup
 SCF:
 * wall-time:     0 d,  0 h,  0 min,  0.527 sec
 *  cpu-time:     0 d,  0 h,  0 min,  7.906 sec
 * ratio c/w:    15.002 speedup

normal termination of xtb
