205
 energy: -390.473222566609 gnorm: 0.078464765002 xtb: 6.7.1pre (5071a88)
C           10.52927800000000       -7.83432000000000        0.00693600000000
C            9.92636700000000       -9.09810000000000        0.00720900000000
C            8.54814500000000       -9.24815700000000        0.00558900000000
C            7.69953600000000       -8.11417700000000        0.00366200000000
N           10.27013300000000       -5.43012300000000        0.00586100000000
C            9.71978300000000       -6.70082000000000        0.00571800000000
C            8.30306400000000       -6.82764800000000        0.00438600000000
C            7.49387000000000       -5.65175300000000        0.00384400000000
C           10.16341100000000       -3.02339800000000        0.00369100000000
C            9.54507300000000       -4.25905600000000        0.00441100000000
C            8.11245200000000       -4.37396900000000        0.00365800000000
C            7.33221800000000       -3.19566800000000        0.00291000000000
C            9.96542700000000       -0.55728300000000        0.00162900000000
C            9.40075100000000       -1.82516100000000        0.00256900000000
C            7.96098200000000       -1.91418400000000        0.00226600000000
C            7.17540000000000       -0.74772100000000        0.00140200000000
C            9.79595900000000        1.88696700000000       -0.00070400000000
C            9.20114400000000        0.62806200000000        0.00050000000000
N            7.78405900000000        0.51388800000000        0.00060100000000
C            7.01006800000000        1.69060700000000       -0.00009600000000
N            9.68914100000000        4.27713600000000       -0.00320300000000
C            9.06805900000000        3.09518200000000       -0.00177500000000
C            7.62626100000000        2.94941700000000       -0.00132400000000
C            6.83336600000000        4.13134900000000       -0.00187400000000
C            9.54681100000000        6.66952700000000       -0.00608000000000
C            8.92806500000000        5.42386800000000       -0.00434400000000
C            7.48441900000000        5.38943100000000       -0.00372900000000
C            6.71850500000000        6.58153700000000       -0.00470800000000
C            9.45343400000000        9.14570200000000       -0.00915600000000
C            8.81082400000000        7.88297200000000       -0.00746100000000
C            7.37266300000000        7.85005300000000       -0.00703700000000
C            6.61326000000000        9.06428400000000       -0.00866900000000
C            8.70880700000000       10.31345900000000       -0.01027600000000
C            7.30828800000000       10.28386500000000       -0.01002500000000
C            6.25581900000000       -8.21103900000000        0.00119500000000
C            5.59932300000000       -9.48396800000000       -0.00596600000000
C            4.24946800000000       -9.56250900000000       -0.00404400000000
C            3.40551600000000       -8.41210600000000        0.00547700000000
C            6.07807600000000       -5.75849700000000        0.00353400000000
C            5.46029300000000       -7.05332000000000        0.00305400000000
N            4.04691400000000       -7.13705600000000        0.00357800000000
C            3.25835000000000       -5.97018600000000        0.00339800000000
C            5.91506700000000       -3.30650700000000        0.00267700000000
C            5.29400300000000       -4.58157700000000        0.00308100000000
C            3.87404500000000       -4.69625700000000        0.00295400000000
C            3.07798300000000       -3.50990500000000        0.00109200000000
C            5.75293100000000       -0.84685300000000        0.00147100000000
C            5.12762500000000       -2.12272600000000        0.00158000000000
C            3.70816700000000       -2.22655700000000        0.00245000000000
C            2.91806200000000       -1.04673500000000       -0.00092700000000
C            5.59045700000000        1.59833400000000        0.00042100000000
C            4.95437700000000        0.32837200000000        0.00039700000000
C            3.54571200000000        0.23361800000000        0.00207400000000
C            2.75305800000000        1.42244200000000       -0.00134900000000
C            5.42136300000000        4.05656000000000       -0.00101900000000
C            4.80247300000000        2.78151400000000       -0.00031700000000
C            3.38031300000000        2.69307800000000        0.00127300000000
C            2.59391800000000        3.88357200000000       -0.00050800000000
C            5.28805800000000        6.50756600000000       -0.00354300000000
C            4.64098700000000        5.25235400000000       -0.00143600000000
C            3.21542900000000        5.16361500000000       -0.00010600000000
C            2.43307700000000        6.35144700000000       -0.00024300000000
C            5.15499700000000        8.98035500000000       -0.00881500000000
C            4.51284700000000        7.71025600000000       -0.00489500000000
C            3.08530600000000        7.62161700000000       -0.00287500000000
C            2.28333200000000        8.79415000000000       -0.00392900000000
C            4.32777800000000       10.12319900000000       -0.01404200000000
C            2.95227200000000       10.04662500000000       -0.01211700000000
C            2.01216900000000       -8.51432200000000        0.01285100000000
C            1.32515100000000       -9.78089600000000        0.02863100000000
C           -0.03105200000000       -9.86823200000000        0.02578200000000
C           -0.87541500000000       -8.70408700000000        0.00761500000000
C            1.83743900000000       -6.06592100000000        0.00381800000000
C            1.19098000000000       -7.33944900000000        0.00739500000000
C           -0.21318300000000       -7.43134500000000        0.00518300000000
C           -1.01790300000000       -6.25539800000000       -0.00017700000000
C            1.66700900000000       -3.60113700000000        0.00234900000000
C            1.04387400000000       -4.88372900000000        0.00075400000000
C           -0.38474700000000       -4.97849100000000        0.00078900000000
C           -1.17206300000000       -3.79128900000000       -0.00278000000000
C            1.50041900000000       -1.13831900000000        0.00300500000000
C            0.87399700000000       -2.41417800000000       -0.00250000000000
C           -0.54137600000000       -2.50777000000000        0.00202200000000
C           -1.32750600000000       -1.32582300000000       -0.00466900000000
C            1.33909200000000        1.33024400000000        0.00309300000000
C            0.71073200000000        0.04930400000000       -0.00373800000000
C           -0.69994100000000       -0.04602500000000        0.00347300000000
C           -1.49134500000000        1.14150500000000       -0.00452400000000
C            1.18173100000000        3.79575700000000        0.00154300000000
C            0.55260600000000        2.51654400000000       -0.00239400000000
C           -0.86437600000000        2.41786900000000        0.00279600000000
C           -1.65463800000000        3.60208500000000       -0.00183800000000
C            1.01131600000000        6.26130200000000        0.00101200000000
C            0.38464300000000        4.98536100000000        0.00008300000000
C           -1.02317700000000        4.87754100000000        0.00168100000000
C           -1.80350900000000        6.06551400000000        0.00173000000000
C            0.85689300000000        8.68886200000000        0.00317600000000
N            0.22889600000000        7.43222500000000        0.00250800000000
C           -1.17878100000000        7.34069900000000        0.00375300000000
C           -1.98078300000000        8.52381200000000        0.00679000000000
C            0.03459600000000        9.84735600000000        0.01347800000000
C           -1.31848400000000        9.79237000000000        0.01518900000000
C           -2.27204600000000       -8.78481200000000       -0.00604000000000
C           -2.95574200000000      -10.03589100000000       -0.02480900000000
C           -4.30623800000000      -10.13112600000000       -0.02812200000000
C           -5.12473400000000       -8.96168800000000       -0.01362600000000
C           -2.44069700000000       -6.34489400000000       -0.00261000000000
N           -3.07370300000000       -7.61155000000000       -0.00585400000000
C           -4.48671700000000       -7.71030400000000       -0.00779200000000
C           -5.26975300000000       -6.50913500000000       -0.00503000000000
C           -2.58257600000000       -3.88773700000000       -0.00049600000000
C           -3.21698000000000       -5.16893100000000       -0.00315100000000
C           -4.64692800000000       -5.24532800000000       -0.00330400000000
C           -5.42589700000000       -4.05896600000000       -0.00287600000000
C           -2.74717500000000       -1.41968900000000        0.00196000000000
C           -3.37461000000000       -2.69541700000000       -0.00378500000000
C           -4.79239600000000       -2.77722500000000       -0.00055000000000
C           -5.57848400000000       -1.59733600000000       -0.00274300000000
C           -2.90582000000000        1.04763400000000        0.00310900000000
C           -3.53588200000000       -0.23268400000000       -0.00463300000000
C           -4.95091000000000       -0.32222100000000        0.00164200000000
C           -5.74318700000000        0.86576300000000       -0.00215800000000
C           -3.06967700000000        3.50751600000000        0.00239400000000
C           -3.69504300000000        2.23124000000000       -0.00302900000000
C           -5.11621200000000        2.13742600000000        0.00198500000000
C           -5.90483500000000        3.32456400000000       -0.00009900000000
C           -3.22625500000000        5.97068100000000        0.00241500000000
C           -3.86115800000000        4.69608500000000        0.00017000000000
C           -5.27597200000000        4.60604800000000        0.00183000000000
C           -6.07213600000000        5.78846600000000        0.00199500000000
C           -3.38593700000000        8.40173100000000        0.00406100000000
C           -4.03129800000000        7.14434600000000        0.00267000000000
C           -5.45476600000000        7.05128800000000        0.00263300000000
C           -6.24759300000000        8.26448900000000        0.00340800000000
N           -4.20896800000000        9.52217400000000        0.00346200000000
C           -5.56706300000000        9.45705400000000        0.00277700000000
C           -6.57425200000000       -9.06095600000000       -0.00957000000000
C           -7.25385400000000      -10.29391400000000       -0.00782900000000
C           -8.64956900000000      -10.34095600000000       -0.00570800000000
C           -9.41292900000000       -9.18102400000000       -0.00490500000000
C           -6.69857000000000       -6.59887600000000       -0.00544800000000
C           -7.35102900000000       -7.86417500000000       -0.00666600000000
C           -8.78478200000000       -7.91827500000000       -0.00499900000000
C           -9.53630300000000       -6.70718200000000       -0.00314100000000
C           -6.84036500000000       -4.14207400000000       -0.00236400000000
C           -7.47125200000000       -5.40646800000000       -0.00340500000000
C           -8.90553000000000       -5.48363700000000       -0.00270600000000
N           -9.61859400000000       -4.29150700000000       -0.00102800000000
C           -7.00867800000000       -1.68266300000000       -0.00016000000000
C           -7.62857400000000       -2.95029600000000       -0.00132400000000
C           -9.05134600000000       -3.03056000000000       -0.00065500000000
C           -9.82684100000000       -1.87488400000000        0.00053400000000
C           -7.16438600000000        0.77289200000000        0.00105000000000
C           -7.79707500000000       -0.50177100000000       -0.00037100000000
C           -9.22560600000000       -0.59260200000000        0.00069200000000
C           -9.98860200000000        0.61005700000000        0.00174000000000
C           -7.31661900000000        3.22921900000000        0.00144100000000
C           -7.94149700000000        1.95706700000000        0.00092400000000
C           -9.37208900000000        1.85059300000000        0.00168300000000
N          -10.09516400000000        3.03048000000000        0.00255800000000
C           -7.50962200000000        5.69051300000000        0.00220900000000
C           -8.11379100000000        4.41957400000000        0.00216600000000
C           -9.54247800000000        4.30490100000000        0.00238600000000
C          -10.32751900000000        5.43895500000000        0.00315500000000
C           -7.71307500000000        8.17486600000000        0.00386900000000
C           -8.31335100000000        6.87466800000000        0.00327100000000
C           -9.74076800000000        6.73580300000000        0.00349900000000
C          -10.53781300000000        7.90590300000000        0.00448900000000
C           -8.54858800000000        9.29491100000000        0.00527900000000
C           -9.94463800000000        9.15508300000000        0.00541100000000
H           11.61068200000000       -7.73388500000000        0.00790900000000
H           10.55741800000000       -9.98241400000000        0.00882200000000
H            8.13640100000000      -10.24924800000000        0.00691700000000
H           11.27999900000000       -5.35733300000000        0.00667000000000
H           11.24788800000000       -2.95875400000000        0.00408400000000
H           11.04425100000000       -0.44276800000000        0.00168100000000
H           10.87963300000000        1.92885500000000       -0.00087800000000
H           10.63304500000000        6.70833400000000       -0.00631300000000
H           10.53991800000000        9.18383100000000       -0.00938800000000
H            6.17796900000000      -10.39794800000000       -0.01558000000000
H            3.78130100000000      -10.53589200000000       -0.01352300000000
H            1.88654000000000      -10.70589700000000        0.04863600000000
H           -0.46745500000000      -10.85854100000000        0.04462900000000
H           -2.36573000000000      -10.94035200000000       -0.04137600000000
H           -4.75871500000000      -11.11378900000000       -0.04571700000000
H           -6.70889000000000      -11.22990100000000       -0.00640000000000
H           -9.14426800000000      -11.30894400000000       -0.00435400000000
H          -10.49832700000000       -9.23396100000000       -0.00357300000000
H          -10.62192900000000       -6.76224600000000       -0.00214800000000
H          -10.62873700000000       -4.35446700000000       -0.00040600000000
H          -10.91090100000000       -1.95416000000000        0.00065300000000
H          -11.07377000000000        0.54709700000000        0.00193000000000
H          -11.10502000000000        2.96126600000000        0.00235500000000
H          -11.41108300000000        5.35325800000000        0.00331500000000
H          -11.62011700000000        7.80794100000000        0.00462100000000
H          -10.56451200000000       10.04767500000000        0.00641600000000
H            9.21613000000000       11.27523400000000       -0.01129000000000
H            6.77158100000000       11.22572800000000       -0.01046200000000
H            4.77424300000000       11.11108900000000       -0.02072300000000
H            2.39670100000000       10.97474300000000       -0.01906600000000
H            0.51602600000000       10.81350600000000        0.02255900000000
H           -1.87404400000000       10.72220000000000        0.02584300000000
H           -3.79316000000000       10.44187300000000       -0.00079600000000
H           -6.05759300000000       10.42117200000000        0.00178300000000
H           -8.13106600000000       10.29611500000000        0.00637900000000
205
 energy: -390.489532348112 gnorm: 0.041287947756 xtb: 6.7.1pre (5071a88)
C           10.50670182804442       -7.81934752684422        0.00690892998899
C            9.91027274940839       -9.07708925534349        0.00724273602776
C            8.54000734903521       -9.22343024982375        0.00570015619839
C            7.68890712132224       -8.09797810927046        0.00364084036398
N           10.25195969727128       -5.42492457901159        0.00579576525825
C            9.70161137815087       -6.68832558669201        0.00569787067747
C            8.28960537339033       -6.81620078281430        0.00439425830552
C            7.48065462912504       -5.64309450905429        0.00377929433245
C           10.13846651600139       -3.02265590311150        0.00370803669252
C            9.52645323694584       -4.25512816229792        0.00437006946162
C            8.09831467692841       -4.36774787269314        0.00366873991745
C            7.31998011057313       -3.18882386770860        0.00287929218955
C            9.94162321007786       -0.55597395799888        0.00161396826564
C            9.38032671689671       -1.82223583358278        0.00253847587657
C            7.94503536160447       -1.91000584267357        0.00227802373335
C            7.16598490565995       -0.73923177807476        0.00141259967167
C            9.77275404521029        1.88404355791947       -0.00070850097708
C            9.17578879580937        0.63104698233375        0.00050551264891
N            7.76898133624477        0.51482049663046        0.00062281966654
C            7.00043296260444        1.68335400627152       -0.00008290684433
N            9.65574093386312        4.27117890369172       -0.00320577235170
C            9.04529100166301        3.09492531835528       -0.00180644077573
C            7.60886844017938        2.94414487575802       -0.00125774111567
C            6.81950988046508        4.12563897856660       -0.00192133374365
C            9.52522865741584        6.65804337205221       -0.00602931904929
C            8.90621989979964        5.41441384792803       -0.00430918649423
C            7.46846008468242        5.38143984457853       -0.00367237801481
C            6.70730711837492        6.57196113412592       -0.00478517202012
C            9.43224895825142        9.12352627743028       -0.00911186176471
C            8.79145976184884        7.86506506559419       -0.00739022578953
C            7.36048214586629        7.83339257931587       -0.00697927106440
C            6.60575756900529        9.04290947822638       -0.00868273768836
C            8.69469966062583       10.28484788081012       -0.01019311188164
C            7.30169206611134       10.25428491248714       -0.00995577217885
C            6.24887779771896       -8.19264106409158        0.00119899617206
C            5.59508528123516       -9.46011550748541       -0.00622091206851
C            4.24634313105988       -9.53559270352440       -0.00439112121726
C            3.40696128684637       -8.38711934707424        0.00534701663060
C            6.06775651058550       -5.75120310664134        0.00351337231969
C            5.44614704812245       -7.03967295392349        0.00307782182946
N            4.04323369889769       -7.12300643350301        0.00376193490097
C            3.25746797403136       -5.96554300124880        0.00353854772093
C            5.90580371989794       -3.30013054581228        0.00266451287528
C            5.28587446681769       -4.57338243292489        0.00307289993321
C            3.86881509350116       -4.69016036254461        0.00288182353302
C            3.07390456631956       -3.50431567143396        0.00159360662567
C            5.74645609935794       -0.84478592014109        0.00143656645694
C            5.12034427134727       -2.11829260873240        0.00176817478261
C            3.70269072700624       -2.22339000559779        0.00180732760344
C            2.91300038071396       -1.04513226438825        0.00030545278105
C            5.58206356129793        1.59661610544829        0.00036927381236
C            4.94622608437140        0.32883212063910        0.00064012519894
C            3.53917448248504        0.23358220432362        0.00112316698087
C            2.74858394298146        1.42055480820000       -0.00010975539867
C            5.40995775405855        4.05085752745548       -0.00102176017901
C            4.79414426984488        2.77805772691188       -0.00014774927809
C            3.37458570649183        2.68973398300258        0.00060073231871
C            2.59018710552050        3.87863036437675        0.00000582056443
C            5.28096440873630        6.49742965712809       -0.00350115086716
C            4.63389906112025        5.24490696432647       -0.00146506654295
C            3.21069974131687        5.15709617446059       -0.00023390187822
C            2.42943764486727        6.34198706064230       -0.00028600244168
C            5.15209975833890        8.96107394308800       -0.00877067097162
C            4.50795954032084        7.69592727960670       -0.00487972307385
C            3.08533309893407        7.60781616837657       -0.00280412412932
C            2.28322947315000        8.77639467971614       -0.00382214015664
C            4.32760631802762       10.09726931666169       -0.01410647013928
C            2.95537116859319       10.01924195787292       -0.01215242420309
C            2.01027490791216       -8.49412601220601        0.01271438231092
C            1.32171498871788       -9.75134981205369        0.02889617197860
C           -0.03152975255536       -9.83903924374601        0.02613594358679
C           -0.87665235032166       -8.68437403674653        0.00730664123243
C            1.83749615098157       -6.05531670386381        0.00363335686688
C            1.18935505903310       -7.32471216242084        0.00718293870703
C           -0.21394276998118       -7.41642434184851        0.00508863191097
C           -1.02015627563603       -6.24515325193230       -0.00005892622134
C            1.66429572055916       -3.59635883352220        0.00134760367133
C            1.04123619311370       -4.87772693460950        0.00114433623589
C           -0.38414422023692       -4.97223025496641        0.00016840191233
C           -1.17094821489947       -3.78646340771488       -0.00159946132617
C            1.49781236476510       -1.13704558482140        0.00098828976428
C            0.87252720575740       -2.41166896508125       -0.00071311486950
C           -0.54160734138676       -2.50537317641767        0.00003986710793
C           -1.32706535900443       -1.32462850279987       -0.00203378425549
C            1.33555610865685        1.32872776918247        0.00098887320650
C            0.70899329134630        0.04934535150724       -0.00112903730565
C           -0.70039661562586       -0.04609794615565        0.00054295980213
C           -1.49009990737911        1.13962862430503       -0.00165370922764
C            1.17954454047798        3.79142030130366        0.00069302490232
C            0.55088269253717        2.51377203977968       -0.00061510617380
C           -0.86425498671801        2.41466031539720        0.00069497150965
C           -1.65356530568518        3.59704822961538       -0.00040812641290
C            1.00754796891723        6.25752239766894        0.00089049503686
C            0.38587523755092        4.98032621417032        0.00038074296621
C           -1.02270115285100        4.87087585598524        0.00115653194175
C           -1.80152732111951        6.05931371641545        0.00186767119064
C            0.85566227882131        8.66456609870152        0.00310662663623
N            0.22859801255446        7.41793589884641        0.00239171781216
C           -1.16853616868726        7.32758829836632        0.00364878329158
C           -1.97950062508005        8.50333736033034        0.00675629931144
C            0.03661161108601        9.82100906670670        0.01359164986484
C           -1.31591611788809        9.76827913762422        0.01525307772248
C           -2.27715536376984       -8.76037161742416       -0.00608378345409
C           -2.95690853138084      -10.00896507757939       -0.02511679241571
C           -4.30613739730536      -10.10761597626760       -0.02835176215694
C           -5.12045547159929       -8.94314302432621       -0.01350479519697
C           -2.44114294926140       -6.34076819096930       -0.00241859918228
N           -3.07198727729606       -7.59732022745355       -0.00550846045610
C           -4.47434570461637       -7.69519260830510       -0.00760470978080
C           -5.26073369408899       -6.50104800704578       -0.00505525034926
C           -2.58006771327484       -3.88193626990876       -0.00135239459250
C           -3.21347448362909       -5.16231211425650       -0.00286798972028
C           -4.63973858323164       -5.23649006277436       -0.00328576881955
C           -5.41709033128159       -4.05188507568328       -0.00265109635049
C           -2.74396637407903       -1.41794350678246       -0.00042100842126
C           -3.37003502515294       -2.69232852202228       -0.00228623950103
C           -4.78573882441776       -2.77301295776712       -0.00137347797426
C           -5.57040492328212       -1.59459733652651       -0.00167422092784
C           -2.90306108216771        1.04565226691511        0.00040172618907
C           -3.53138384121955       -0.23259272094078       -0.00199589521188
C           -4.94408395610707       -0.32138226387727       -0.00015812036786
C           -5.73433968932618        0.86412942939146       -0.00078799888798
C           -3.06634920380416        3.50200471588642        0.00098428839985
C           -3.69088518946787        2.22791373398393       -0.00095705442400
C           -5.10906668228142        2.13426743696678        0.00062347707574
C           -5.89607250880048        3.31921232803599        0.00051796718815
C           -3.22347499539119        5.96089211262180        0.00219577631211
C           -3.85690998355393        4.68889630580639        0.00086766079561
C           -5.26938529678413        4.59810469233084        0.00148497739045
C           -6.06525875130691        5.77788196067387        0.00201897526084
C           -3.38297558462948        8.38558451420298        0.00415864066129
C           -4.02870203958258        7.13027650027310        0.00271193696575
C           -5.44873515309388        7.03690129308198        0.00269562246250
C           -6.24309345082054        8.24842714773969        0.00332369495954
N           -4.20559232685997        9.50379270136564        0.00340285213232
C           -5.56282049291999        9.43614190249713        0.00270277841774
C           -6.56634443891420       -9.04263813385370       -0.00955917168135
C           -7.24823488659209      -10.26758517587629       -0.00764961596480
C           -8.63565927091919      -10.31584171478204       -0.00556186201525
C           -9.39144114105877       -9.16180131098251       -0.00490126337935
C           -6.68608860424754       -6.58924764655606       -0.00540555311389
C           -7.33796851364418       -7.84959551417488       -0.00665440852216
C           -8.76419757274017       -7.90429791097462       -0.00495759501284
C           -9.51173425732098       -6.69716788992416       -0.00314454708984
C           -6.82776450129603       -4.13542636805112       -0.00237187318438
C           -7.45670848055451       -5.39991740757862       -0.00348344493712
C           -8.88573705049239       -5.47441035838259       -0.00268276987109
N           -9.59824393553367       -4.28682808333491       -0.00106577256497
C           -6.99569028349358       -1.67949892298417       -0.00061354712862
C           -7.61398550504595       -2.94642470177523       -0.00132910393184
C           -9.03291642540431       -3.02847513109258       -0.00067183791109
C           -9.80194883540537       -1.87343390532613        0.00035018099334
C           -7.15239280462898        0.77122429752878        0.00051720212379
C           -7.78326235473303       -0.50102750669589       -0.00010794289109
C           -9.20574728950579       -0.59191448920687        0.00068090494427
C           -9.96330692553013        0.60973740499855        0.00153265323173
C           -7.30433674692574        3.22408690220598        0.00137740897639
C           -7.92798838013859        1.95351791961795        0.00095534180183
C           -9.35304552181855        1.84927459912596        0.00166508534156
N          -10.07477603642237        3.02678388261026        0.00248757584663
C           -7.49740510895502        5.68039299276448        0.00232439015929
C           -8.09956481729399        4.41190701154958        0.00204322443295
C           -9.52239566069948        4.29601527284613        0.00246088053911
C          -10.30189145664820        5.43110448051697        0.00312319504141
C           -7.70248131501313        8.15443215500480        0.00387314944171
C           -8.29870166115588        6.85976077312799        0.00320794245365
C           -9.71855294097478        6.72328395780048        0.00352932304298
C          -10.51317778016470        7.88930404988860        0.00449248932340
C           -8.53739387483609        9.26888291532490        0.00524892828158
C           -9.92578199200737        9.13157194433485        0.00542092420230
H           11.58478861452156       -7.72364190328320        0.00788126981325
H           10.54027590832986       -9.95837719374220        0.00878196856906
H            8.13505155389841      -10.22339122798562        0.00685583269302
H           11.26102807845274       -5.35390781877375        0.00661208207488
H           11.21953421019509       -2.95695592727183        0.00411477635147
H           11.01742337874548       -0.44384782714988        0.00167865000168
H           10.85266115856393        1.92910835961346       -0.00085853987932