205
 energy: -390.501468652343 gnorm: 0.000614781702 xtb: 6.7.1pre (5071a88)
C           10.45687354225688       -7.77743727181774        0.00696159856613
C            9.86288949449533       -9.03259406178440        0.00743042147760
C            8.49525580543879       -9.17636056217240        0.00579941887504
C            7.64831138417274       -8.05416817108691        0.00352338185882
N           10.20876672951230       -5.39424848443103        0.00559080666247
C            9.65576323562221       -6.64750241950776        0.00563000591967
C            8.24850239736259       -6.77765341735224        0.00433287088508
C            7.44066815975784       -5.60980581171868        0.00370298552690
C           10.09229706393840       -3.00380821585165        0.00375795341968
C            9.48145218250109       -4.22991152932535        0.00429606706518
C            8.05896900432950       -4.34193080394748        0.00365099446554
C            7.28258712886604       -3.16663034426494        0.00294957099572
C            9.89693304555169       -0.55030165556871        0.00166525814459
C            9.33492250040978       -1.80860844810454        0.00259726938867
C            7.90466719748295       -1.89772919208255        0.00237767670654
C            7.13019900172939       -0.72753649266244        0.00156991505426
C            9.72995331914162        1.86992986930414       -0.00065604782445
C            9.12418063196445        0.63000701790063        0.00058275160273
N            7.72950762719734        0.51265850390964        0.00077151761591
C            6.96584120850493        1.66697501708915        0.00010017207831
N            9.60833668440550        4.24400833451215       -0.00315727993482
C            9.00109112298874        3.07718156027316       -0.00171577059469
C            7.56925367018742        2.92412716447907       -0.00107127022612
C            6.78336577321287        4.09933032540013       -0.00177416838922
C            9.48602925890245        6.61572150475789       -0.00595377696974
C            8.86427932367424        5.37830381876362       -0.00422107364766
C            7.43158351090863        5.34754436285382       -0.00352986743406
C            6.67272933147192        6.53245635213511       -0.00472749105317
C            9.39338031152587        9.06585365619468       -0.00901547887319
C            8.75056219421051        7.81315887277806       -0.00730898165139
C            7.32590967186085        7.78456095337897       -0.00691447970358
C            6.57525503463021        8.99009315470800       -0.00869497288479
C            8.66025526584186       10.22493706053787       -0.01007781879275
C            7.26915465566449       10.19540992104399       -0.00989914548068
C            6.21573751875685       -8.14925869883198        0.00089621722397
C            5.56886457716031       -9.41214425669112       -0.00703462845637
C            4.21961548474665       -9.48334614781930       -0.00509543381850
C            3.39666678955735       -8.33227920044552        0.00517423561412
C            6.03421753394771       -5.72008986180032        0.00354201860229
C            5.40861014039291       -6.99829283605816        0.00298504656886
N            4.02121101987852       -7.08204312319383        0.00376188138921
C            3.24274261303800       -5.93590628424834        0.00347721487168
C            5.87438191378820       -3.27818517020218        0.00275415968674
C            5.25573862437024       -4.54431291705168        0.00320652676534
C            3.84784896114930       -4.66145561205430        0.00277309466225
C            3.05625073079814       -3.48181382109005        0.00166709324187
C            5.71775454545478       -0.83840015255141        0.00148662292931
C            5.09227045801328       -2.10374813517791        0.00198355384394
C            3.68138824290270       -2.20941110265562        0.00147526898472
C            2.89403934427801       -1.03800130099857        0.00068226694819
C            5.55170655921002        1.58764198697265        0.00040623563130
C            4.91695498178429        0.32824245301483        0.00089606640001
C            3.51694856030858        0.23344061062990        0.00066344042531
C            2.73105878415193        1.41258421581017        0.00031082627462
C            5.37842070585356        4.02715909716935       -0.00092804836070
C            4.76618874519443        2.76168466795375        0.00003396449669
C            3.35401903015130        2.67462575569135        0.00025414209669
C            2.57428357364174        3.85686372537691        0.00017546498263
C            5.25304251392485        6.46028129557289       -0.00341103634757
C            4.60722563984844        5.21458241458769       -0.00137381709550
C            3.19079060733093        5.12942119006660       -0.00032561185954
C            2.41427981941808        6.30806495260962       -0.00032016941283
C            5.12838102848084        8.91343095641579       -0.00880829378815
C            4.48416425050086        7.65300038603848       -0.00484120466304
C            3.07039561327209        7.56748415790199       -0.00279216548961
C            2.27248813885928        8.73415569442721       -0.00378802254159
C            4.31161795614367       10.04716371831527       -0.01410417094590
C            2.94049320847549        9.96958022568421       -0.01196153648335
C            1.99704525918199       -8.44746652095837        0.01283591530031
C            1.31884924880015       -9.69738567950237        0.02973750416507
C           -0.03460571722696       -9.78573703257844        0.02682032604697
C           -0.86914973696787       -8.63768724212599        0.00726903164410
C            1.82883106241948       -6.01903186706478        0.00300216392706
C            1.18463956527259       -7.28307020314288        0.00677025251457
C           -0.21484563286058       -7.37461860672411        0.00468561163217
C           -1.01726377014893       -6.20917096536895       -0.00026861296980
C            1.65322184582537       -3.57336445032987        0.00049943242025
C            1.03331616376308       -4.84979160706603        0.00072478812414
C           -0.38176250176262       -4.94377673040058       -0.00053670990377
C           -1.16507226066054       -3.76333621106055       -0.00129207791086
C            1.48783870578266       -1.12897901546220        0.00000653510319
C            0.86640134757808       -2.39707987079600       -0.00034891557944
C           -0.54089297250922       -2.49054316335690       -0.00098339357378
C           -1.32260998982627       -1.31626023641071       -0.00101286031144
C            1.32469991337784        1.32235917414026        0.00002988462957
C            0.70272159202855        0.05073089870386       -0.00028121174784
C           -0.69915726389108       -0.04439313868239       -0.00062078501166
C           -1.48376636517086        1.13360158598341       -0.00050835531038
C            1.17044431039296        3.77204276066214        0.00016307829260
C            0.54502471157389        2.50105707120760       -0.00004767080968
C           -0.86166507344848        2.40196007779357       -0.00017592070350
C           -1.64637055055289        3.57825783777865        0.00019919285972
C            0.99739777548584        6.23037913626401        0.00062296003061
C            0.38407923201636        4.95508475014870        0.00042582732320
C           -1.01920469182674        4.84544818854272        0.00069196474551
C           -1.79212655074091        6.03124199999910        0.00190683947645
C            0.84831883414762        8.61601336270938        0.00296197278161
N            0.22633691829372        7.38001719259892        0.00226570781376
C           -1.15424001667071        7.29152077499169        0.00349910892379
C           -1.96952987377523        8.46216814785737        0.00672729897734
C            0.04085007952645        9.77518899615420        0.01319828873459
C           -1.30955313340257        9.72604965835114        0.01499952366172
C           -2.27369323223373       -8.70626197064619       -0.00622768794056
C           -2.93584748247107       -9.95520161906055       -0.02584968152277
C           -4.28577377310144      -10.05879048677254       -0.02905862070431
C           -5.09166288239989       -8.89935044408239       -0.01354436138536
C           -2.43126467068187       -6.31119621318679       -0.00217255420398
N           -3.05549058154466       -7.55539377606706       -0.00512408530545
C           -4.44118354058954       -7.65065632131976       -0.00728033839469
C           -5.23103883453238       -6.46827763234845       -0.00461610268683
C           -2.56738631859284       -3.85829057420646       -0.00149263572456
C           -3.19792919822803       -5.13277838739121       -0.00217713591470
C           -4.61371483333549       -5.20538935823762       -0.00275389192739
C           -5.38961066391049       -4.02745037001988       -0.00208545562025
C           -2.73019270400255       -1.40904449366145       -0.00108389688067
C           -3.35260274457012       -2.67748572220408       -0.00135386770075
C           -4.76157825668599       -2.75691175436492       -0.00138303556063
C           -5.54444950104790       -1.58594528972008       -0.00093457347937
C           -2.88962992471343        1.03954339298825       -0.00047247459499
C           -3.51434409935838       -0.23088796811237       -0.00080161497036
C           -4.91980868043163       -0.31911566414085       -0.00059545741015
C           -5.70660859802560        0.85766996877627       -0.00006959810398
C           -3.05098695407395        3.48280151763589        0.00046881031944
C           -3.67312657477198        2.21525087420175        0.00000771280642
C           -5.08302087481880        2.12127133022781        0.00025761579726
C           -5.86634431954483        3.29940635908378        0.00086656401209
C           -3.20662255369859        5.93045380494930        0.00205542491351
C           -3.83618859714757        4.66425701708559        0.00120949748227
C           -5.24190482361230        4.57167669853817        0.00133218862520
C           -6.03496194148636        5.74510172506350        0.00201249909238
C           -3.36535915371426        8.34778370981421        0.00431822019764
C           -4.00866664774554        7.09450463516184        0.00273379746077
C           -5.41974345941693        6.99957211935159        0.00260855512339
C           -6.21126612314366        8.20863190939910        0.00323366479144
N           -4.18178764448064        9.46595757805084        0.00358683437182
C           -5.53507799340950        9.39458909346113        0.00298390285040
C           -6.53031107564602       -8.99673795527757       -0.00936231498287
C           -7.20865161668942      -10.21705764548760       -0.00724187767420
C           -8.59381778039124      -10.26638235413735       -0.00511840172566
C           -9.34695444712146       -9.11529835329246       -0.00466425234665
C           -6.64996280844737       -6.55389922037894       -0.00519219777346
C           -7.29970295585388       -7.80826332908444       -0.00644889568851
C           -8.71909895997166       -7.86240048937330       -0.00479557534478
C           -9.46684724367208       -6.66328997458334       -0.00312630213973
C           -6.79335367450638       -4.11105333941579       -0.00224983134407
C           -7.42005723430041       -5.37277981656168       -0.00342748218506
C           -8.84260841211303       -5.44334251173086       -0.00275499775827
N           -9.55774699615836       -4.26683680477355       -0.00138069268863
C           -6.96076538137434       -1.67104300926952       -0.00070652545270
C           -7.57876642609798       -2.93249356338301       -0.00125998077440
C           -8.99406944438979       -3.01562220862409       -0.00087859621187
C           -9.76098519066124       -1.86731505622400        0.00005721976152
C           -7.11832669938925        0.76408583082462        0.00029795616976
C           -7.74859067128245       -0.50063930396003        0.00000301517586
C           -9.16497462205424       -0.59184765607323        0.00043862093305
C           -9.92118009551056        0.60092220594297        0.00119968598733
C           -7.26787455846689        3.20313430444691        0.00120888004185
C           -7.89299853235065        1.93876502874873        0.00094727091091
C           -9.31178422325417        1.83597000357875        0.00141005325007
N          -10.03384158341517        3.00492068448505        0.00207897098937
C           -7.45864040088877        5.64587125667411        0.00225881080638
C           -8.06143484944899        4.38277464945375        0.00190800796047
C           -9.47832162071557        4.26408203793182        0.00234900837388
C          -10.25384901186268        5.39728511270695        0.00309466452754
C           -7.66126880865741        8.10836170674353        0.00369241751323
C           -8.25590214151601        6.81925574344181        0.00310401048737
C           -9.66937029468575        6.68248849208335        0.00353316864220
C          -10.46334282080973        7.84320910199846        0.00452745114232
C           -8.49293056199291        9.21982809886555        0.00492910254378
C           -9.87814468766452        9.08312970581461        0.00527281915663
H           11.53222321837048       -7.67740292432746        0.00793697519731
H           10.49064335093935       -9.91139167478373        0.00914393799519
H            8.08863292514487      -10.17337295970817        0.00702979089640
H           11.21614281627490       -5.32167316275200        0.00639679640070
H           11.17019127103617       -2.93299883550484        0.00419494078024
H           10.96886511675584       -0.43615324707489        0.00168243016923
H           10.80563604654797        1.92096465421618       -0.00086941900459
H           10.56440167122846        6.65487901916723       -0.00631456350761
H           10.47321296555362        9.09728813430476       -0.00931529782981
H            6.14585340200650      -10.31946666851574       -0.01628185213611
H            3.74885776911458      -10.44928682506594       -0.01386461454400
H            1.87782779255051      -10.61734181945730        0.04924267428420
H           -0.46775138174152      -10.77148525898487        0.04466688232926
H           -2.34408058796337      -10.85182077827626       -0.04132525192649
H           -4.73608542407604      -11.03556206647298       -0.04581762464341
H           -6.67225298585977      -11.15143849389299       -0.00612883317792
H           -9.08516740982122      -11.22897597132557       -0.00377786326465
H          -10.42588250754283       -9.16416844165209       -0.00356333892549
H          -10.54599942620757       -6.72382257626153       -0.00207975213406
H          -10.56544178209657       -4.33442724715455       -0.00085360099055
H          -10.83959837119269       -1.94406117005288        0.00044296431171
H          -11.00060955137934        0.53533770510642        0.00158975757574
H          -11.04173812157636        2.93875331080109        0.00242519945264
H          -11.33208112527658        5.31780588839363        0.00344966256720
H          -11.53889300430871        7.74268475652655        0.00479870128611
H          -10.49399544773893        9.97108959752270        0.00618608136523
H            9.16383489584224       11.18179530727941       -0.01107483989557
H            6.74165003372289       11.13600319920424       -0.01046269139932
H            4.75632376567985       11.02934533103377       -0.02052589168631
H            2.39249861771544       10.89687804431718       -0.01801680933863
H            0.52532937211004       10.73415466127363        0.02111535177135
H           -1.86937038890285       10.64746409902355        0.02473029303565
H           -3.74791982008877       10.37477636890869        0.00136662351480
H           -6.03642047543599       10.34879676410697        0.00242296815282
H           -8.07966335503115       10.21606569515597        0.00571287470205
