74
 energy: -126.099742222596 gnorm: 0.034322490824 xtb: 6.7.1pre (5071a88)
C           -3.71009500000000        1.43137600000000        0.00000000000000
C           -1.23301800000000        1.42861800000000        0.00000000000000
C            1.23301700000000        1.42861700000000        0.00000000000000
C            3.71009600000000        1.43137500000000        0.00000000000000
C            4.89761300000000        3.64401800000000        0.00000000000000
C           -4.89761300000000        3.64401700000000        0.00000000000000
C           -2.46576800000000        3.58308800000000        0.00000000000000
C            0.00000100000000        3.56680700000000        0.00000000000000
C            2.46576900000000        3.58308700000000        0.00000000000000
C            3.68254800000000        5.73286300000000        0.00000000000000
C           -3.68254800000000        5.73286300000000        0.00000000000000
C           -1.22444900000000        5.70125500000000        0.00000000000000
C            1.22444800000000        5.70125400000000        0.00000000000000
C           -4.87908400000000       -5.04757400000000        0.00000000000000
C           -2.45082400000000       -5.02433100000000        0.00000000000000
C            0.00000000000000       -5.01377000000000        0.00000000000000
C            2.45082300000000       -5.02432900000000        0.00000000000000
C            4.87908400000000       -5.04757500000000        0.00000000000000
C           -3.71372700000000       -2.89302100000000        0.00000000000000
C           -1.23339400000000       -2.86246100000000        0.00000000000000
C            1.23339400000000       -2.86246100000000        0.00000000000000
C            3.71372700000000       -2.89302200000000        0.00000000000000
C           -4.90132100000000       -0.69115000000000        0.00000000000000
C           -2.47481700000000       -0.71776900000000        0.00000000000000
C            0.00000000000000       -0.72069200000000        0.00000000000000
C            2.47481700000000       -0.71776800000000        0.00000000000000
C            4.90132100000000       -0.69115100000000        0.00000000000000
C           -3.71372700000000        2.89302100000000        0.00000000000000
C           -1.23339400000000        2.86246100000000        0.00000000000000
C            1.23339400000000        2.86246100000000        0.00000000000000
C            3.71372700000000        2.89302100000000        0.00000000000000
C            4.87908400000000        5.04757500000000        0.00000000000000
C           -4.87908400000000        5.04757500000000        0.00000000000000
C           -2.45082300000000        5.02433100000000        0.00000000000000
C            0.00000000000000        5.01377000000000        0.00000000000000
C            2.45082300000000        5.02432900000000        0.00000000000000
C           -3.68254900000000       -5.73286200000000        0.00000000000000
C           -1.22444900000000       -5.70125500000000        0.00000000000000
C            1.22444800000000       -5.70125400000000        0.00000000000000
C            3.68254700000000       -5.73286200000000        0.00000000000000
C           -4.89761400000000       -3.64401600000000        0.00000000000000
C           -2.46576800000000       -3.58308700000000        0.00000000000000
C            0.00000100000000       -3.56680700000000        0.00000000000000
C            2.46576900000000       -3.58308700000000        0.00000000000000
C            4.89761300000000       -3.64401700000000        0.00000000000000
C           -3.71009500000000       -1.43137600000000        0.00000000000000
C           -1.23301800000000       -1.42861800000000        0.00000000000000
C            1.23301700000000       -1.42861700000000        0.00000000000000
C            3.71009600000000       -1.43137500000000        0.00000000000000
C           -4.90132100000000        0.69114900000000        0.00000000000000
C           -2.47481700000000        0.71776900000000        0.00000000000000
C            0.00000000000000        0.72069200000000        0.00000000000000
C            2.47481800000000        0.71776800000000        0.00000000000000
C            4.90132200000000        0.69114900000000        0.00000000000000
H            5.86121300000000        3.14897700000000        0.00000000000000
H           -5.86121300000000        3.14897600000000        0.00000000000000
H            5.81988000000000       -5.59089000000000        0.00000000000000
H            5.85949000000000       -1.19671600000000        0.00000000000000
H            5.81988000000000        5.59089000000000        0.00000000000000
H           -5.81988000000000        5.59089000000000        0.00000000000000
H            5.86121300000000       -3.14897600000000        0.00000000000000
H            5.85949100000000        1.19671400000000        0.00000000000000
H           -5.81988000000000       -5.59089000000000        0.00000000000000
H           -5.85949000000000       -1.19671700000000        0.00000000000000
H           -5.86121300000000       -3.14897500000000        0.00000000000000
H           -5.85949000000000        1.19671500000000        0.00000000000000
H            3.66251900000000        6.81932300000000        0.00000000000000
H           -3.66252000000000        6.81932300000000        0.00000000000000
H           -1.21893900000000        6.78838100000000        0.00000000000000
H            1.21894100000000        6.78838000000000        0.00000000000000
H           -3.66252000000000       -6.81932300000000        0.00000000000000
H           -1.21893900000000       -6.78838100000000        0.00000000000000
H            1.21894000000000       -6.78838000000000        0.00000000000000
H            3.66251900000000       -6.81932300000000        0.00000000000000
74
 energy: -126.106871452834 gnorm: 0.011634413559 xtb: 6.7.1pre (5071a88)
C           -3.69430175135097        1.42674108841789       -0.00000000000000
C           -1.22875851936149        1.42213142251810       -0.00000000000000
C            1.22875817538823        1.42213095950606        0.00000000000000
C            3.69430250571976        1.42674057813413       -0.00000000000000
C            4.87547690470489        3.63200654740806        0.00000000000000
C           -4.87547672134341        3.63200619088128       -0.00000000000000
C           -2.45618403691540        3.56701578653064       -0.00000000000000
C            0.00000054900145        3.55055451571488        0.00000000000000
C            2.45618475685977        3.56701534668706        0.00000000000000
C            3.66668546757438        5.70616445297942       -0.00000000000000
C           -3.66668562985856        5.70616442455673        0.00000000000000
C           -1.22004701698346        5.67397678478758        0.00000000000000
C            1.22004676098119        5.67397633487961       -0.00000000000000
C           -4.85692582414259       -5.02643021543573       -0.00000000000000
C           -2.44184360065273       -4.99937361082977        0.00000000000000
C           -0.00000005343640       -4.98885456581156        0.00000000000000
C            2.44184313751041       -4.99937269115196       -0.00000000000000
C            4.85692556915114       -5.02643088794994        0.00000000000000
C           -3.69842579167912       -2.88123596422294        0.00000000000000
C           -1.22900532759830       -2.84991285639481       -0.00000000000000
C            1.22900501064976       -2.84991289625199        0.00000000000000
C            3.69842574648519       -2.88123649374060       -0.00000000000000
C           -4.87982315928642       -0.68827279043119        0.00000000000000
C           -2.46547718389566       -0.71455193433422       -0.00000000000000
C            0.00000008056524       -0.71715358041938        0.00000000000000
C            2.46547712351046       -0.71455150617721        0.00000000000000
C            4.87982296370446       -0.68827345414994        0.00000000000000
C           -3.69842563851777        2.88123589821542       -0.00000000000000
C           -1.22900518411310        2.84991281670059        0.00000000000000
C            1.22900517809018        2.84991284108714        0.00000000000000
C            3.69842587630797        2.88123587376453        0.00000000000000
C            4.85692559136079        5.02643067839077       -0.00000000000000
C           -4.85692562804628        5.02643064161869        0.00000000000000
C           -2.44184313586592        4.99937351041074        0.00000000000000
C            0.00000014057241        4.98885453016102        0.00000000000000
C            2.44184330752820        4.99937253765780        0.00000000000000
C           -3.66668610454634       -5.70616402323572        0.00000000000000
C           -1.22004718157082       -5.67397676451965        0.00000000000000
C            1.22004652763094       -5.67397644437646       -0.00000000000000
C            3.66668503725571       -5.70616405192080       -0.00000000000000
C           -4.87547738156856       -3.63200579117025       -0.00000000000000
C           -2.45618416766515       -3.56701543169223        0.00000000000000
C            0.00000040587716       -3.55055454994032        0.00000000000000
C            2.45618454266366       -3.56701542394477        0.00000000000000
C            4.87547685381567       -3.63200638299679        0.00000000000000
C           -3.69430203364671       -1.42674098176483       -0.00000000000000
C           -1.22875863720392       -1.42213140519303       -0.00000000000000
C            1.22875808117464       -1.42213098336406        0.00000000000000
C            3.69430241457935       -1.42674057104174        0.00000000000000
C           -4.87982281006680        0.68827277902654        0.00000000000000
C           -2.46547706493313        0.71455194742454       -0.00000000000000
C            0.00000017868531        0.71715359554117        0.00000000000000
C            2.46547766897691        0.71455144653685        0.00000000000000
C            4.87982345562160        0.68827286032125        0.00000000000000
H            5.83844104711870        3.14459183980871       -0.00000000000000
H           -5.83844092349721        3.14459165213616        0.00000000000000
H            5.79408596276432       -5.56889259120326        0.00000000000000
H            5.83561004691259       -1.19081293393718       -0.00000000000000
H            5.79408603510723        5.56889246770100       -0.00000000000000
H           -5.79408612722628        5.56889227068044        0.00000000000000
H            5.83844107784628       -3.14459198641806       -0.00000000000000
H            5.83561039092709        1.19081255548627        0.00000000000000
H           -5.79408629332341       -5.56889224608100       -0.00000000000000
H           -5.83560995636409       -1.19081323778042       -0.00000000000000
H           -5.83844118175730       -3.14459123537540       -0.00000000000000
H           -5.83560957189074        1.19081313598947        0.00000000000000
H            3.64763793841169        6.78851764681451       -0.00000000000000
H           -3.64763885408600        6.78851769070754       -0.00000000000000
H           -1.21515916768853        6.75736767388769       -0.00000000000000
H            1.21516093852068        6.75736721048297       -0.00000000000000
H           -3.64763882106978       -6.78851755227295        0.00000000000000
H           -1.21515940414306       -6.75736764052683       -0.00000000000000
H            1.21516017204247       -6.75736730028120       -0.00000000000000
H            3.64763826369753       -6.78851755721503       -0.00000000000000
74
 energy: -126.108279985967 gnorm: 0.003378257419 xtb: 6.7.1pre (5071a88)
C           -3.68466303051630        1.42183985954531        0.00000000000001
C           -1.22578720766727        1.41646231540747        0.00000000000000
C            1.22578732473212        1.41646220087676       -0.00000000000000
C            3.68466336890298        1.42183966221981        0.00000000000001
C            4.86332020162392        3.61777485392669       -0.00000000000000
C           -4.86332000402643        3.61777487780574        0.00000000000001
C           -2.44970949210880        3.55400651047284        0.00000000000000
C            0.00000019410798        3.53785236214188       -0.00000000000000
C            2.44970983455925        3.55400638061527       -0.00000000000000
C            3.65624968076319        5.68703951495499        0.00000000000001
C           -3.65624969396696        5.68703957800901       -0.00000000000001
C           -1.21658260187862        5.65536174253360       -0.00000000000000
C            1.21658276573206        5.65536163557820        0.00000000000000
C           -4.84491885475105       -5.00868177563126        0.00000000000000
C           -2.43551553915375       -4.98096845743939       -0.00000000000001
C           -0.00000009399900       -4.97067484718656       -0.00000000000000
C            2.43551533978079       -4.98096840355782        0.00000000000001
C            4.84491853381520       -5.00868217876437       -0.00000000000000
C           -3.68844660330598       -2.86992378641321       -0.00000000000000
C           -1.22579391074446       -2.83934068981410        0.00000000000000
C            1.22579366816958       -2.83934075459766       -0.00000000000000
C            3.68844658997828       -2.86992401698017        0.00000000000000
C           -4.86889254826694       -0.68681820389194       -0.00000000000000
C           -2.45934524611106       -0.71180907449010        0.00000000000000
C            0.00000008135574       -0.71412228377417       -0.00000000000000
C            2.45934528819836       -0.71180912126228       -0.00000000000000
C            4.86889254147920       -0.68681853819790       -0.00000000000000
C           -3.68844651811196        2.86992386332316        0.00000000000001
C           -1.22579376873126        2.83934070632536        0.00000000000000
C            1.22579384005994        2.83934067518907       -0.00000000000000
C            3.68844677072343        2.86992377971152       -0.00000000000000
C            4.84491862411265        5.00868203949692        0.00000000000000
C           -4.84491855934314        5.00868204587401       -0.00000000000000
C           -2.43551533290886        4.98096847427962       -0.00000000000000
C            0.00000014767599        4.97067481157915       -0.00000000000000
C            2.43551556426801        4.98096821435444       -0.00000000000000
C           -3.65624996822983       -5.68703940472280       -0.00000000000000
C           -1.21658287193277       -5.65536170186267       -0.00000000000001
C            1.21658249323514       -5.65536177552284        0.00000000000000
C            3.65624955292760       -5.68703957013539        0.00000000000001
C           -4.86332023554042       -3.61777462299571        0.00000000000001
C           -2.44970964200077       -3.55400644082244       -0.00000000000000
C            0.00000002566375       -3.53785238827954       -0.00000000000000
C            2.44970961287631       -3.55400649978799        0.00000000000000
C            4.86332009679080       -3.61777495508455       -0.00000000000000
C           -3.68466307373782       -1.42183973467125        0.00000000000000
C           -1.22578730180146       -1.41646226445021        0.00000000000000
C            1.22578721737553       -1.41646226119751       -0.00000000000000
C            3.68466321456553       -1.42183981871312        0.00000000000000
C           -4.86889251382697        0.68681836252945       -0.00000000000000
C           -2.45934519915764        0.71180915515029        0.00000000000000
C            0.00000017261965        0.71412229083133       -0.00000000000000
C            2.45934541836663        0.71180898378288        0.00000000000000
C            4.86889267747164        0.68681830212047       -0.00000000000000
H            5.82486095756799        3.13117578137816       -0.00000000000000
H           -5.82486078916760        3.13117586821710        0.00000000000000
H            5.78024848594016       -5.54993898116284       -0.00000000000001
H            5.82231239863311       -1.18981113283174        0.00000000000000
H            5.78024859664679        5.54993889506464        0.00000000000000
H           -5.78024858658014        5.54993876109001       -0.00000000000000
H            5.82486088083786       -3.13117596465653       -0.00000000000000
H            5.82231249347827        1.18981088225603       -0.00000000000000
H           -5.78024887122600       -5.54993851248609        0.00000000000001
H           -5.82231212448407       -1.18981113310998       -0.00000000000000
H           -5.82486096357612       -3.13117545693820        0.00000000000001
H           -5.82231214820590        1.18981130104575       -0.00000000000000
H            3.63494237002508        6.76711885683959        0.00000000000001
H           -3.63494266093897        6.76711896258448       -0.00000000000000
H           -1.21151489684847        6.73638553019838        0.00000000000000
H            1.21151594028230        6.73638541699609        0.00000000000001
H           -3.63494291389880       -6.76711874185474       -0.00000000000000
H           -1.21151524623675       -6.73638550799451       -0.00000000000000
H            1.21151550742408       -6.73638555417298        0.00000000000000
H            3.63494254021546       -6.76711889885089        0.00000000000001
74
 energy: -126.108306730846 gnorm: 0.001429609076 xtb: 6.7.1pre (5071a88)
C           -3.68434779539922        1.42071476198219       -0.00000000000002
C           -1.22557946644493        1.41552513142420       -0.00000000000001
C            1.22557960383488        1.41552505581514        0.00000000000001
C            3.68434802007984        1.42071459949673       -0.00000000000001
C            4.86326412751982        3.61486828738241        0.00000000000003
C           -4.86326393347007        3.61486838672752       -0.00000000000003
C           -2.44925974478831        3.55192606610886       -0.00000000000000
C            0.00000013608143        3.53599985520074        0.00000000000001
C            2.44925998977667        3.55192595916085        0.00000000000001
C            3.65585441205502        5.68443318448284       -0.00000000000004
C           -3.65585426717664        5.68443329180530        0.00000000000005
C           -1.21632509370686        5.65338783439035        0.00000000000001
C            1.21632528220910        5.65338776500423       -0.00000000000002
C           -4.84500674205775       -5.00583723509322       -0.00000000000002
C           -2.43518455549248       -4.97848317307373        0.00000000000005
C           -0.00000008227818       -4.96841439797818        0.00000000000001
C            2.43518437301163       -4.97848322982528       -0.00000000000004
C            4.84500650054586       -5.00583752497224        0.00000000000002
C           -3.68782117504983       -2.86777463885389        0.00000000000002
C           -1.22548192818233       -2.83758543605071        0.00000000000001
C            1.22548180235467       -2.83758549862718       -0.00000000000000
C            3.68782113521308       -2.86777483617873       -0.00000000000001
C           -4.86935660159621       -0.68663655982180        0.00000000000002
C           -2.45900432806657       -0.71136430150956       -0.00000000000000
C            0.00000005058913       -0.71364995655366        0.00000000000000
C            2.45900438400954       -0.71136438883225       -0.00000000000000
C            4.86935662145236       -0.68663682623210        0.00000000000001
C           -3.68782103751040        2.86777477300230       -0.00000000000003
C           -1.22548179579609        2.83758545364698       -0.00000000000000
C            1.22548191649647        2.83758541015654        0.00000000000000
C            3.68782124106661        2.86777466750102        0.00000000000001
C            4.84500661959024        5.00583738663324        0.00000000000001
C           -4.84500645075219        5.00583747707568        0.00000000000002
C           -2.43518432242058        4.97848323415847        0.00000000000002
C            0.00000012121749        4.96841435050743        0.00000000000000
C            2.43518454853964        4.97848307217205       -0.00000000000000
C           -3.65585457071113       -5.68443312949718        0.00000000000003
C           -1.21632535719371       -5.65338781569193        0.00000000000003
C            1.21632507306733       -5.65338788206499       -0.00000000000002
C            3.65585427820415       -5.68443330153559       -0.00000000000006
C           -4.86326415705027       -3.61486815495054       -0.00000000000002
C           -2.44925992643212       -3.55192598237970        0.00000000000003
C           -0.00000001056859       -3.53599989148159        0.00000000000001
C            2.44925985692909       -3.55192608165361       -0.00000000000002
C            4.86326404977250       -3.61486841563734        0.00000000000002
C           -3.68434785605297       -1.42071461016148        0.00000000000000
C           -1.22557953599675       -1.41552509864995       -0.00000000000000
C            1.22557953538522       -1.41552513248669        0.00000000000000
C            3.68434793522225       -1.42071475576638       -0.00000000000001
C           -4.86935657307633        0.68663677687406       -0.00000000000000
C           -2.45900429243428        0.71136438866246       -0.00000000000001
C            0.00000010089959        0.71364993046678        0.00000000000000
C            2.45900443480128        0.71136426211150       -0.00000000000000
C            4.86935668450780        0.68663663500289        0.00000000000001
H            5.82420292406652        3.12721757755077        0.00000000000002
H           -5.82420275228465        3.12721771328452       -0.00000000000003
H            5.78041915072651       -5.54655274663111        0.00000000000005
H            5.82230038051720       -1.19005286491440        0.00000000000000
H            5.78041928492766        5.54655260555785       -0.00000000000001
H           -5.78041914314959        5.54655264184132        0.00000000000002
H            5.82420285983989       -3.12721774428936        0.00000000000004
H            5.82230044427401        1.19005264448202        0.00000000000001
H           -5.78041942650951       -5.54655239490819       -0.00000000000004
H           -5.82230023234899       -1.19005276550125        0.00000000000002
H           -5.82420293805311       -3.12721739584972       -0.00000000000004
H           -5.82230020603093        1.19005301850608        0.00000000000000
H            3.63308687177453        6.76430723060160       -0.00000000000005
H           -3.63308681908530        6.76430735325064        0.00000000000003
H           -1.21096694360073        6.73416814584971        0.00000000000000
H            1.21096760008843        6.73416807379532       -0.00000000000003
H           -3.63308717362555       -6.76430716770939        0.00000000000002
H           -1.21096726902062       -6.73416813303279        0.00000000000001
H            1.21096729931834       -6.73416818934263       -0.00000000000002
H            3.63308685344796       -6.76430734393426       -0.00000000000004
74
 energy: -126.108309039866 gnorm: 0.000436497651 xtb: 6.7.1pre (5071a88)
C           -3.68463090370109        1.42032402709222        0.00000000000021
C           -1.22563418570304        1.41530368575971        0.00000000000005
C            1.22563430278430        1.41530362844295       -0.00000000000000
C            3.68463102423390        1.42032388073914        0.00000000000007
C            4.86381259536018        3.61408196849177       -0.00000000000037
C           -4.86381239965286        3.61408215273771        0.00000000000031
C           -2.44935442707293        3.55130446452713        0.00000000000004
C            0.00000010317736        3.53553262819274       -0.00000000000003
C            2.44935461568269        3.55130436589612       -0.00000000000007
C            3.65626390898152        5.68363707658078        0.00000000000042
C           -3.65626363629691        5.68363722073490       -0.00000000000048
C           -1.21642863594450        5.65303378423857       -0.00000000000006
C            1.21642887017777        5.65303373261786        0.00000000000018
C           -4.84570031918796       -5.00500380312915        0.00000000000020
C           -2.43543558918927       -4.97776178181053       -0.00000000000047
C           -0.00000006878432       -4.96787709145064       -0.00000000000006
C            2.43543543182520       -4.97776188098049        0.00000000000051
C            4.84570016204569       -5.00500400844133       -0.00000000000035
C           -3.68790929479990       -2.86705841626330       -0.00000000000019
C           -1.22545321649903       -2.83703518864670       -0.00000000000015
C            1.22545317200786       -2.83703524053221        0.00000000000009
C            3.68790923610553       -2.86705858130258        0.00000000000018
C           -4.87021918034211       -0.68651705903016       -0.00000000000013
C           -2.45917714693124       -0.71124789185070       -0.00000000000004
C            0.00000001842284       -0.71351630057924        0.00000000000000
C            2.45917719268357       -0.71124798943979        0.00000000000011
C            4.87021921766016       -0.68651726344846       -0.00000000000004
C           -3.68790918376354        2.86705857228991        0.00000000000025
C           -1.22545311032518        2.83703523644468        0.00000000000003
C            1.22545327423400        2.83703518414482       -0.00000000000001
C            3.68790934440318        2.86705843591306       -0.00000000000008
C            4.84570037876322        5.00500381756684       -0.00000000000009
C           -4.84570012746709        5.00500400335514       -0.00000000000023
C           -2.43543539391654        4.97776188505527       -0.00000000000017
C            0.00000011171613        4.96787708975851        0.00000000000001
C            2.43543562858697        4.97776178044104        0.00000000000008
C           -3.65626386375178       -5.68363706952517       -0.00000000000040
C           -1.21642884852176       -5.65303373425342       -0.00000000000029
C            1.21642865826782       -5.65303377717129        0.00000000000029
C            3.65626367054018       -5.68363722439716        0.00000000000066
C           -4.86381253962488       -3.61408195567895        0.00000000000023
C           -2.44935456735819       -3.55130435983008       -0.00000000000031
C           -0.00000003341902       -3.53553263294049       -0.00000000000005
C            2.44935448537396       -3.55130447126947        0.00000000000024
C            4.86381244409775       -3.61408216713985       -0.00000000000031
C           -3.68463095523647       -1.42032387374028       -0.00000000000009
C           -1.22563423138626       -1.41530364097107       -0.00000000000004
C            1.22563425516649       -1.41530368608436        0.00000000000004
C            3.68463097948379       -1.42032403047951        0.00000000000013
C           -4.87021916136730        0.68651726350623        0.00000000000005
C           -2.45917712784214        0.71124799316694        0.00000000000008
C            0.00000003691669        0.71351629107009        0.00000000000000
C            2.45917721074619        0.71124788842626        0.00000000000007
C            4.87021923972625        0.68651707359482       -0.00000000000004
H            5.82434645595502        3.12575577812505       -0.00000000000030
H           -5.82434628594114        3.12575600980955        0.00000000000032
H            5.78133118724931       -5.54528116788104       -0.00000000000059
H            5.82298910479533       -1.18999542363909       -0.00000000000001
H            5.78133141912631        5.54528093178288        0.00000000000005
H           -5.78133115927345        5.54528114327707       -0.00000000000019
H            5.82434632677051       -3.12575601757696       -0.00000000000053
H            5.82298914829391        1.18999520546118       -0.00000000000008
H           -5.78133136514461       -5.54528091900824        0.00000000000045
H           -5.82298907081827       -1.18999523595923       -0.00000000000020
H           -5.82434640039441       -3.12575578002716        0.00000000000042
H           -5.82298902551206        1.18999547158372       -0.00000000000001
H            3.63238554730949        6.76343758588826        0.00000000000058
H           -3.63238523082330        6.76343772749843       -0.00000000000043
H           -1.21084700280140        6.73372518912976       -0.00000000000007
H            1.21084735061381        6.73372513721528        0.00000000000027
H           -3.63238552589936       -6.76343758300896       -0.00000000000025
H           -1.21084726273897       -6.73372513667601       -0.00000000000007
H            1.21084708824588       -6.73372518423236        0.00000000000023
H            3.63238527990155       -6.76343774216092        0.00000000000044
