74
 energy: -126.108309039904 gnorm: 0.000436648752 xtb: 6.7.1pre (5071a88)
C           -3.68463090370109        1.42032402709222        0.00000000000021
C           -1.22563418570304        1.41530368575971        0.00000000000005
C            1.22563430278430        1.41530362844295       -0.00000000000000
C            3.68463102423390        1.42032388073914        0.00000000000007
C            4.86381259536018        3.61408196849177       -0.00000000000037
C           -4.86381239965286        3.61408215273771        0.00000000000031
C           -2.44935442707293        3.55130446452713        0.00000000000004
C            0.00000010317736        3.53553262819274       -0.00000000000003
C            2.44935461568269        3.55130436589612       -0.00000000000007
C            3.65626390898152        5.68363707658078        0.00000000000042
C           -3.65626363629691        5.68363722073490       -0.00000000000048
C           -1.21642863594450        5.65303378423857       -0.00000000000006
C            1.21642887017777        5.65303373261786        0.00000000000018
C           -4.84570031918796       -5.00500380312915        0.00000000000020
C           -2.43543558918927       -4.97776178181053       -0.00000000000047
C           -0.00000006878432       -4.96787709145064       -0.00000000000006
C            2.43543543182520       -4.97776188098049        0.00000000000051
C            4.84570016204569       -5.00500400844133       -0.00000000000035
C           -3.68790929479990       -2.86705841626330       -0.00000000000019
C           -1.22545321649903       -2.83703518864670       -0.00000000000015
C            1.22545317200786       -2.83703524053221        0.00000000000009
C            3.68790923610553       -2.86705858130258        0.00000000000018
C           -4.87021918034211       -0.68651705903016       -0.00000000000013
C           -2.45917714693124       -0.71124789185070       -0.00000000000004
C            0.00000001842284       -0.71351630057924        0.00000000000000
C            2.45917719268357       -0.71124798943979        0.00000000000011
C            4.87021921766016       -0.68651726344846       -0.00000000000004
C           -3.68790918376354        2.86705857228991        0.00000000000025
C           -1.22545311032518        2.83703523644468        0.00000000000003
C            1.22545327423400        2.83703518414482       -0.00000000000001
C            3.68790934440318        2.86705843591306       -0.00000000000008
C            4.84570037876322        5.00500381756684       -0.00000000000009
C           -4.84570012746709        5.00500400335514       -0.00000000000023
C           -2.43543539391654        4.97776188505527       -0.00000000000017
C            0.00000011171613        4.96787708975851        0.00000000000001
C            2.43543562858697        4.97776178044104        0.00000000000008
C           -3.65626386375178       -5.68363706952517       -0.00000000000040
C           -1.21642884852176       -5.65303373425342       -0.00000000000029
C            1.21642865826782       -5.65303377717129        0.00000000000029
C            3.65626367054018       -5.68363722439716        0.00000000000066
C           -4.86381253962488       -3.61408195567895        0.00000000000023
C           -2.44935456735819       -3.55130435983008       -0.00000000000031
C           -0.00000003341902       -3.53553263294049       -0.00000000000005
C            2.44935448537396       -3.55130447126947        0.00000000000024
C            4.86381244409775       -3.61408216713985       -0.00000000000031
C           -3.68463095523647       -1.42032387374028       -0.00000000000009
C           -1.22563423138626       -1.41530364097107       -0.00000000000004
C            1.22563425516649       -1.41530368608436        0.00000000000004
C            3.68463097948379       -1.42032403047951        0.00000000000013
C           -4.87021916136730        0.68651726350623        0.00000000000005
C           -2.45917712784214        0.71124799316694        0.00000000000008
C            0.00000003691669        0.71351629107009        0.00000000000000
C            2.45917721074619        0.71124788842626        0.00000000000007
C            4.87021923972625        0.68651707359482       -0.00000000000004
H            5.82434645595502        3.12575577812505       -0.00000000000030
H           -5.82434628594114        3.12575600980955        0.00000000000032
H            5.78133118724931       -5.54528116788104       -0.00000000000059
H            5.82298910479533       -1.18999542363909       -0.00000000000001
H            5.78133141912631        5.54528093178288        0.00000000000005
H           -5.78133115927345        5.54528114327707       -0.00000000000019
H            5.82434632677051       -3.12575601757696       -0.00000000000053
H            5.82298914829391        1.18999520546118       -0.00000000000008
H           -5.78133136514461       -5.54528091900824        0.00000000000045
H           -5.82298907081827       -1.18999523595923       -0.00000000000020
H           -5.82434640039441       -3.12575578002716        0.00000000000042
H           -5.82298902551206        1.18999547158372       -0.00000000000001
H            3.63238554730949        6.76343758588826        0.00000000000058
H           -3.63238523082330        6.76343772749843       -0.00000000000043
H           -1.21084700280140        6.73372518912976       -0.00000000000007
H            1.21084735061381        6.73372513721528        0.00000000000027
H           -3.63238552589936       -6.76343758300896       -0.00000000000025
H           -1.21084726273897       -6.73372513667601       -0.00000000000007
H            1.21084708824588       -6.73372518423236        0.00000000000023
H            3.63238527990155       -6.76343774216092        0.00000000000044
