      -----------------------------------------------------------      
     |                   =====================                   |     
     |                           x T B                           |     
     |                   =====================                   |     
     |                         S. Grimme                         |     
     |          Mulliken Center for Theoretical Chemistry        |     
     |                    University of Bonn                     |     
      -----------------------------------------------------------      

   * xtb version 6.7.1pre (5071a88) compiled by 'Marcel@Raven' on 2024-07-23

   xtb is free software: you can redistribute it and/or modify it under
   the terms of the GNU Lesser General Public License as published by
   the Free Software Foundation, either version 3 of the License, or
   (at your option) any later version.
   
   xtb is distributed in the hope that it will be useful,
   but WITHOUT ANY WARRANTY; without even the implied warranty of
   MERCHANTABILITY or FITNESS FOR A PARTICULAR PURPOSE.  See the
   GNU Lesser General Public License for more details.
   
   Cite this work as:
   * C. Bannwarth, E. Caldeweyher, S. Ehlert, A. Hansen, P. Pracht,
     J. Seibert, S. Spicher, S. Grimme, WIREs Comput. Mol. Sci., 2020, 11,
     e01493. DOI: 10.1002/wcms.1493
   
   for GFN2-xTB:
   * C. Bannwarth, S. Ehlert and S. Grimme., J. Chem. Theory Comput., 2019,
     15, 1652-1671. DOI: 10.1021/acs.jctc.8b01176
   for GFN1-xTB:
   * S. Grimme, C. Bannwarth, P. Shushkov, J. Chem. Theory Comput., 2017,
     13, 1989-2009. DOI: 10.1021/acs.jctc.7b00118
   for GFN0-xTB:
   * P. Pracht, E. Caldeweyher, S. Ehlert, S. Grimme, ChemRxiv, 2019, preprint.
     DOI: 10.26434/chemrxiv.8326202.v1
   for GFN-FF:
   * S. Spicher and S. Grimme, Angew. Chem. Int. Ed., 2020, 59, 15665-15673.
     DOI: 10.1002/anie.202004239
   
   for ALPB and GBSA implicit solvation:
   * S. Ehlert, M. Stahn, S. Spicher, S. Grimme, J. Chem. Theory Comput.,
     2021, 17, 4250-4261. DOI: 10.1021/acs.jctc.1c00471
   
   for ddCOSMO and CPCM-X implicit solvation:
   * M. Stahn, S. Ehlert, S. Grimme, J. Phys. Chem. A,
     2023, XX, XXXX-XXXX. DOI: 10.1021/acs.jpca.3c04382
   
   for DFT-D4:
   * E. Caldeweyher, C. Bannwarth and S. Grimme, J. Chem. Phys., 2017,
     147, 034112. DOI: 10.1063/1.4993215
   * E. Caldeweyher, S. Ehlert, A. Hansen, H. Neugebauer, S. Spicher,
     C. Bannwarth and S. Grimme, J. Chem. Phys., 2019, 150, 154122.
     DOI: 10.1063/1.5090222
   * E. Caldeweyher, J.-M. Mewes, S. Ehlert and S. Grimme, Phys. Chem. Chem. Phys.
     2020, 22, 8499-8512. DOI: 10.1039/D0CP00502A
   
   for sTDA-xTB:
   * S. Grimme and C. Bannwarth, J. Chem. Phys., 2016, 145, 054103.
     DOI: 10.1063/1.4959605
   
   in the mass-spec context:
   * V. Asgeirsson, C. Bauer and S. Grimme, Chem. Sci., 2017, 8, 4879.
     DOI: 10.1039/c7sc00601b
   * J. Koopman and S. Grimme, ACS Omega 2019, 4, 12, 15120-15133.
     DOI: 10.1021/acsomega.9b02011
   
   for metadynamics refer to:
   * S. Grimme, J. Chem. Theory Comput., 2019, 155, 2847-2862
     DOI: 10.1021/acs.jctc.9b00143
   
   for SPH calculations refer to:
   * S. Spicher and S. Grimme, J. Chem. Theory Comput., 2021, 17, 1701-1714
     DOI: 10.1021/acs.jctc.0c01306
   
   for ONIOM refer to:
   * C. Plett, A. Katbashev, S. Ehlert, S. Grimme, M. Bursch,
     Phys. Chem. Chem. Phys., 2023, 25, 17860-17868. DOI: 10.1039/D3CP02178E
   
   for DIPRO refer to:
   * J. Kohn, N. Gildemeister, S. Grimme, D. Fazzi, A. Hansen,
     J. Chem. Phys., 2023, just accepted.
   
   for PTB refer to:
   * S. Grimme, M. Mueller, A. Hansen, J. Chem. Phys., 2023, 158, 124111.
     DOI: 10.1063/5.0137838
   
   with help from (in alphabetical order)
   P. Atkinson, C. Bannwarth, F. Bohle, G. Brandenburg, E. Caldeweyher
   M. Checinski, S. Dohm, S. Ehlert, S. Ehrlich, I. Gerasimov, C. Hölzer
   A. Katbashev, J. Kohn, J. Koopman, C. Lavigne, S. Lehtola, F. März, M. Müller,
   F. Musil, H. Neugebauer, J. Pisarek, C. Plett, P. Pracht, F. Pultar,
   J. Seibert, P. Shushkov, S. Spicher, M. Stahn, M. Steiner, T. Strunk,
   J. Stückrath, T. Rose, and J. Unsleber
   
 * started run on 2025/12/08 at 00:32:45.613     
   ID    Z sym.   atoms
    1    6 C      1-100
    2    1 H      101-124
    3   16 S      125-128

           -------------------------------------------------
          |                Calculation Setup                |
           -------------------------------------------------

          program call               : xtb "C:\Users\LENOVO GAMING\Documents\GitHub\molecular-conductivity-sim\dataset\1.5nm-4Sdoped-3percent.xyz" --opt --parallel 4
          coordinate file            : C:\Users\LENOVO GAMING\Documents\GitHub\molecular-conductivity-sim\dataset\1.5nm-4Sdoped-3percent.xyz
          omp threads                :                     4


           -------------------------------------------------
          |                 G F N 2 - x T B                 |
           -------------------------------------------------

        Reference                      10.1021/acs.jctc.8b01176
      * Hamiltonian:
        H0-scaling (s, p, d)           1.850000    2.230000    2.230000
        zeta-weighting                 0.500000
      * Dispersion:
        s8                             2.700000
        a1                             0.520000
        a2                             5.000000
        s9                             5.000000
      * Repulsion:
        kExp                           1.500000    1.000000
        rExp                           1.000000
      * Coulomb:
        alpha                          2.000000
        third order                    shell-resolved
        anisotropic                    true
        a3                             3.000000
        a5                             4.000000
        cn-shift                       1.200000
        cn-exp                         4.000000
        max-rad                        5.000000


          ...................................................
          :                      SETUP                      :
          :.................................................:
          :  # basis functions                 464          :
          :  # atomic orbitals                 460          :
          :  # shells                          236          :
          :  # electrons                       448          :
          :  max. iterations                   250          :
          :  Hamiltonian                  GFN2-xTB          :
          :  restarted?                      false          :
          :  GBSA solvation                  false          :
          :  PC potential                    false          :
          :  electronic temp.          300.0000000     K    :
          :  accuracy                    1.0000000          :
          :  -> integral cutoff          0.2500000E+02      :
          :  -> integral neglect         0.1000000E-07      :
          :  -> SCF convergence          0.1000000E-05 Eh   :
          :  -> wf. convergence          0.1000000E-03 e    :
          :  Broyden damping             0.4000000          :
          :  net charge                          0          :
          :  unpaired electrons                  0          :
          ...................................................

 iter      E             dE          RMSdq      gap      omega  full diag
   1   -244.2776223 -0.244278E+03  0.506E+00    1.04       0.0  T
   2   -244.3123813 -0.347590E-01  0.306E+00    1.07       1.0  T
   3   -243.9036057  0.408776E+00  0.180E+00    0.96       1.0  T
   4   -244.3560005 -0.452395E+00  0.340E-01    1.01       1.0  T
   5   -244.3580848 -0.208437E-02  0.213E-01    1.04       1.0  T
   6   -244.3629584 -0.487356E-02  0.696E-02    1.03       1.0  T
   7   -244.3635377 -0.579286E-03  0.241E-02    1.03       1.0  T
   8   -244.3635977 -0.599884E-04  0.111E-02    1.03       1.0  T
   9   -244.3636006 -0.289126E-05  0.604E-03    1.03       1.5  T
  10   -244.3636035 -0.294031E-05  0.240E-03    1.03       3.7  T
  11   -244.3636039 -0.366639E-06  0.118E-03    1.03       7.5  T
  12   -244.3636039 -0.216158E-07  0.669E-04    1.03      13.2  T
  13   -244.3636039 -0.308948E-07  0.241E-04    1.03      36.6  T

   *** convergence criteria satisfied after 13 iterations ***

         #    Occupation            Energy/Eh            Energy/eV
      -------------------------------------------------------------
         1        2.0000           -0.7307829             -19.8856
       ...           ...                  ...                  ...
       218        2.0000           -0.3798790             -10.3370
       219        2.0000           -0.3754580             -10.2167
       220        2.0000           -0.3667363              -9.9794
       221        2.0000           -0.3561629              -9.6917
       222        2.0000           -0.3518136              -9.5733
       223        2.0000           -0.3504316              -9.5357
       224        2.0000           -0.3413170              -9.2877 (HOMO)
       225                         -0.3035022              -8.2587 (LUMO)
       226                         -0.2950873              -8.0297
       227                         -0.2841213              -7.7313
       228                         -0.2746673              -7.4741
       229                         -0.2689259              -7.3178
       ...                                ...                  ...
       460                          0.7448848              20.2693
      -------------------------------------------------------------
                  HL-Gap            0.0378149 Eh            1.0290 eV
             Fermi-level           -0.3224096 Eh           -8.7732 eV

 SCC (total)                   0 d,  0 h,  0 min,  1.045 sec
 SCC setup                      ...        0 min,  0.002 sec (  0.191%)
 Dispersion                     ...        0 min,  0.005 sec (  0.478%)
 classical contributions        ...        0 min,  0.002 sec (  0.191%)
 integral evaluation            ...        0 min,  0.041 sec (  3.923%)
 iterations                     ...        0 min,  0.810 sec ( 77.512%)
 molecular gradient             ...        0 min,  0.179 sec ( 17.129%)
 printout                       ...        0 min,  0.006 sec (  0.574%)

         :::::::::::::::::::::::::::::::::::::::::::::::::::::
         ::                     SUMMARY                     ::
         :::::::::::::::::::::::::::::::::::::::::::::::::::::
         :: total energy            -240.125450592101 Eh    ::
         :: gradient norm              0.043497834641 Eh/a0 ::
         :: HOMO-LUMO gap              1.028994799176 eV    ::
         ::.................................................::
         :: SCC energy              -244.371428050812 Eh    ::
         :: -> isotropic ES            0.003839899013 Eh    ::
         :: -> anisotropic ES          0.008972522815 Eh    ::
         :: -> anisotropic XC          0.092392487839 Eh    ::
         :: -> dispersion             -0.291809813212 Eh    ::
         :: repulsion energy           4.245977458710 Eh    ::
         :: add. restraining           0.000000000000 Eh    ::
         :: total charge              -0.000000000000 e     ::
         :::::::::::::::::::::::::::::::::::::::::::::::::::::

      ----------------------------------------------------------- 
     |                   =====================                   |
     |                        A N C O P T                        |
     |                   =====================                   |
     |               Approximate Normal Coordinate               |
     |                Rational Function Optimizer                |
      ----------------------------------------------------------- 
      ----------------------------------------------------------- 
     |                   =====================                   |
     |                        A N C O P T                        |
     |                   =====================                   |
     |               Approximate Normal Coordinate               |
     |                Rational Function Optimizer                |
      ----------------------------------------------------------- 

          ...................................................
          :                      SETUP                      :
          :.................................................:
          :   optimization level            normal          :
          :   max. optcycles                   384          :
          :   ANC micro-cycles                  20          :
          :   degrees of freedom               378          :
          :.................................................:
          :   RF solver                   davidson          :
          :   write xtbopt.log                true          :
          :   linear?                        false          :
          :   energy convergence         0.5000000E-05 Eh   :
          :   grad. convergence          0.1000000E-02 Eh/α :
          :   maxmium RF displ.          1.0000000          :
          :   Hlow (freq-cutoff)         0.1000000E-01      :
          :   Hmax (freq-cutoff)         5.0000000          :
          :   S6 in model hess.         20.0000000          :
          ...................................................

generating ANC from exact Hessian ...
Using Lindh-Hessian (1995)
 Shifting diagonal of input Hessian by   9.872342834562550E-003
 Lowest  eigenvalues of input Hessian
    0.000000    0.000000    0.000000    0.000000    0.000000    0.000000
    0.010000    0.010150    0.010234    0.010424    0.010481    0.011331
    0.011367    0.011590    0.011760    0.012150    0.013028    0.013460
 Highest eigenvalues
    2.069719    2.084012    2.092436    2.120194    2.124490    2.134281
 

........................................................................
.............................. CYCLE    1 ..............................
........................................................................

 iter      E             dE          RMSdq      gap      omega  full diag
   1   -244.3636039 -0.244364E+03  0.115E-04    1.03       0.0  T
   2   -244.3636039 -0.246473E-09  0.843E-05    1.03     104.9  T
   3   -244.3636039 -0.103864E-08  0.439E-05    1.03     201.1  T
     SCC iter.                  ...        0 min,  0.198 sec
     gradient                   ...        0 min,  0.159 sec
 * total energy  :  -240.1254506 Eh     change       -0.2914618E-08 Eh
   gradient norm :     0.0434990 Eh/α   predicted     0.0000000E+00 (-100.00%)
   displ. norm   :     0.5003251 α      lambda       -0.1555019E-01
   maximum displ.:     0.3248077 α      in ANC's #44, #48, #40, ...

........................................................................
.............................. CYCLE    2 ..............................
........................................................................

 iter      E             dE          RMSdq      gap      omega  full diag
   1   -244.5095822 -0.244510E+03  0.115E-01    1.03       0.0  T
   2   -244.5095616  0.205810E-04  0.742E-02    1.03       1.0  T
   3   -244.5091259  0.435737E-03  0.630E-02    1.03       1.0  T
   4   -244.5096453 -0.519413E-03  0.879E-03    1.03       1.0  T
   5   -244.5096517 -0.643148E-05  0.452E-03    1.03       2.0  T
   6   -244.5096532 -0.149934E-05  0.152E-03    1.03       5.8  T
   7   -244.5096535 -0.294012E-06  0.493E-04    1.03      17.9  T
   8   -244.5096535 -0.542744E-08  0.291E-04    1.03      30.4  T
     SCC iter.                  ...        0 min,  0.529 sec
     gradient                   ...        0 min,  0.170 sec
 * total energy  :  -240.1371339 Eh     change       -0.1168327E-01 Eh
   gradient norm :     0.0203386 Eh/α   predicted    -0.9721444E-02 ( -16.79%)
   displ. norm   :     0.4965423 α      lambda       -0.7457156E-02
   maximum displ.:     0.3280533 α      in ANC's #44, #48, #42, ...

........................................................................
.............................. CYCLE    3 ..............................
........................................................................

 iter      E             dE          RMSdq      gap      omega  full diag
   1   -244.6286712 -0.244629E+03  0.100E-01    1.03       0.0  T
   2   -244.6286589  0.123401E-04  0.625E-02    1.03       1.0  T
   3   -244.6283686  0.290264E-03  0.534E-02    1.03       1.0  T
   4   -244.6287155 -0.346942E-03  0.784E-03    1.03       1.1  T
   5   -244.6287189 -0.330345E-05  0.452E-03    1.03       2.0  T
   6   -244.6287209 -0.206780E-05  0.124E-03    1.03       7.1  T
   7   -244.6287211 -0.176681E-06  0.474E-04    1.03      18.6  T
   8   -244.6287211 -0.159477E-07  0.249E-04    1.03      35.5  T
     SCC iter.                  ...        0 min,  0.507 sec
     gradient                   ...        0 min,  0.173 sec
 * total energy  :  -240.1418575 Eh     change       -0.4723650E-02 Eh
   gradient norm :     0.0083119 Eh/α   predicted    -0.4648056E-02 (  -1.60%)
   displ. norm   :     0.2082114 α      lambda       -0.9283904E-03
   maximum displ.:     0.1291847 α      in ANC's #44, #48, #42, ...

........................................................................
.............................. CYCLE    4 ..............................
........................................................................

 iter      E             dE          RMSdq      gap      omega  full diag
   1   -244.6661068 -0.244666E+03  0.446E-02    1.03       0.0  T
   2   -244.6661085 -0.169368E-05  0.261E-02    1.03       1.0  T
   3   -244.6660684  0.400978E-04  0.196E-02    1.03       1.0  T
   4   -244.6661138 -0.454199E-04  0.380E-03    1.03       2.3  T
   5   -244.6661145 -0.708696E-06  0.225E-03    1.03       3.9  T
   6   -244.6661151 -0.582338E-06  0.721E-04    1.03      12.3  T
   7   -244.6661152 -0.400337E-07  0.297E-04    1.03      29.7  T
     SCC iter.                  ...        0 min,  0.438 sec
     gradient                   ...        0 min,  0.169 sec
 * total energy  :  -240.1423772 Eh     change       -0.5196464E-03 Eh
   gradient norm :     0.0042735 Eh/α   predicted    -0.4843209E-03 (  -6.80%)
   displ. norm   :     0.0496743 α      lambda       -0.5743175E-04
   maximum displ.:     0.0198563 α      in ANC's #48, #17, #21, ...

........................................................................
.............................. CYCLE    5 ..............................
........................................................................

 iter      E             dE          RMSdq      gap      omega  full diag
   1   -244.6683704 -0.244668E+03  0.130E-02    1.03       0.0  T
   2   -244.6683708 -0.428825E-06  0.746E-03    1.03       1.2  T
   3   -244.6683687  0.219295E-05  0.468E-03    1.03       1.9  T
   4   -244.6683711 -0.240591E-05  0.124E-03    1.03       7.1  T
   5   -244.6683712 -0.121734E-06  0.596E-04    1.03      14.8  T
   6   -244.6683712 -0.442987E-07  0.194E-04    1.03      45.6  T
     SCC iter.                  ...        0 min,  0.373 sec
     gradient                   ...        0 min,  0.167 sec
 * total energy  :  -240.1424189 Eh     change       -0.4170130E-04 Eh
   gradient norm :     0.0022574 Eh/α   predicted    -0.2880428E-04 ( -30.93%)
   displ. norm   :     0.0702622 α      lambda       -0.4413763E-04
   maximum displ.:     0.0291466 α      in ANC's #17, #8, #7, ...

........................................................................
.............................. CYCLE    6 ..............................
........................................................................

 iter      E             dE          RMSdq      gap      omega  full diag
   1   -244.6675129 -0.244668E+03  0.166E-02    1.03       0.0  T
   2   -244.6675134 -0.530999E-06  0.957E-03    1.03       1.0  T
   3   -244.6675099  0.345156E-05  0.583E-03    1.03       1.5  T
   4   -244.6675137 -0.374979E-05  0.141E-03    1.03       6.3  T
   5   -244.6675138 -0.156363E-06  0.690E-04    1.03      12.8  T
   6   -244.6675139 -0.585810E-07  0.197E-04    1.03      44.8  T
     SCC iter.                  ...        0 min,  0.381 sec
     gradient                   ...        0 min,  0.174 sec
 * total energy  :  -240.1424482 Eh     change       -0.2933298E-04 Eh
   gradient norm :     0.0009779 Eh/α   predicted    -0.2218449E-04 ( -24.37%)
   displ. norm   :     0.0909238 α      lambda       -0.1939511E-04
   maximum displ.:     0.0357802 α      in ANC's #7, #17, #8, ...

........................................................................
.............................. CYCLE    7 ..............................
........................................................................

 iter      E             dE          RMSdq      gap      omega  full diag
   1   -244.6654528 -0.244665E+03  0.189E-02    1.03       0.0  T
   2   -244.6654531 -0.340511E-06  0.110E-02    1.03       1.0  T
   3   -244.6654495  0.369811E-05  0.561E-03    1.03       1.6  T
   4   -244.6654534 -0.399586E-05  0.113E-03    1.03       7.8  T
   5   -244.6654535 -0.725168E-07  0.654E-04    1.03      13.5  T
   6   -244.6654536 -0.508391E-07  0.175E-04    1.03      50.4  T
     SCC iter.                  ...        0 min,  0.375 sec
     gradient                   ...        0 min,  0.172 sec
 * total energy  :  -240.1424650 Eh     change       -0.1683638E-04 Eh
   gradient norm :     0.0019395 Eh/α   predicted    -0.9734475E-05 ( -42.18%)
   displ. norm   :     0.0479611 α      lambda       -0.8628491E-05
   maximum displ.:     0.0242019 α      in ANC's #7, #3, #8, ...

........................................................................
.............................. CYCLE    8 ..............................
........................................................................

 iter      E             dE          RMSdq      gap      omega  full diag
   1   -244.6651579 -0.244665E+03  0.838E-03    1.03       0.0  T
   2   -244.6651580 -0.358814E-07  0.491E-03    1.03       1.8  T
   3   -244.6651575  0.455835E-06  0.178E-03    1.03       5.0  T
   4   -244.6651580 -0.482980E-06  0.393E-04    1.03      22.5  T
   5   -244.6651580 -0.895344E-08  0.208E-04    1.03      42.5  T
     SCC iter.                  ...        0 min,  0.306 sec
     gradient                   ...        0 min,  0.173 sec
 * total energy  :  -240.1424746 Eh     change       -0.9557517E-05 Eh
   gradient norm :     0.0010294 Eh/α   predicted    -0.4322651E-05 ( -54.77%)
   displ. norm   :     0.0661735 α      lambda       -0.7262601E-05
   maximum displ.:     0.0351451 α      in ANC's #7, #3, #8, ...

........................................................................
.............................. CYCLE    9 ..............................
........................................................................

 iter      E             dE          RMSdq      gap      omega  full diag
   1   -244.6653230 -0.244665E+03  0.959E-03    1.03       0.0  T
   2   -244.6653230 -0.242997E-07  0.565E-03    1.03       1.6  T
   3   -244.6653219  0.113106E-05  0.303E-03    1.03       2.9  T
   4   -244.6653231 -0.119979E-05  0.422E-04    1.03      20.9  T
   5   -244.6653231 -0.146516E-07  0.191E-04    1.03      46.2  T
   6   -244.6653231 -0.454003E-08  0.631E-05    1.03     140.0  T
     SCC iter.                  ...        0 min,  0.370 sec
     gradient                   ...        0 min,  0.172 sec
 * total energy  :  -240.1424826 Eh     change       -0.8041179E-05 Eh
   gradient norm :     0.0004619 Eh/α   predicted    -0.3639383E-05 ( -54.74%)
   displ. norm   :     0.0730572 α      lambda       -0.5704336E-05
   maximum displ.:     0.0388677 α      in ANC's #3, #7, #2, ...

........................................................................
.............................. CYCLE   10 ..............................
........................................................................

 iter      E             dE          RMSdq      gap      omega  full diag
   1   -244.6656633 -0.244666E+03  0.947E-03    1.03       0.0  T
   2   -244.6656633 -0.261591E-07  0.553E-03    1.03       1.6  T
   3   -244.6656629  0.437332E-06  0.189E-03    1.03       4.7  T
   4   -244.6656634 -0.461983E-06  0.355E-04    1.03      24.9  T
   5   -244.6656634 -0.697463E-08  0.176E-04    1.03      50.2  T
     SCC iter.                  ...        0 min,  0.315 sec
     gradient                   ...        0 min,  0.153 sec
 * total energy  :  -240.1424897 Eh     change       -0.7071423E-05 Eh
   gradient norm :     0.0009062 Eh/α   predicted    -0.2863503E-05 ( -59.51%)
   displ. norm   :     0.1102923 α      lambda       -0.7963392E-05
   maximum displ.:     0.0599907 α      in ANC's #3, #7, #2, ...

........................................................................
.............................. CYCLE   11 ..............................
........................................................................

 iter      E             dE          RMSdq      gap      omega  full diag
   1   -244.6658856 -0.244666E+03  0.139E-02    1.03       0.0  T
   2   -244.6658857 -0.599071E-07  0.807E-03    1.03       1.1  T
   3   -244.6658855  0.196110E-06  0.130E-03    1.03       6.8  T
   4   -244.6658857 -0.215159E-06  0.493E-04    1.03      17.9  T
   5   -244.6658857 -0.698120E-08  0.260E-04    1.03      34.0  T
     SCC iter.                  ...        0 min,  0.316 sec
     gradient                   ...        0 min,  0.168 sec
 * total energy  :  -240.1424993 Eh     change       -0.9630095E-05 Eh
   gradient norm :     0.0010909 Eh/α   predicted    -0.4003795E-05 ( -58.42%)
   displ. norm   :     0.1399500 α      lambda       -0.8502580E-05
   maximum displ.:     0.0787424 α      in ANC's #3, #7, #2, ...

........................................................................
.............................. CYCLE   12 ..............................
........................................................................

 iter      E             dE          RMSdq      gap      omega  full diag
   1   -244.6660399 -0.244666E+03  0.178E-02    1.03       0.0  T
   2   -244.6660400 -0.836102E-07  0.103E-02    1.03       1.0  T
   3   -244.6660395  0.484249E-06  0.199E-03    1.03       4.4  T
   4   -244.6660400 -0.518811E-06  0.682E-04    1.03      13.0  T
   5   -244.6660400 -0.100193E-07  0.338E-04    1.03      26.2  T
     SCC iter.                  ...        0 min,  0.308 sec
     gradient                   ...        0 min,  0.171 sec
 * total energy  :  -240.1425088 Eh     change       -0.9468649E-05 Eh
   gradient norm :     0.0007786 Eh/α   predicted    -0.4288824E-05 ( -54.71%)
   displ. norm   :     0.1123667 α      lambda       -0.5748347E-05
   maximum displ.:     0.0666991 α      in ANC's #3, #2, #1, ...

........................................................................
.............................. CYCLE   13 ..............................
........................................................................

 iter      E             dE          RMSdq      gap      omega  full diag
   1   -244.6660724 -0.244666E+03  0.143E-02    1.03       0.0  T
   2   -244.6660725 -0.537108E-07  0.827E-03    1.03       1.1  T
   3   -244.6660718  0.610385E-06  0.226E-03    1.03       3.9  T
   4   -244.6660725 -0.645178E-06  0.609E-04    1.03      14.5  T
   5   -244.6660725 -0.137819E-07  0.235E-04    1.03      37.7  T
     SCC iter.                  ...        0 min,  0.314 sec
     gradient                   ...        0 min,  0.168 sec
 * total energy  :  -240.1425153 Eh     change       -0.6498843E-05 Eh
   gradient norm :     0.0003464 Eh/α   predicted    -0.2891811E-05 ( -55.50%)
   displ. norm   :     0.0891777 α      lambda       -0.5045640E-05
   maximum displ.:     0.0549912 α      in ANC's #3, #1, #2, ...

........................................................................
.............................. CYCLE   14 ..............................
........................................................................

 iter      E             dE          RMSdq      gap      omega  full diag
   1   -244.6659848 -0.244666E+03  0.118E-02    1.03       0.0  T
   2   -244.6659848 -0.375188E-07  0.679E-03    1.03       1.3  T
   3   -244.6659844  0.452812E-06  0.194E-03    1.03       4.6  T
   4   -244.6659848 -0.477804E-06  0.523E-04    1.03      16.9  T
   5   -244.6659849 -0.847157E-08  0.235E-04    1.03      37.7  T
     SCC iter.                  ...        0 min,  0.323 sec
     gradient                   ...        0 min,  0.161 sec
 * total energy  :  -240.1425216 Eh     change       -0.6335940E-05 Eh
   gradient norm :     0.0004299 Eh/α   predicted    -0.2534255E-05 ( -60.00%)
   displ. norm   :     0.1128648 α      lambda       -0.7222012E-05
   maximum displ.:     0.0687864 α      in ANC's #3, #1, #2, ...

........................................................................
.............................. CYCLE   15 ..............................
........................................................................

 iter      E             dE          RMSdq      gap      omega  full diag
   1   -244.6658725 -0.244666E+03  0.153E-02    1.03       0.0  T
   2   -244.6658725 -0.687658E-07  0.887E-03    1.03       1.0  T
   3   -244.6658723  0.260941E-06  0.157E-03    1.03       5.6  T
   4   -244.6658725 -0.267026E-06  0.677E-04    1.03      13.0  T
   5   -244.6658726 -0.235133E-07  0.281E-04    1.03      31.5  T
     SCC iter.                  ...        0 min,  0.314 sec
     gradient                   ...        0 min,  0.153 sec
 * total energy  :  -240.1425309 Eh     change       -0.9211614E-05 Eh
   gradient norm :     0.0008229 Eh/α   predicted    -0.3633441E-05 ( -60.56%)
   displ. norm   :     0.1746173 α      lambda       -0.1035426E-04
   maximum displ.:     0.1053694 α      in ANC's #3, #1, #10, ...

........................................................................
.............................. CYCLE   16 ..............................
........................................................................

 iter      E             dE          RMSdq      gap      omega  full diag
   1   -244.6656596 -0.244666E+03  0.231E-02    1.03       0.0  T
   2   -244.6656598 -0.178323E-06  0.133E-02    1.03       1.0  T
   3   -244.6656596  0.128171E-06  0.153E-03    1.03       5.8  T
   4   -244.6656597 -0.101330E-06  0.891E-04    1.03       9.9  T
   5   -244.6656598 -0.933062E-07  0.218E-04    1.03      40.5  T
     SCC iter.                  ...        0 min,  0.319 sec
     gradient                   ...        0 min,  0.174 sec
 * total energy  :  -240.1425432 Eh     change       -0.1238657E-04 Eh
   gradient norm :     0.0010218 Eh/α   predicted    -0.5249159E-05 ( -57.62%)
   displ. norm   :     0.1995344 α      lambda       -0.1011584E-04
   maximum displ.:     0.1209603 α      in ANC's #3, #1, #8, ...

........................................................................
.............................. CYCLE   17 ..............................
........................................................................

 iter      E             dE          RMSdq      gap      omega  full diag
   1   -244.6655686 -0.244666E+03  0.255E-02    1.03       0.0  T
   2   -244.6655688 -0.206714E-06  0.147E-02    1.03       1.0  T
   3   -244.6655683  0.495413E-06  0.227E-03    1.03       3.9  T
   4   -244.6655689 -0.527418E-06  0.979E-04    1.03       9.0  T
   5   -244.6655689 -0.419932E-07  0.492E-04    1.03      18.0  T
     SCC iter.                  ...        0 min,  0.325 sec
     gradient                   ...        0 min,  0.189 sec
 * total energy  :  -240.1425552 Eh     change       -0.1200774E-04 Eh
   gradient norm :     0.0008486 Eh/α   predicted    -0.5148760E-05 ( -57.12%)
   displ. norm   :     0.1978755 α      lambda       -0.9615867E-05
   maximum displ.:     0.1203067 α      in ANC's #3, #1, #8, ...

........................................................................
.............................. CYCLE   18 ..............................
........................................................................

 iter      E             dE          RMSdq      gap      omega  full diag
   1   -244.6658102 -0.244666E+03  0.241E-02    1.03       0.0  T
   2   -244.6658104 -0.188119E-06  0.140E-02    1.03       1.0  T
   3   -244.6658098  0.564447E-06  0.230E-03    1.03       3.8  T
   4   -244.6658105 -0.609496E-06  0.882E-04    1.03      10.0  T
   5   -244.6658105 -0.273555E-07  0.468E-04    1.03      18.9  T
     SCC iter.                  ...        0 min,  0.335 sec
     gradient                   ...        0 min,  0.179 sec
 * total energy  :  -240.1425675 Eh     change       -0.1221967E-04 Eh
   gradient norm :     0.0004664 Eh/α   predicted    -0.4893833E-05 ( -59.95%)
   displ. norm   :     0.1851263 α      lambda       -0.1036705E-04
   maximum displ.:     0.1124015 α      in ANC's #3, #1, #8, ...

........................................................................
.............................. CYCLE   19 ..............................
........................................................................

 iter      E             dE          RMSdq      gap      omega  full diag
   1   -244.6661421 -0.244666E+03  0.218E-02    1.03       0.0  T
   2   -244.6661423 -0.136838E-06  0.127E-02    1.03       1.0  T
   3   -244.6661418  0.487233E-06  0.199E-03    1.03       4.4  T
   4   -244.6661423 -0.543059E-06  0.624E-04    1.03      14.2  T
   5   -244.6661423 -0.925615E-08  0.361E-04    1.03      24.5  T
     SCC iter.                  ...        0 min,  0.335 sec
     gradient                   ...        0 min,  0.191 sec
 * total energy  :  -240.1425811 Eh     change       -0.1359668E-04 Eh
   gradient norm :     0.0003824 Eh/α   predicted    -0.5265443E-05 ( -61.27%)
   displ. norm   :     0.2484588 α      lambda       -0.1387762E-04
   maximum displ.:     0.1491257 α      in ANC's #3, #1, #8, ...

........................................................................
.............................. CYCLE   20 ..............................
........................................................................

 iter      E             dE          RMSdq      gap      omega  full diag
   1   -244.6663554 -0.244666E+03  0.288E-02    1.03       0.0  T
   2   -244.6663556 -0.184965E-06  0.168E-02    1.03       1.0  T
   3   -244.6663551  0.457287E-06  0.188E-03    1.03       4.7  T
   4   -244.6663557 -0.541684E-06  0.599E-04    1.03      14.8  T
   5   -244.6663557 -0.194554E-07  0.203E-04    1.03      43.4  T
     SCC iter.                  ...        0 min,  0.332 sec
     gradient                   ...        0 min,  0.190 sec
 * total energy  :  -240.1425980 Eh     change       -0.1690237E-04 Eh
   gradient norm :     0.0007815 Eh/α   predicted    -0.7132427E-05 ( -57.80%)
   displ. norm   :     0.2994133 α      lambda       -0.1267211E-04
   maximum displ.:     0.1780437 α      in ANC's #3, #1, #8, ...
 * RMSD in coord.:     0.2111410 α      energy gain  -0.1714737E-01 Eh

generating ANC from exact Hessian ...
Using Lindh-Hessian (1995)
 Shifting diagonal of input Hessian by   9.860713769060062E-003
 Lowest  eigenvalues of input Hessian
    0.000000    0.000000    0.000000    0.000000    0.000000    0.000000
    0.010000    0.010164    0.010269    0.010473    0.010530    0.011474
    0.011529    0.011755    0.011957    0.012374    0.013317    0.013859
 Highest eigenvalues
    2.157886    2.161755    2.178423    2.201182    2.216008    2.223058
 

........................................................................
.............................. CYCLE   21 ..............................
........................................................................

 iter      E             dE          RMSdq      gap      omega  full diag
   1   -244.6664501 -0.244666E+03  0.344E-02    1.03       0.0  T
   2   -244.6664503 -0.207989E-06  0.201E-02    1.03       1.0  T
   3   -244.6664498  0.536256E-06  0.203E-03    1.03       4.3  T
   4   -244.6664504 -0.631178E-06  0.736E-04    1.03      12.0  T
   5   -244.6664504 -0.136874E-07  0.424E-04    1.03      20.8  T
     SCC iter.                  ...        0 min,  0.326 sec
     gradient                   ...        0 min,  0.169 sec
 * total energy  :  -240.1426112 Eh     change       -0.1327923E-04 Eh
   gradient norm :     0.0008943 Eh/α   predicted     0.0000000E+00 (-100.00%)
   displ. norm   :     0.0198307 α      lambda       -0.2258991E-05
   maximum displ.:     0.0109454 α      in ANC's #7, #10, #13, ...

........................................................................
.............................. CYCLE   22 ..............................
........................................................................

 iter      E             dE          RMSdq      gap      omega  full diag
   1   -244.6664104 -0.244666E+03  0.398E-03    1.03       0.0  T
   2   -244.6664104 -0.204448E-07  0.232E-03    1.03       3.8  T
   3   -244.6664103  0.168906E-06  0.121E-03    1.03       7.3  T
   4   -244.6664104 -0.177462E-06  0.313E-04    1.03      28.3  T
   5   -244.6664104 -0.793597E-08  0.141E-04    1.03      62.6  T
     SCC iter.                  ...        0 min,  0.332 sec
     gradient                   ...        0 min,  0.169 sec
 * total energy  :  -240.1426152 Eh     change       -0.3909319E-05 Eh
   gradient norm :     0.0003745 Eh/α   predicted    -0.1496515E-05 ( -61.72%)
   displ. norm   :     0.0890879 α      lambda       -0.9828240E-05
   maximum displ.:     0.0497284 α      in ANC's #7, #10, #13, ...

   *** GEOMETRY OPTIMIZATION CONVERGED AFTER 22 ITERATIONS ***

------------------------------------------------------------------------
 total energy gain   :        -0.0171646 Eh      -10.7709 kcal/mol
 total RMSD          :         0.2110819 a0        0.1117 Å
 total power (kW/mol):        -2.0484340 (step)   -3.4743 (real)
------------------------------------------------------------------------

 ANCopt (total)                0 d,  0 h,  0 min, 12.971 sec
 optimizer setup                ...        0 min,  0.001 sec (  0.008%)
 model hessian                  ...        0 min,  0.230 sec (  1.773%)
 ANC generation                 ...        0 min,  0.063 sec (  0.486%)
 coordinate transformation      ...        0 min,  0.005 sec (  0.039%)
 single point calculation       ...        0 min, 12.610 sec ( 97.217%)
 optimization log               ...        0 min,  0.045 sec (  0.347%)
 hessian update                 ...        0 min,  0.003 sec (  0.023%)
 rational function              ...        0 min,  0.009 sec (  0.069%)

================
 final structure:
================
128
 xtb: 6.7.1pre (5071a88)
C           -3.72578732756115        6.89391890626937        0.33716631214662
C            0.50503439384117        7.40064714194896        0.68238580902598
C           -1.49021952160151        5.97036528934735        0.37206962300025
C            4.70356224038992        8.00428969310809        0.45010550728984
C            2.73582970787049        6.51055278698714        0.40962855008911
C            0.78942066207832        5.03594997167500        0.27385831229346
C           -2.37894228665071        7.06544228623324        0.41390418858358
C           -4.29520411291589        5.60976118340153        0.21867793059844
C            1.85670116591853        7.57323345059161        0.67643937691840
C           -0.07109677897511        6.14358170337216        0.44255716378294
C           -2.02666505860682        4.67681370880101        0.23180997870629
C            6.85889877982266        7.21928393829973       -0.16849148485134
C            4.99119462526831        5.63651436028607       -0.06830966509726
C            3.06529616541532        4.10602768650994        0.02383355883264
C            5.29309856006695        3.16151755488185       -0.31370948339856
C            7.50373224037496        2.15655853644780       -0.60442516138519
C            6.03652585013235        8.25415018971066        0.23740921018697
C            4.15244644751006        6.72517536341320        0.28153035801052
C            2.19788052969933        5.22239809851479        0.23296707502959
C            0.23775777190953        3.73244370910054        0.15177855905902
C            6.34345078695450        5.94444824652703       -0.31216101166843
C            4.45453631811262        4.29965335666097       -0.13913269277579
C            2.50587269567410        2.79899388494563       -0.01037832584013
C            6.69040579699626        3.25218338950129       -0.55472356278632
C            4.75152809775010        1.85204048298691       -0.22576998020986
C            6.99085554835291        0.86011389894693       -0.43766793732368
C           -8.28027987098310        6.31386156403969        0.07898519343376
C           -5.69452125187411        5.42233169702448        0.13964763038091
C           -7.67524199226905        3.93465473059624       -0.09914727942978
C           -3.43210607193708        4.49082836329243        0.16742830052964
C           -5.38023631740368        3.02532827334439       -0.03301981061958
C           -7.31492350664554        1.53308244448764       -0.28036278817991
C           -1.16083238949463        3.55121228973132        0.15423750705292
C           -3.11498023485055        2.06817584921022        0.02107501729036
C           -5.05389207495228        0.59418822728320       -0.16438102235685
C           -6.99091652712239       -0.86000249888272       -0.43691240110282
C           -8.60971432044472        5.02845493334845       -0.05728439813304
C           -6.25458497936580        4.15736353561527        0.00529636736129
C           -8.15937321566683        2.66583735490151       -0.24469231653658
C           -3.97941312323550        3.19406547744146        0.05051168912925
C           -5.90888147136343        1.71936857965100       -0.15924912873616
C           -7.82636489907289        0.25581802069449       -0.43363523062028
C            1.09899585648789        2.61231253412153        0.05713037469134
C           -6.69060649591781       -3.25210477460073       -0.55354615235056
C            2.37929291100891       -7.06541546120198        0.41423257108279
C           -0.85556071782101        1.12619991805954        0.03512800505256
C            8.15947273527373       -2.66563037250965       -0.24481898493601
C           -2.80153939716672       -0.36360162356992       -0.05060650429283
C            6.25476060511523       -4.15718236026199        0.00557164180491
C           -4.75159538472399       -1.85200957345800       -0.22513562284368
C            4.29545123587322       -5.60961291215683        0.21920892770537
C            3.34994597255282        1.67243052322760       -0.09456556680452
C           -4.45465342553525       -4.29962431769226       -0.13848910834972
C            1.40303382685854        0.18083577433193        0.00404343117175
C           -6.34396320252657       -5.94420632795183       -0.30979196932849
C           -0.54954140157706       -1.31084169554792        0.03040636212621
C            8.60992756854048       -5.02818045456150       -0.05686097069653
C           -2.50590405428473       -2.79904493801067       -0.01004671782822
C            5.59046361873034        0.70857893569432       -0.27785201425892
C           -2.19785878667837       -5.22255541376326        0.23243793611274
C            3.65138635150852       -0.76885077349034       -0.06419865641176
C           -4.15267022967264       -6.72505418425575        0.28252237120551
C            1.71020629125182       -2.24996259306053        0.06868811900550
C           -6.03733729519470       -8.25338550547401        0.24211054109101
C           -0.23772496334466       -3.73258095383630        0.15149378298107
C            7.82634593485976       -0.25567322538192       -0.43425837807478
C            0.07122032070584       -6.14395195316553        0.44058893210126
C            5.90893274902478       -1.71926612443533       -0.15950530209162
C           -1.85652073486391       -7.57412453106975        0.67204230223839
C            3.97950764146133       -3.19402046889796        0.05044290173888
C            2.02677912015940       -4.67688939925841        0.23142245847911
C           -1.71017578416367        2.24988161252300        0.06894425025441
C            7.31496339104996       -1.53292913597813       -0.28070220762438
C           -0.50486423515612       -7.40155304895542        0.67768999017813
C           -3.65137599505373        0.76884538780895       -0.06384770565058
C            5.38033564704940       -3.02521968334414       -0.03302252559040
C           -5.59050267598728       -0.70851906588511       -0.27724599363177
C            3.43224188451055       -4.49078992977323        0.16746913967827
C           -7.50388470363939       -2.15644994098649       -0.60331548699475
C            1.49038933114357       -5.97051833282026        0.37126568849211
C            0.54954160599748        1.31074269852766        0.03033440369442
C           -1.40303518135868       -0.18092325302149        0.00424525619649
C            7.67540463234039       -3.93443340149597       -0.09895208056783
C           -3.34998339026812       -1.67245911553331       -0.09409529808966
C            5.69476271375053       -5.42213615361487        0.14026898858563
C           -5.29323115994161       -3.16146888669936       -0.31289111598086
C            3.72614999640119       -6.89376050056227        0.33820105826811
C            2.80152439550439        0.36356502122259       -0.05097130607260
C           -4.99147371283585       -5.63638432654473       -0.06707824074594
C            0.85556803263607       -1.12629373819907        0.03499076797206
C           -6.85964279300720       -7.21876791560937       -0.16458341581624
C           -1.09899459287148       -2.61241832186315        0.05722639822850
C            8.28055847859249       -6.31356390881858        0.07977975326934
C           -3.06534859046481       -4.10607110105193        0.02412964983850
C            5.05389456892223       -0.59413187780507       -0.16479211864632
C           -2.73580428633091       -6.51080299286152        0.40843880773047
C            3.11501335366019       -2.06818932365438        0.02081572752569
C           -4.70410783719367       -8.00373271262580        0.45336460978439
C            1.16088130415477       -3.55132560153970        0.15384378868966
C           -0.78935443849254       -5.03617700796837        0.27296628825674
H           -4.37454551546244        7.75620672100263        0.36270814287367
H           -0.11785099765721        8.25610011915671        0.88396872933674
H            4.07857448005581        8.82771630337780        0.74911594429854
H           -1.99708766331129        8.06970310884367        0.49018162840620
H            2.23671061404932        8.56218208876819        0.86774515256571
H            7.90544065677893        7.38520096511614       -0.37343901748851
H            8.56120526538282        2.28966580732976       -0.77800500564283
H            6.43826951355204        9.24644732483906        0.37331854541188
H           -9.00722345328082        7.10891483795502        0.10986606502173
H           -9.65587050879128        4.76794026561656       -0.14174360153103
H           -9.22509382513197        2.50862478187620       -0.33076906825087
H           -8.89155028244838        0.11572671381559       -0.54642916971187
H            1.99768383846851       -8.06971045346778        0.49113136724115
H            9.22518215719215       -2.50838613627643       -0.33097273128012
H            9.65606791826019       -4.76764039752089       -0.14143557349708
H           -6.43934912664541       -9.24533796264711        0.37972988415093
H            8.89151806634228       -0.11556683592663       -0.54715856092296
H           -2.23638118635700       -8.56363555414081        0.86069536224058
H            0.11799354913455       -8.25762662822806        0.87663969269568
H           -8.56140375497794       -2.28954558401370       -0.77662352682600
H            4.37500090913211       -7.75594717224353        0.36472812216654
H           -7.90635028348683       -7.38462452930854       -0.36872792573965
H            9.00754050607850       -7.10857400393104        0.11086412360307
H           -4.07923454693840       -8.82689083612281        0.75335991497357
S           -7.50890136460362       -4.76694909079737       -0.86639681723160
S           -6.65859647130606        6.89837372648101        0.22277383106288
S            7.50843711234528        4.76701370092097       -0.86830608004142
S            6.65891073342939       -6.89810813141532        0.22381325288313
 
 Bond Distances (Angstroems)
 ---------------------------
C1-C7=1.3599         C1-C8=1.4097         C1-H101=1.0794       C2-C9=1.3627         C2-C10=1.4034        C2-H102=1.0772       
C3-C7=1.4109         C3-C10=1.4314        C3-C11=1.4074        C4-C17=1.3728        C4-C18=1.4030        C4-H103=1.0761       
C5-C9=1.4048         C5-C18=1.4385        C5-C19=1.4071        C6-C10=1.4127        C6-C19=1.4213        C6-C20=1.4207        
C7-C1=1.3599         C7-C3=1.4109         C7-H104=1.0771       C8-C1=1.4097         C8-C28=1.4140        C8-C30=1.4141        
C9-C2=1.3627         C9-C5=1.4048         C9-H105=1.0766       C10-C2=1.4034        C10-C3=1.4314        C10-C6=1.4127        
C11-C3=1.4074        C11-C30=1.4192       C11-C33=1.4222       C12-C17=1.3828       C12-C21=1.3826       C12-H106=1.0793      
C13-C18=1.4181       C13-C21=1.4081       C13-C22=1.4423       C14-C19=1.4291       C14-C22=1.4121       C14-C23=1.4221       
C15-C22=1.4244       C15-C24=1.4208       C15-C25=1.4198       C16-C24=1.3654       C16-C26=1.4041       C16-H107=1.0799      
C17-C4=1.3728        C17-C12=1.3828       C17-H108=1.0791      C18-C4=1.4030        C18-C5=1.4385        C18-C13=1.4181       
C19-C5=1.4071        C19-C6=1.4213        C19-C14=1.4291       C20-C6=1.4207        C20-C33=1.4103       C20-C43=1.4161       
C21-C12=1.3826       C21-C13=1.4081       C21-S127=1.7472      C22-C13=1.4423       C22-C14=1.4121       C22-C15=1.4244       
C23-C14=1.4221       C23-C43=1.4208       C23-C52=1.4102       C24-C15=1.4208       C24-C16=1.3654       C24-S127=1.7499      
C25-C15=1.4198       C25-C52=1.4191       C25-C59=1.4192       C26-C16=1.4041       C26-C59=1.4176       C26-C66=1.3939       
C27-C37=1.3339       C27-H109=1.0777      C27-S126=1.7298      C28-C8=1.4140        C28-C38=1.3899       C28-S126=1.7650      
C29-C37=1.4392       C29-C38=1.4418       C29-C39=1.3658       C30-C8=1.4141        C30-C11=1.4192       C30-C40=1.4124       
C31-C38=1.4309       C31-C40=1.4134       C31-C41=1.4145       C32-C39=1.4133       C32-C41=1.4235       C32-C42=1.3844       
C33-C11=1.4222       C33-C20=1.4103       C33-C72=1.4151       C34-C40=1.4198       C34-C72=1.4173       C34-C75=1.4083       
C35-C41=1.4132       C35-C75=1.4169       C35-C77=1.4134       C36-C42=1.3939       C36-C77=1.4176       C36-C79=1.4041       
C37-C27=1.3339       C37-C29=1.4392       C37-H110=1.0814      C38-C28=1.3899       C38-C29=1.4418       C38-C31=1.4309       
C39-C29=1.3658       C39-C32=1.4133       C39-H111=1.0807      C40-C30=1.4124       C40-C31=1.4134       C40-C34=1.4198       
C41-C31=1.4145       C41-C32=1.4235       C41-C35=1.4132       C42-C32=1.3844       C42-C36=1.3939       C42-H112=1.0803      
C43-C20=1.4161       C43-C23=1.4208       C43-C81=1.4130       C44-C79=1.3654       C44-C86=1.4208       C44-S125=1.7499      
C45-C80=1.4110       C45-C87=1.3599       C45-H113=1.0771      C46-C72=1.4122       C46-C81=1.4172       C46-C82=1.4175       
C47-C73=1.4133       C47-C83=1.3658       C47-H114=1.0807      C48-C75=1.4159       C48-C82=1.4115       C48-C84=1.4198       
C49-C76=1.4309       C49-C83=1.4418       C49-C85=1.3899       C50-C77=1.4192       C50-C84=1.4191       C50-C86=1.4198       
C51-C78=1.4141       C51-C85=1.4140       C51-C87=1.4097       C52-C23=1.4102       C52-C25=1.4191       C52-C88=1.4198       
C53-C86=1.4244       C53-C89=1.4423       C53-C94=1.4121       C54-C81=1.4163       C54-C88=1.4115       C54-C90=1.4175       
C55-C89=1.4082       C55-C91=1.3826       C55-S125=1.7472      C56-C82=1.4163       C56-C90=1.4172       C56-C92=1.4131       
C57-C83=1.4392       C57-C93=1.3339       C57-H115=1.0814      C58-C84=1.4102       C58-C92=1.4208       C58-C94=1.4221       
C59-C25=1.4192       C59-C26=1.4176       C59-C95=1.4134       C60-C94=1.4291       C60-C96=1.4071       C60-C100=1.4214      
C61-C88=1.4159       C61-C95=1.4169       C61-C97=1.4083       C62-C89=1.4181       C62-C96=1.4385       C62-C98=1.4030       
C63-C90=1.4122       C63-C97=1.4173       C63-C99=1.4151       C64-C91=1.3828       C64-C98=1.3728       C64-H116=1.0791      
C65-C92=1.4161       C65-C99=1.4103       C65-C100=1.4207      C66-C26=1.3939       C66-C73=1.3844       C66-H117=1.0803      
C67-C74=1.4034       C67-C80=1.4314       C67-C100=1.4127      C68-C73=1.4235       C68-C76=1.4145       C68-C95=1.4132       
C69-C74=1.3626       C69-C96=1.4047       C69-H118=1.0766      C70-C76=1.4134       C70-C78=1.4124       C70-C97=1.4198       
C71-C78=1.4192       C71-C80=1.4074       C71-C99=1.4222       C72-C33=1.4151       C72-C34=1.4173       C72-C46=1.4122       
C73-C47=1.4133       C73-C66=1.3844       C73-C68=1.4235       C74-C67=1.4034       C74-C69=1.3626       C74-H119=1.0772      
C75-C34=1.4083       C75-C35=1.4169       C75-C48=1.4159       C76-C49=1.4309       C76-C68=1.4145       C76-C70=1.4134       
C77-C35=1.4134       C77-C36=1.4176       C77-C50=1.4192       C78-C51=1.4141       C78-C70=1.4124       C78-C71=1.4192       
C79-C36=1.4041       C79-C44=1.3654       C79-H120=1.0799      C80-C45=1.4110       C80-C67=1.4314       C80-C71=1.4074       
C81-C43=1.4130       C81-C46=1.4172       C81-C54=1.4163       C82-C46=1.4175       C82-C48=1.4115       C82-C56=1.4163       
C83-C47=1.3658       C83-C49=1.4418       C83-C57=1.4392       C84-C48=1.4198       C84-C50=1.4191       C84-C58=1.4102       
C85-C49=1.3899       C85-C51=1.4140       C85-S128=1.7650      C86-C44=1.4208       C86-C50=1.4198       C86-C53=1.4244       
C87-C45=1.3599       C87-C51=1.4097       C87-H121=1.0794      C88-C52=1.4198       C88-C54=1.4115       C88-C61=1.4159       
C89-C53=1.4423       C89-C55=1.4082       C89-C62=1.4181       C90-C54=1.4175       C90-C56=1.4172       C90-C63=1.4122       
C91-C55=1.3826       C91-C64=1.3828       C91-H122=1.0792      C92-C56=1.4131       C92-C58=1.4208       C92-C65=1.4161       
C93-C57=1.3339       C93-H123=1.0777      C93-S128=1.7298      C94-C53=1.4121       C94-C58=1.4221       C94-C60=1.4291       
C95-C59=1.4134       C95-C61=1.4169       C95-C68=1.4132       C96-C60=1.4071       C96-C62=1.4385       C96-C69=1.4047       
C97-C61=1.4083       C97-C63=1.4173       C97-C70=1.4198       C98-C62=1.4030       C98-C64=1.3728       C98-H124=1.0761      
C99-C63=1.4151       C99-C65=1.4103       C99-C71=1.4222       C100-C60=1.4214      C100-C65=1.4207      C100-C67=1.4127      
H101-C1=1.0794       H102-C2=1.0772       H103-C4=1.0761       H104-C7=1.0771       H105-C9=1.0766       H106-C12=1.0793      
H107-C16=1.0799      H108-C17=1.0791      H109-C27=1.0777      H110-C37=1.0814      H111-C39=1.0807      H112-C42=1.0803      
H113-C45=1.0771      H114-C47=1.0807      H115-C57=1.0814      H116-C64=1.0791      H117-C66=1.0803      H118-C69=1.0766      
H119-C74=1.0772      H120-C79=1.0799      H121-C87=1.0794      H122-C91=1.0792      H123-C93=1.0777      H124-C98=1.0761      
S125-C44=1.7499      S125-C55=1.7472      S126-C27=1.7298      S126-C28=1.7650      S127-C21=1.7472      S127-C24=1.7499      
S128-C85=1.7650      S128-C93=1.7298      
 C  H  Rav=1.0787 sigma=0.0017  Rmin=1.0761  Rmax=1.0814    24
 C  C  Rav=1.4099 sigma=0.0198  Rmin=1.3339  Rmax=1.4423   134
 S  C  Rav=1.7480 sigma=0.0125  Rmin=1.7298  Rmax=1.7650     8
 
 selected bond angles (degree)
 --------------------
C8-C1-C7=121.31                H101-C1-C7=119.55              H101-C1-C8=119.14              C10-C2-C9=121.33               
H102-C2-C9=118.28              H102-C2-C10=120.39             C10-C3-C7=121.94               C11-C3-C7=118.44               
C11-C3-C10=119.61              C18-C4-C17=121.92              H103-C4-C17=117.89             H103-C4-C18=120.19             
C18-C5-C9=121.36               C19-C5-C9=118.50               C19-C5-C18=120.13              C19-C6-C10=120.28              
C20-C6-C10=119.54              C20-C6-C19=120.18              C3-C7-C1=121.62                H104-C7-C1=118.21              
H104-C7-C3=120.16              C28-C8-C1=121.68               C30-C8-C1=118.51               C30-C8-C28=119.81              
C5-C9-C2=121.72                H105-C9-C2=117.76              H105-C9-C5=120.51              C3-C10-C2=121.59               
C6-C10-C2=118.20               C6-C10-C3=120.21               
 
 selected dihedral angles (degree)
 ---------------------------------
C3-C7-C1-C8=  0.32            C3-C7-C1-H101=180.60          H104-C7-C1-C8=179.20          H104-C7-C1-H101=359.48        
C1-C7-C3-C10=179.54           C1-C7-C3-C11=  0.73           H104-C7-C3-C10=  0.68         H104-C7-C3-C11=181.88         
C28-C8-C1-C7=179.94           C28-C8-C1-H101=359.66         C30-C8-C1-C7=359.40           C30-C8-C1-H101=179.12         
C5-C9-C2-C10=  1.05           C5-C9-C2-H102=180.61          H105-C9-C2-C10=180.02         H105-C9-C2-H102=359.59        
C2-C9-C5-C18=174.10           C2-C9-C5-C19=355.75           H105-C9-C5-C18=355.16         H105-C9-C5-C19=176.81         
C3-C10-C2-C9=183.61           C3-C10-C2-H102=  4.05         C6-C10-C2-C9=  3.81           C6-C10-C2-H102=184.25         
C2-C10-C3-C7=  6.05           C2-C10-C3-C11=184.84          C6-C10-C3-C7=185.85           C6-C10-C3-C11=  4.64          
C2-C10-C6-C19=354.59          C2-C10-C6-C20=174.28          C3-C10-C6-C19=174.78          C3-C10-C6-C20=354.47          
           -------------------------------------------------
          |                Final Singlepoint                |
           -------------------------------------------------

          ...................................................
          :                      SETUP                      :
          :.................................................:
          :  # basis functions                 464          :
          :  # atomic orbitals                 460          :
          :  # shells                          236          :
          :  # electrons                       448          :
          :  max. iterations                   250          :
          :  Hamiltonian                  GFN2-xTB          :
          :  restarted?                      false          :
          :  GBSA solvation                  false          :
          :  PC potential                    false          :
          :  electronic temp.          300.0000000     K    :
          :  accuracy                    1.0000000          :
          :  -> integral cutoff          0.2500000E+02      :
          :  -> integral neglect         0.1000000E-07      :
          :  -> SCF convergence          0.1000000E-05 Eh   :
          :  -> wf. convergence          0.1000000E-03 e    :
          :  Broyden damping             0.4000000          :
          :  net charge                          0          :
          :  unpaired electrons                  0          :
          ...................................................

 iter      E             dE          RMSdq      gap      omega  full diag
   1   -244.6664104 -0.244666E+03  0.470E-05    1.03       0.0  T
   2   -244.6664104  0.189004E-10  0.358E-05    1.03     247.0  T
   3   -244.6664104 -0.157797E-09  0.177E-05    1.03     498.1  T

   *** convergence criteria satisfied after 3 iterations ***

         #    Occupation            Energy/Eh            Energy/eV
      -------------------------------------------------------------
         1        2.0000           -0.7332681             -19.9532
       ...           ...                  ...                  ...
       218        2.0000           -0.3807533             -10.3608
       219        2.0000           -0.3761512             -10.2356
       220        2.0000           -0.3670845              -9.9889
       221        2.0000           -0.3557181              -9.6796
       222        2.0000           -0.3512407              -9.5577
       223        2.0000           -0.3496703              -9.5150
       224        2.0000           -0.3407171              -9.2714 (HOMO)
       225                         -0.3030447              -8.2463 (LUMO)
       226                         -0.2943343              -8.0092
       227                         -0.2833508              -7.7104
       228                         -0.2734566              -7.4411
       229                         -0.2679408              -7.2910
       ...                                ...                  ...
       460                          0.7798439              21.2206
      -------------------------------------------------------------
                  HL-Gap            0.0376725 Eh            1.0251 eV
             Fermi-level           -0.3218809 Eh           -8.7588 eV

 SCC (total)                   0 d,  0 h,  0 min,  0.418 sec
 SCC setup                      ...        0 min,  0.001 sec (  0.239%)
 Dispersion                     ...        0 min,  0.004 sec (  0.957%)
 classical contributions        ...        0 min,  0.001 sec (  0.239%)
 integral evaluation            ...        0 min,  0.040 sec (  9.569%)
 iterations                     ...        0 min,  0.195 sec ( 46.651%)
 molecular gradient             ...        0 min,  0.171 sec ( 40.909%)
 printout                       ...        0 min,  0.006 sec (  1.435%)

         :::::::::::::::::::::::::::::::::::::::::::::::::::::
         ::                     SUMMARY                     ::
         :::::::::::::::::::::::::::::::::::::::::::::::::::::
         :: total energy            -240.142615154797 Eh    ::
         :: gradient norm              0.000375510264 Eh/a0 ::
         :: HOMO-LUMO gap              1.025119670492 eV    ::
         ::.................................................::
         :: SCC energy              -244.674339969573 Eh    ::
         :: -> isotropic ES            0.004351565583 Eh    ::
         :: -> anisotropic ES          0.008556651152 Eh    ::
         :: -> anisotropic XC          0.086822085691 Eh    ::
         :: -> dispersion             -0.295831643076 Eh    ::
         :: repulsion energy           4.531724814776 Eh    ::
         :: add. restraining           0.000000000000 Eh    ::
         :: total charge              -0.000000000000 e     ::
         :::::::::::::::::::::::::::::::::::::::::::::::::::::

           -------------------------------------------------
          |                Property Printout                |
           -------------------------------------------------

    * Orbital Energies and Occupations

         #    Occupation            Energy/Eh            Energy/eV
      -------------------------------------------------------------
         1        2.0000           -0.7332681             -19.9532
       ...           ...                  ...                  ...
       212        2.0000           -0.3983162             -10.8387
       213        2.0000           -0.3930313             -10.6949
       214        2.0000           -0.3918659             -10.6632
       215        2.0000           -0.3898079             -10.6072
       216        2.0000           -0.3886909             -10.5768
       217        2.0000           -0.3838715             -10.4457
       218        2.0000           -0.3807533             -10.3608
       219        2.0000           -0.3761512             -10.2356
       220        2.0000           -0.3670845              -9.9889
       221        2.0000           -0.3557181              -9.6796
       222        2.0000           -0.3512407              -9.5577
       223        2.0000           -0.3496703              -9.5150
       224        2.0000           -0.3407171              -9.2714 (HOMO)
       225                         -0.3030447              -8.2463 (LUMO)
       226                         -0.2943343              -8.0092
       227                         -0.2833508              -7.7104
       228                         -0.2734566              -7.4411
       229                         -0.2679408              -7.2910
       230                         -0.2673651              -7.2754
       231                         -0.2656895              -7.2298
       232                         -0.2604506              -7.0872
       233                         -0.2577198              -7.0129
       234                         -0.2533093              -6.8929
       235                         -0.2465794              -6.7098
       ...                                ...                  ...
       460                          0.7798439              21.2206
      -------------------------------------------------------------
                  HL-Gap            0.0376725 Eh            1.0251 eV
             Fermi-level           -0.3218809 Eh           -8.7588 eV

     #   Z          covCN         q      C6AA      α(0)
     1   6 C        2.922    -0.036    28.895     8.815
     2   6 C        2.919    -0.037    28.928     8.820
     3   6 C        2.982     0.006    27.885     8.662
     4   6 C        2.925    -0.043    29.067     8.841
     5   6 C        2.982     0.004    27.929     8.669
     6   6 C        2.990     0.002    27.981     8.677
     7   6 C        2.918    -0.035    28.874     8.812
     8   6 C        3.046    -0.002    28.033     8.684
     9   6 C        2.920    -0.037    28.928     8.820
    10   6 C        2.983     0.005    27.912     8.666
    11   6 C        2.991     0.003    27.958     8.674
    12   6 C        3.026    -0.044    29.058     8.842
    13   6 C        3.003     0.000    28.008     8.681
    14   6 C        2.983    -0.003    28.089     8.694
    15   6 C        3.000    -0.001    28.051     8.688
    16   6 C        3.032    -0.055    29.326     8.883
    17   6 C        2.916    -0.029    28.727     8.789
    18   6 C        2.985     0.006    27.874     8.660
    19   6 C        2.988     0.002    27.971     8.675
    20   6 C        2.988    -0.000    28.022     8.683
    21   6 C        2.972     0.047    26.943     8.514
    22   6 C        2.972     0.003    27.943     8.671
    23   6 C        2.986     0.000    28.014     8.682
    24   6 C        2.965     0.045    26.996     8.522
    25   6 C        2.990     0.001    28.007     8.681
    26   6 C        2.984     0.013    27.726     8.637
    27   6 C        2.888    -0.000    28.032     8.680
    28   6 C        2.965     0.034    27.247     8.562
    29   6 C        2.968     0.012    27.738     8.639
    30   6 C        2.993     0.002    27.971     8.676
    31   6 C        2.989    -0.001    28.037     8.686
    32   6 C        2.979     0.012    27.731     8.638
    33   6 C        2.988    -0.001    28.048     8.687
    34   6 C        2.989     0.000    28.018     8.683
    35   6 C        2.990     0.001    27.986     8.678
    36   6 C        2.984     0.013    27.726     8.637
    37   6 C        2.956    -0.041    29.029     8.837
    38   6 C        3.003     0.003    27.954     8.673
    39   6 C        2.930    -0.053    29.318     8.880
    40   6 C        2.988    -0.005    28.132     8.701
    41   6 C        2.993     0.000    28.009     8.681
    42   6 C        2.926    -0.050    29.244     8.868
    43   6 C        2.987    -0.001    28.035     8.685
    44   6 C        2.965     0.045    26.996     8.522
    45   6 C        2.918    -0.035    28.874     8.812
    46   6 C        2.989    -0.000    28.027     8.684
    47   6 C        2.930    -0.053    29.318     8.880
    48   6 C        2.988    -0.001    28.038     8.686
    49   6 C        3.003     0.003    27.954     8.673
    50   6 C        2.990     0.001    28.007     8.681
    51   6 C        3.046    -0.002    28.033     8.684
    52   6 C        2.988     0.000    28.010     8.682
    53   6 C        2.972     0.003    27.943     8.671
    54   6 C        2.989    -0.001    28.048     8.687
    55   6 C        2.972     0.047    26.943     8.514
    56   6 C        2.989     0.000    28.018     8.683
    57   6 C        2.956    -0.041    29.029     8.837
    58   6 C        2.986     0.000    28.014     8.682
    59   6 C        2.994    -0.005    28.130     8.700
    60   6 C        2.988     0.002    27.971     8.675
    61   6 C        2.991     0.000    28.014     8.682
    62   6 C        2.985     0.006    27.874     8.660
    63   6 C        2.989    -0.000    28.030     8.685
    64   6 C        2.916    -0.029    28.727     8.789
    65   6 C        2.988    -0.000    28.022     8.683
    66   6 C        2.926    -0.050    29.244     8.868
    67   6 C        2.983     0.005    27.912     8.666
    68   6 C        2.993     0.000    28.009     8.681
    69   6 C        2.920    -0.037    28.928     8.820
    70   6 C        2.988    -0.005    28.132     8.701
    71   6 C        2.991     0.003    27.958     8.674
    72   6 C        2.989    -0.000    28.030     8.685
    73   6 C        2.979     0.012    27.731     8.638
    74   6 C        2.919    -0.037    28.928     8.820
    75   6 C        2.991     0.000    28.014     8.682
    76   6 C        2.989    -0.001    28.037     8.686
    77   6 C        2.994    -0.005    28.130     8.700
    78   6 C        2.993     0.002    27.971     8.676
    79   6 C        3.032    -0.055    29.326     8.883
    80   6 C        2.982     0.006    27.885     8.662
    81   6 C        2.989     0.000    28.018     8.683
    82   6 C        2.989    -0.001    28.048     8.687
    83   6 C        2.968     0.012    27.738     8.639
    84   6 C        2.988     0.000    28.010     8.682
    85   6 C        2.965     0.034    27.247     8.562
    86   6 C        3.000    -0.001    28.051     8.688
    87   6 C        2.922    -0.036    28.895     8.815
    88   6 C        2.988    -0.001    28.038     8.686
    89   6 C        3.003     0.000    28.008     8.681
    90   6 C        2.989    -0.000    28.027     8.684
    91   6 C        3.026    -0.044    29.058     8.842
    92   6 C        2.987    -0.001    28.035     8.685
    93   6 C        2.888    -0.000    28.032     8.680
    94   6 C        2.983    -0.003    28.089     8.694
    95   6 C        2.990     0.001    27.986     8.678
    96   6 C        2.982     0.004    27.929     8.669
    97   6 C        2.989     0.000    28.018     8.683
    98   6 C        2.925    -0.043    29.067     8.841
    99   6 C        2.988    -0.001    28.048     8.687
   100   6 C        2.990     0.002    27.981     8.677
   101   1 H        0.926     0.045     2.381     2.413
   102   1 H        0.926     0.035     2.519     2.482
   103   1 H        0.926     0.038     2.475     2.460
   104   1 H        0.926     0.037     2.489     2.467
   105   1 H        0.926     0.035     2.517     2.481
   106   1 H        0.926     0.041     2.430     2.438
   107   1 H        0.926     0.040     2.449     2.447
   108   1 H        0.926     0.036     2.499     2.472
   109   1 H        0.926     0.050     2.318     2.381
   110   1 H        0.925     0.042     2.419     2.432
   111   1 H        0.926     0.030     2.592     2.517
   112   1 H        0.926     0.032     2.554     2.499
   113   1 H        0.926     0.037     2.489     2.467
   114   1 H        0.926     0.030     2.592     2.517
   115   1 H        0.925     0.042     2.419     2.432
   116   1 H        0.926     0.036     2.499     2.472
   117   1 H        0.926     0.032     2.554     2.499
   118   1 H        0.926     0.035     2.517     2.481
   119   1 H        0.926     0.035     2.519     2.482
   120   1 H        0.926     0.040     2.449     2.447
   121   1 H        0.926     0.045     2.381     2.413
   122   1 H        0.926     0.041     2.430     2.438
   123   1 H        0.926     0.050     2.318     2.381
   124   1 H        0.926     0.038     2.475     2.460
   125  16 S        2.225    -0.111   145.696    20.315
   126  16 S        2.101    -0.071   143.985    20.196
   127  16 S        2.225    -0.111   145.695    20.315
   128  16 S        2.101    -0.071   143.985    20.196

 Mol. C6AA /au·bohr⁶  :     379887.544959
 Mol. C8AA /au·bohr⁸  :   11028779.705289
 Mol. α(0) /au        :       1010.375560


Wiberg/Mayer (AO) data.
largest (>0.10) Wiberg bond orders for each atom

 ---------------------------------------------------------------------------
     #   Z sym  total        # sym  WBO       # sym  WBO       # sym  WBO
 ---------------------------------------------------------------------------
     1   6 C    3.952 --     7 C    1.569     8 C    1.263   101 H    0.955
     2   6 C    3.961 --     9 C    1.538    10 C    1.297   102 H    0.960
     3   6 C    3.948 --    11 C    1.297     7 C    1.273    10 C    1.183
     4   6 C    3.978 --    17 C    1.479    18 C    1.338   103 H    0.959
     5   6 C    3.961 --    19 C    1.305     9 C    1.299    18 C    1.155
     6   6 C    3.976 --    10 C    1.281    19 C    1.248    20 C    1.223
     7   6 C    3.971 --     1 C    1.569     3 C    1.273   104 H    0.960
     8   6 C    3.968 --     1 C    1.263    28 C    1.254    30 C    1.253
     9   6 C    3.965 --     2 C    1.538     5 C    1.299   105 H    0.958
    10   6 C    3.959 --     2 C    1.297     6 C    1.281     3 C    1.183
    11   6 C    3.980 --     3 C    1.297    30 C    1.241    33 C    1.216
    12   6 C    3.973 --    21 C    1.423    17 C    1.395   106 H    0.967
    13   6 C    3.975 --    21 C    1.295    18 C    1.276    22 C    1.177
    14   6 C    3.970 --    22 C    1.305    23 C    1.236    19 C    1.201
    15   6 C    3.947 --    25 C    1.264    22 C    1.246    24 C    1.221
    16   6 C    3.945 --    24 C    1.510    26 C    1.254   107 H    0.964
    17   6 C    3.977 --     4 C    1.479    12 C    1.395   108 H    0.969
    18   6 C    3.973 --     4 C    1.338    13 C    1.276     5 C    1.155
    19   6 C    3.983 --     5 C    1.305     6 C    1.248    14 C    1.201
    20   6 C    3.962 --    33 C    1.278    43 C    1.242     6 C    1.223
    21   6 C    3.954 --    12 C    1.423    13 C    1.295   127 S    1.059
    22   6 C    3.951 --    14 C    1.305    15 C    1.246    13 C    1.177
    23   6 C    3.964 --    52 C    1.275    14 C    1.236    43 C    1.233
    24   6 C    3.942 --    16 C    1.510    15 C    1.221   127 S    1.052
    25   6 C    3.974 --    15 C    1.264    59 C    1.248    52 C    1.233
    26   6 C    3.972 --    66 C    1.329    16 C    1.254    59 C    1.226
    27   6 C    3.942 --    37 C    1.741   126 S    1.110   109 H    0.962
    28   6 C    3.896 --    38 C    1.387     8 C    1.254   126 S    1.055
    29   6 C    3.972 --    39 C    1.522    38 C    1.153    37 C    1.140
    30   6 C    3.977 --     8 C    1.253    40 C    1.252    11 C    1.241
    31   6 C    3.966 --    40 C    1.266    41 C    1.261    38 C    1.211
    32   6 C    3.972 --    42 C    1.388    39 C    1.226    41 C    1.204
    33   6 C    3.960 --    20 C    1.278    72 C    1.247    11 C    1.216
    34   6 C    3.963 --    75 C    1.278    72 C    1.237    40 C    1.229
    35   6 C    3.977 --    41 C    1.269    77 C    1.260    75 C    1.226
    36   6 C    3.972 --    42 C    1.329    79 C    1.254    77 C    1.226
    37   6 C    3.981 --    27 C    1.741    29 C    1.140   110 H    0.956
    38   6 C    3.972 --    28 C    1.387    31 C    1.211    29 C    1.153
    39   6 C    3.971 --    29 C    1.522    32 C    1.226   111 H    0.965
    40   6 C    3.977 --    31 C    1.266    30 C    1.252    34 C    1.229
    41   6 C    3.962 --    35 C    1.269    31 C    1.261    32 C    1.204
    42   6 C    3.893 --    32 C    1.388    36 C    1.329   112 H    0.966
    43   6 C    3.957 --    81 C    1.267    20 C    1.242    23 C    1.233
    44   6 C    3.942 --    79 C    1.510    86 C    1.221   125 S    1.052
    45   6 C    3.971 --    87 C    1.569    80 C    1.273   113 H    0.960
    46   6 C    3.964 --    72 C    1.262    82 C    1.242    81 C    1.242
    47   6 C    3.971 --    83 C    1.522    73 C    1.226   114 H    0.965
    48   6 C    3.961 --    82 C    1.265    75 C    1.242    84 C    1.236
    49   6 C    3.972 --    85 C    1.387    76 C    1.211    83 C    1.153
    50   6 C    3.974 --    86 C    1.264    77 C    1.248    84 C    1.233
    51   6 C    3.968 --    87 C    1.263    85 C    1.254    78 C    1.253
    52   6 C    3.966 --    23 C    1.275    88 C    1.236    25 C    1.233
    53   6 C    3.951 --    94 C    1.305    86 C    1.246    89 C    1.177
    54   6 C    3.960 --    88 C    1.265    90 C    1.242    81 C    1.237
    55   6 C    3.954 --    91 C    1.423    89 C    1.295   125 S    1.059
    56   6 C    3.964 --    92 C    1.267    90 C    1.242    82 C    1.237
    57   6 C    3.981 --    93 C    1.741    83 C    1.140   115 H    0.956
    58   6 C    3.964 --    84 C    1.275    94 C    1.236    92 C    1.233
    59   6 C    3.963 --    95 C    1.260    25 C    1.248    26 C    1.226
    60   6 C    3.983 --    96 C    1.305   100 C    1.248    94 C    1.201
    61   6 C    3.962 --    97 C    1.278    88 C    1.242    95 C    1.226
    62   6 C    3.973 --    98 C    1.338    89 C    1.276    96 C    1.155
    63   6 C    3.961 --    90 C    1.262    99 C    1.247    97 C    1.237
    64   6 C    3.977 --    98 C    1.479    91 C    1.395   116 H    0.969
    65   6 C    3.962 --    99 C    1.278    92 C    1.242   100 C    1.223
    66   6 C    3.893 --    73 C    1.388    26 C    1.329   117 H    0.966
    67   6 C    3.959 --    74 C    1.297   100 C    1.281    80 C    1.183
    68   6 C    3.962 --    95 C    1.269    76 C    1.261    73 C    1.204
    69   6 C    3.965 --    74 C    1.538    96 C    1.299   118 H    0.958
    70   6 C    3.977 --    76 C    1.266    78 C    1.252    97 C    1.229
    71   6 C    3.980 --    80 C    1.297    78 C    1.241    99 C    1.216
    72   6 C    3.961 --    46 C    1.262    33 C    1.247    34 C    1.237
    73   6 C    3.972 --    66 C    1.388    47 C    1.226    68 C    1.204
    74   6 C    3.961 --    69 C    1.538    67 C    1.297   119 H    0.960
    75   6 C    3.962 --    34 C    1.278    48 C    1.242    35 C    1.226
    76   6 C    3.966 --    70 C    1.266    68 C    1.261    49 C    1.211
    77   6 C    3.963 --    35 C    1.260    50 C    1.248    36 C    1.226
    78   6 C    3.977 --    51 C    1.253    70 C    1.252    71 C    1.241
    79   6 C    3.945 --    44 C    1.510    36 C    1.254   120 H    0.964
    80   6 C    3.948 --    71 C    1.297    45 C    1.273    67 C    1.183
    81   6 C    3.964 --    43 C    1.267    46 C    1.242    54 C    1.237
    82   6 C    3.960 --    48 C    1.265    46 C    1.242    56 C    1.237
    83   6 C    3.972 --    47 C    1.522    49 C    1.153    57 C    1.140
    84   6 C    3.966 --    58 C    1.275    48 C    1.236    50 C    1.233
    85   6 C    3.896 --    49 C    1.387    51 C    1.254   128 S    1.055
    86   6 C    3.947 --    50 C    1.264    53 C    1.246    44 C    1.221
    87   6 C    3.952 --    45 C    1.569    51 C    1.263   121 H    0.955
    88   6 C    3.961 --    54 C    1.265    61 C    1.242    52 C    1.236
    89   6 C    3.975 --    55 C    1.295    62 C    1.276    53 C    1.177
    90   6 C    3.964 --    63 C    1.262    54 C    1.242    56 C    1.242
    91   6 C    3.973 --    55 C    1.423    64 C    1.395   122 H    0.967
    92   6 C    3.957 --    56 C    1.267    65 C    1.242    58 C    1.233
    93   6 C    3.942 --    57 C    1.741   128 S    1.110   123 H    0.962
    94   6 C    3.970 --    53 C    1.305    58 C    1.236    60 C    1.201
    95   6 C    3.977 --    68 C    1.269    59 C    1.260    61 C    1.226
    96   6 C    3.961 --    60 C    1.305    69 C    1.299    62 C    1.155
    97   6 C    3.963 --    61 C    1.278    63 C    1.237    70 C    1.229
    98   6 C    3.978 --    64 C    1.479    62 C    1.338   124 H    0.959
    99   6 C    3.960 --    65 C    1.278    63 C    1.247    71 C    1.216
   100   6 C    3.976 --    67 C    1.281    60 C    1.248    65 C    1.223
   101   1 H    0.997 --     1 C    0.955
   102   1 H    0.997 --     2 C    0.960
   103   1 H    0.998 --     4 C    0.959
   104   1 H    0.998 --     7 C    0.960
   105   1 H    0.998 --     9 C    0.958
   106   1 H    0.997 --    12 C    0.967
   107   1 H    0.997 --    16 C    0.964
   108   1 H    0.997 --    17 C    0.969
   109   1 H    0.996 --    27 C    0.962
   110   1 H    0.997 --    37 C    0.956
   111   1 H    0.998 --    39 C    0.965
   112   1 H    0.998 --    42 C    0.966
   113   1 H    0.998 --    45 C    0.960
   114   1 H    0.998 --    47 C    0.965
   115   1 H    0.997 --    57 C    0.956
   116   1 H    0.997 --    64 C    0.969
   117   1 H    0.998 --    66 C    0.966
   118   1 H    0.998 --    69 C    0.958
   119   1 H    0.997 --    74 C    0.960
   120   1 H    0.997 --    79 C    0.964
   121   1 H    0.997 --    87 C    0.955
   122   1 H    0.997 --    91 C    0.967
   123   1 H    0.996 --    93 C    0.962
   124   1 H    0.998 --    98 C    0.959
   125  16 S    2.428 --    55 C    1.059    44 C    1.052
   126  16 S    2.486 --    27 C    1.110    28 C    1.055
   127  16 S    2.428 --    21 C    1.059    24 C    1.052
   128  16 S    2.486 --    93 C    1.110    85 C    1.055
 ---------------------------------------------------------------------------

Topologies differ in total number of bonds
Writing topology from bond orders to xtbtopo.mol

molecular dipole:
                 x           y           z       tot (Debye)
 q only:        0.000       0.000       0.310
   full:        0.000       0.000       0.380       0.965
molecular quadrupole (traceless):
                xx          xy          yy          xz          yz          zz
 q only:       -1.651     -22.356      24.156      -0.001      -0.001     -22.505
  q+dip:       25.427     -24.793      36.369      -0.007       0.000     -61.796
   full:        7.972     -25.947      18.823      -0.002       0.001     -26.795

           -------------------------------------------------
          |                Geometry Summary                 |
           -------------------------------------------------

      molecular mass/u    :     1353.5233176
   center of mass at/Å    :       -0.0000081       0.0000194      -0.0021168
  moments of inertia/u·Å² :        0.3055424E+05   0.3509248E+05   0.6533472E+05
rotational constants/cm⁻¹ :        0.5517281E-03   0.4803773E-03   0.2580195E-03

 * 156 selected distances

     #   Z          #   Z                                           value/Å
     1   6 C        7   6 C                                       1.3598900
     3   6 C        7   6 C                                       1.4109473
     1   6 C        8   6 C                                       1.4097292
     2   6 C        9   6 C                                       1.3626536
     5   6 C        9   6 C                                       1.4047582
     2   6 C       10   6 C                                       1.4034453
     3   6 C       10   6 C                                       1.4313917
     6   6 C       10   6 C                                       1.4127271
     3   6 C       11   6 C                                       1.4073815
     4   6 C       17   6 C                                       1.3727572
    12   6 C       17   6 C                                       1.3827513
     4   6 C       18   6 C                                       1.4029540
    13   6 C       18   6 C                                       1.4181219
     5   6 C       19   6 C                                       1.4071039
     6   6 C       19   6 C                                       1.4213355
    14   6 C       19   6 C                                       1.4291361
     6   6 C       20   6 C                                       1.4206915
    12   6 C       21   6 C                                       1.3825824
    13   6 C       21   6 C                                       1.4081491
    14   6 C       22   6 C                                       1.4121039
    15   6 C       22   6 C                                       1.4244357
    14   6 C       23   6 C                                       1.4221332
    15   6 C       24   6 C                                       1.4208364
    16   6 C       24   6 C                                       1.3654173
    15   6 C       25   6 C                                       1.4197755
    16   6 C       26   6 C                                       1.4041437
     8   6 C       28   6 C                                       1.4140242
     8   6 C       30   6 C                                       1.4140636
    11   6 C       30   6 C                                       1.4191548
    11   6 C       33   6 C                                       1.4222034
    20   6 C       33   6 C                                       1.4102857
    27   6 C       37   6 C                                       1.3339292
    28   6 C       38   6 C                                       1.3899160
    31   6 C       38   6 C                                       1.4308941
    29   6 C       39   6 C                                       1.3658200
    32   6 C       39   6 C                                       1.4133300
    30   6 C       40   6 C                                       1.4123770
    31   6 C       40   6 C                                       1.4134199
    34   6 C       40   6 C                                       1.4197671
    31   6 C       41   6 C                                       1.4145426
    32   6 C       41   6 C                                       1.4234906
    35   6 C       41   6 C                                       1.4131753
    32   6 C       42   6 C                                       1.3843661
    36   6 C       42   6 C                                       1.3939299
    20   6 C       43   6 C                                       1.4161157
    23   6 C       43   6 C                                       1.4208132
    23   6 C       52   6 C                                       1.4102101
    25   6 C       52   6 C                                       1.4191220
    25   6 C       59   6 C                                       1.4191653
    26   6 C       59   6 C                                       1.4176043
    26   6 C       66   6 C                                       1.3939286
    33   6 C       72   6 C                                       1.4151025
    34   6 C       72   6 C                                       1.4173159
    46   6 C       72   6 C                                       1.4121513
    47   6 C       73   6 C                                       1.4133280
    66   6 C       73   6 C                                       1.3843679
    68   6 C       73   6 C                                       1.4234931
    67   6 C       74   6 C                                       1.4034426
    69   6 C       74   6 C                                       1.3626402
    34   6 C       75   6 C                                       1.4082586
    35   6 C       75   6 C                                       1.4169205
    48   6 C       75   6 C                                       1.4159217
    49   6 C       76   6 C                                       1.4308908
    68   6 C       76   6 C                                       1.4145416
    70   6 C       76   6 C                                       1.4134283
    35   6 C       77   6 C                                       1.4134129
    36   6 C       77   6 C                                       1.4176036
    50   6 C       77   6 C                                       1.4191729
    51   6 C       78   6 C                                       1.4140625
    70   6 C       78   6 C                                       1.4123761
    71   6 C       78   6 C                                       1.4191719
    36   6 C       79   6 C                                       1.4041377
    44   6 C       79   6 C                                       1.3654151
    45   6 C       80   6 C                                       1.4109556
    67   6 C       80   6 C                                       1.4314070
    71   6 C       80   6 C                                       1.4073899
    43   6 C       81   6 C                                       1.4130472
    46   6 C       81   6 C                                       1.4171775
    54   6 C       81   6 C                                       1.4162734
    46   6 C       82   6 C                                       1.4174814
    48   6 C       82   6 C                                       1.4114512
    56   6 C       82   6 C                                       1.4162811
    47   6 C       83   6 C                                       1.3658186
    48   6 C       84   6 C                                       1.4197853
    50   6 C       84   6 C                                       1.4191288
    58   6 C       84   6 C                                       1.4102234
    49   6 C       85   6 C                                       1.3899099
    51   6 C       85   6 C                                       1.4140198
    44   6 C       86   6 C                                       1.4208406
    50   6 C       86   6 C                                       1.4197727
    53   6 C       86   6 C                                       1.4244391
    45   6 C       87   6 C                                       1.3598789
    51   6 C       87   6 C                                       1.4097157
    52   6 C       88   6 C                                       1.4197873
    54   6 C       88   6 C                                       1.4114506
    61   6 C       88   6 C                                       1.4159118
    55   6 C       89   6 C                                       1.4081522
    62   6 C       89   6 C                                       1.4181024
    54   6 C       90   6 C                                       1.4174853
    56   6 C       90   6 C                                       1.4171845
    63   6 C       90   6 C                                       1.4121523
    55   6 C       91   6 C                                       1.3825768
    64   6 C       91   6 C                                       1.3827582
    56   6 C       92   6 C                                       1.4130535
    58   6 C       92   6 C                                       1.4208271
    65   6 C       92   6 C                                       1.4161343
    57   6 C       93   6 C                                       1.3339286
    53   6 C       94   6 C                                       1.4121176
    58   6 C       94   6 C                                       1.4221336
    60   6 C       94   6 C                                       1.4291496
    59   6 C       95   6 C                                       1.4134160
    61   6 C       95   6 C                                       1.4169246
    68   6 C       95   6 C                                       1.4131687
    60   6 C       96   6 C                                       1.4071048
    69   6 C       96   6 C                                       1.4047346
    61   6 C       97   6 C                                       1.4082629
    63   6 C       97   6 C                                       1.4173273
    70   6 C       97   6 C                                       1.4197621
    62   6 C       98   6 C                                       1.4029575
    64   6 C       98   6 C                                       1.3727549
    63   6 C       99   6 C                                       1.4151168
    65   6 C       99   6 C                                       1.4103045
    71   6 C       99   6 C                                       1.4222137
    60   6 C      100   6 C                                       1.4213600
    65   6 C      100   6 C                                       1.4207089
    67   6 C      100   6 C                                       1.4127462
     1   6 C      101   1 H                                       1.0793887
     2   6 C      102   1 H                                       1.0772288
     4   6 C      103   1 H                                       1.0761266 (min)
     7   6 C      104   1 H                                       1.0771124
     9   6 C      105   1 H                                       1.0765801
    12   6 C      106   1 H                                       1.0792507
    16   6 C      107   1 H                                       1.0798597
    17   6 C      108   1 H                                       1.0791307
    27   6 C      109   1 H                                       1.0777340
    37   6 C      110   1 H                                       1.0814085
    39   6 C      111   1 H                                       1.0806876
    42   6 C      112   1 H                                       1.0802630
    45   6 C      113   1 H                                       1.0771015
    47   6 C      114   1 H                                       1.0806873
    57   6 C      115   1 H                                       1.0814083
    64   6 C      116   1 H                                       1.0791304
    66   6 C      117   1 H                                       1.0802630
    69   6 C      118   1 H                                       1.0765762
    74   6 C      119   1 H                                       1.0772163
    79   6 C      120   1 H                                       1.0798597
    87   6 C      121   1 H                                       1.0793874
    91   6 C      122   1 H                                       1.0792498
    93   6 C      123   1 H                                       1.0777339
    98   6 C      124   1 H                                       1.0761289
    44   6 C      125  16 S                                       1.7499245 (max)
    55   6 C      125  16 S                                       1.7472335
    27   6 C      126  16 S                                       1.7297940
    21   6 C      127  16 S                                       1.7472387
    24   6 C      127  16 S                                       1.7499202
    93   6 C      128  16 S                                       1.7297918

 * 3 distinct bonds (by element types)

   Z      Z             #   av. dist./Å        max./Å        min./Å
   1 H    6 C          24     1.0787297     1.0814085     1.0761266
   6 C    6 C         126     1.4079915     1.4314070     1.3339286
   6 C   16 S           6     1.7423171     1.7499245     1.7297918


optimized geometry written to: xtbopt.xyz


           -------------------------------------------------
          | TOTAL ENERGY             -240.142615154797 Eh   |
          | GRADIENT NORM               0.000375510264 Eh/α |
          | HOMO-LUMO GAP               1.025119670492 eV   |
           -------------------------------------------------

------------------------------------------------------------------------
 * finished run on 2025/12/08 at 00:33:00.189     
------------------------------------------------------------------------
 total:
 * wall-time:     0 d,  0 h,  0 min, 14.572 sec
 *  cpu-time:     0 d,  0 h,  0 min, 56.859 sec
 * ratio c/w:     3.902 speedup
 SCF:
 * wall-time:     0 d,  0 h,  0 min,  1.049 sec
 *  cpu-time:     0 d,  0 h,  0 min,  4.219 sec
 * ratio c/w:     4.022 speedup
 ANC optimizer:
 * wall-time:     0 d,  0 h,  0 min, 13.398 sec
 *  cpu-time:     0 d,  0 h,  0 min, 52.234 sec
 * ratio c/w:     3.899 speedup

normal termination of xtb
