      -----------------------------------------------------------      
     |                   =====================                   |     
     |                           x T B                           |     
     |                   =====================                   |     
     |                         S. Grimme                         |     
     |          Mulliken Center for Theoretical Chemistry        |     
     |                    University of Bonn                     |     
      -----------------------------------------------------------      

   * xtb version 6.7.1pre (5071a88) compiled by 'Marcel@Raven' on 2024-07-23

   xtb is free software: you can redistribute it and/or modify it under
   the terms of the GNU Lesser General Public License as published by
   the Free Software Foundation, either version 3 of the License, or
   (at your option) any later version.
   
   xtb is distributed in the hope that it will be useful,
   but WITHOUT ANY WARRANTY; without even the implied warranty of
   MERCHANTABILITY or FITNESS FOR A PARTICULAR PURPOSE.  See the
   GNU Lesser General Public License for more details.
   
   Cite this work as:
   * C. Bannwarth, E. Caldeweyher, S. Ehlert, A. Hansen, P. Pracht,
     J. Seibert, S. Spicher, S. Grimme, WIREs Comput. Mol. Sci., 2020, 11,
     e01493. DOI: 10.1002/wcms.1493
   
   for GFN2-xTB:
   * C. Bannwarth, S. Ehlert and S. Grimme., J. Chem. Theory Comput., 2019,
     15, 1652-1671. DOI: 10.1021/acs.jctc.8b01176
   for GFN1-xTB:
   * S. Grimme, C. Bannwarth, P. Shushkov, J. Chem. Theory Comput., 2017,
     13, 1989-2009. DOI: 10.1021/acs.jctc.7b00118
   for GFN0-xTB:
   * P. Pracht, E. Caldeweyher, S. Ehlert, S. Grimme, ChemRxiv, 2019, preprint.
     DOI: 10.26434/chemrxiv.8326202.v1
   for GFN-FF:
   * S. Spicher and S. Grimme, Angew. Chem. Int. Ed., 2020, 59, 15665-15673.
     DOI: 10.1002/anie.202004239
   
   for ALPB and GBSA implicit solvation:
   * S. Ehlert, M. Stahn, S. Spicher, S. Grimme, J. Chem. Theory Comput.,
     2021, 17, 4250-4261. DOI: 10.1021/acs.jctc.1c00471
   
   for ddCOSMO and CPCM-X implicit solvation:
   * M. Stahn, S. Ehlert, S. Grimme, J. Phys. Chem. A,
     2023, XX, XXXX-XXXX. DOI: 10.1021/acs.jpca.3c04382
   
   for DFT-D4:
   * E. Caldeweyher, C. Bannwarth and S. Grimme, J. Chem. Phys., 2017,
     147, 034112. DOI: 10.1063/1.4993215
   * E. Caldeweyher, S. Ehlert, A. Hansen, H. Neugebauer, S. Spicher,
     C. Bannwarth and S. Grimme, J. Chem. Phys., 2019, 150, 154122.
     DOI: 10.1063/1.5090222
   * E. Caldeweyher, J.-M. Mewes, S. Ehlert and S. Grimme, Phys. Chem. Chem. Phys.
     2020, 22, 8499-8512. DOI: 10.1039/D0CP00502A
   
   for sTDA-xTB:
   * S. Grimme and C. Bannwarth, J. Chem. Phys., 2016, 145, 054103.
     DOI: 10.1063/1.4959605
   
   in the mass-spec context:
   * V. Asgeirsson, C. Bauer and S. Grimme, Chem. Sci., 2017, 8, 4879.
     DOI: 10.1039/c7sc00601b
   * J. Koopman and S. Grimme, ACS Omega 2019, 4, 12, 15120-15133.
     DOI: 10.1021/acsomega.9b02011
   
   for metadynamics refer to:
   * S. Grimme, J. Chem. Theory Comput., 2019, 155, 2847-2862
     DOI: 10.1021/acs.jctc.9b00143
   
   for SPH calculations refer to:
   * S. Spicher and S. Grimme, J. Chem. Theory Comput., 2021, 17, 1701-1714
     DOI: 10.1021/acs.jctc.0c01306
   
   for ONIOM refer to:
   * C. Plett, A. Katbashev, S. Ehlert, S. Grimme, M. Bursch,
     Phys. Chem. Chem. Phys., 2023, 25, 17860-17868. DOI: 10.1039/D3CP02178E
   
   for DIPRO refer to:
   * J. Kohn, N. Gildemeister, S. Grimme, D. Fazzi, A. Hansen,
     J. Chem. Phys., 2023, just accepted.
   
   for PTB refer to:
   * S. Grimme, M. Mueller, A. Hansen, J. Chem. Phys., 2023, 158, 124111.
     DOI: 10.1063/5.0137838
   
   with help from (in alphabetical order)
   P. Atkinson, C. Bannwarth, F. Bohle, G. Brandenburg, E. Caldeweyher
   M. Checinski, S. Dohm, S. Ehlert, S. Ehrlich, I. Gerasimov, C. Hölzer
   A. Katbashev, J. Kohn, J. Koopman, C. Lavigne, S. Lehtola, F. März, M. Müller,
   F. Musil, H. Neugebauer, J. Pisarek, C. Plett, P. Pracht, F. Pultar,
   J. Seibert, P. Shushkov, S. Spicher, M. Stahn, M. Steiner, T. Strunk,
   J. Stückrath, T. Rose, and J. Unsleber
   
 * started run on 2025/12/08 at 00:33:00.224     
   ID    Z sym.   atoms
    1    6 C      1-100
    2    1 H      101-124
    3   16 S      125-128

           -------------------------------------------------
          |                Calculation Setup                |
           -------------------------------------------------

          program call               : xtb "C:\Users\LENOVO GAMING\Documents\GitHub\molecular-conductivity-sim\results\1.5nm-4Sdoped-3percent\xtbopt.xyz" --sp
          coordinate file            : C:\Users\LENOVO GAMING\Documents\GitHub\molecular-conductivity-sim\results\1.5nm-4Sdoped-3percent\xtbopt.xyz
          omp threads                :                    16


           -------------------------------------------------
          |                 G F N 2 - x T B                 |
           -------------------------------------------------

        Reference                      10.1021/acs.jctc.8b01176
      * Hamiltonian:
        H0-scaling (s, p, d)           1.850000    2.230000    2.230000
        zeta-weighting                 0.500000
      * Dispersion:
        s8                             2.700000
        a1                             0.520000
        a2                             5.000000
        s9                             5.000000
      * Repulsion:
        kExp                           1.500000    1.000000
        rExp                           1.000000
      * Coulomb:
        alpha                          2.000000
        third order                    shell-resolved
        anisotropic                    true
        a3                             3.000000
        a5                             4.000000
        cn-shift                       1.200000
        cn-exp                         4.000000
        max-rad                        5.000000

q/qsh data taken from xtbrestart
CAMM data taken from xtbrestart

          ...................................................
          :                      SETUP                      :
          :.................................................:
          :  # basis functions                 464          :
          :  # atomic orbitals                 460          :
          :  # shells                          236          :
          :  # electrons                       448          :
          :  max. iterations                   250          :
          :  Hamiltonian                  GFN2-xTB          :
          :  restarted?                       true          :
          :  GBSA solvation                  false          :
          :  PC potential                    false          :
          :  electronic temp.          300.0000000     K    :
          :  accuracy                    1.0000000          :
          :  -> integral cutoff          0.2500000E+02      :
          :  -> integral neglect         0.1000000E-07      :
          :  -> SCF convergence          0.1000000E-05 Eh   :
          :  -> wf. convergence          0.1000000E-03 e    :
          :  Broyden damping             0.4000000          :
          :  net charge                          0          :
          :  unpaired electrons                  0          :
          ...................................................

 iter      E             dE          RMSdq      gap      omega  full diag
   1   -244.6664104 -0.244666E+03  0.925E-06    1.03       0.0  T
   2   -244.6664104  0.525802E-11  0.106E-05    1.03     832.0  T
   3   -244.6664104 -0.149214E-10  0.276E-06    1.03    3206.1  T

   *** convergence criteria satisfied after 3 iterations ***

         #    Occupation            Energy/Eh            Energy/eV
      -------------------------------------------------------------
         1        2.0000           -0.7332679             -19.9532
       ...           ...                  ...                  ...
       218        2.0000           -0.3807533             -10.3608
       219        2.0000           -0.3761512             -10.2356
       220        2.0000           -0.3670844              -9.9889
       221        2.0000           -0.3557181              -9.6796
       222        2.0000           -0.3512407              -9.5577
       223        2.0000           -0.3496704              -9.5150
       224        2.0000           -0.3407171              -9.2714 (HOMO)
       225                         -0.3030446              -8.2463 (LUMO)
       226                         -0.2943343              -8.0092
       227                         -0.2833507              -7.7104
       228                         -0.2734567              -7.4411
       229                         -0.2679407              -7.2910
       ...                                ...                  ...
       460                          0.7798439              21.2206
      -------------------------------------------------------------
                  HL-Gap            0.0376725 Eh            1.0251 eV
             Fermi-level           -0.3218809 Eh           -8.7588 eV

 SCC (total)                   0 d,  0 h,  0 min,  0.383 sec
 SCC setup                      ...        0 min,  0.001 sec (  0.261%)
 Dispersion                     ...        0 min,  0.009 sec (  2.350%)
 classical contributions        ...        0 min,  0.000 sec (  0.000%)
 integral evaluation            ...        0 min,  0.025 sec (  6.527%)
 iterations                     ...        0 min,  0.262 sec ( 68.407%)
 molecular gradient             ...        0 min,  0.081 sec ( 21.149%)
 printout                       ...        0 min,  0.005 sec (  1.306%)

         :::::::::::::::::::::::::::::::::::::::::::::::::::::
         ::                     SUMMARY                     ::
         :::::::::::::::::::::::::::::::::::::::::::::::::::::
         :: total energy            -240.142615154816 Eh    ::
         :: gradient norm              0.000375538576 Eh/a0 ::
         :: HOMO-LUMO gap              1.025119909134 eV    ::
         ::.................................................::
         :: SCC energy              -244.674339969592 Eh    ::
         :: -> isotropic ES            0.004351596468 Eh    ::
         :: -> anisotropic ES          0.008556682963 Eh    ::
         :: -> anisotropic XC          0.086822072684 Eh    ::
         :: -> dispersion             -0.295831649503 Eh    ::
         :: repulsion energy           4.531724814776 Eh    ::
         :: add. restraining           0.000000000000 Eh    ::
         :: total charge              -0.000000000000 e     ::
         :::::::::::::::::::::::::::::::::::::::::::::::::::::

           -------------------------------------------------
          |                Property Printout                |
           -------------------------------------------------

    * Orbital Energies and Occupations

         #    Occupation            Energy/Eh            Energy/eV
      -------------------------------------------------------------
         1        2.0000           -0.7332679             -19.9532
       ...           ...                  ...                  ...
       212        2.0000           -0.3983162             -10.8387
       213        2.0000           -0.3930313             -10.6949
       214        2.0000           -0.3918659             -10.6632
       215        2.0000           -0.3898080             -10.6072
       216        2.0000           -0.3886909             -10.5768
       217        2.0000           -0.3838715             -10.4457
       218        2.0000           -0.3807533             -10.3608
       219        2.0000           -0.3761512             -10.2356
       220        2.0000           -0.3670844              -9.9889
       221        2.0000           -0.3557181              -9.6796
       222        2.0000           -0.3512407              -9.5577
       223        2.0000           -0.3496704              -9.5150
       224        2.0000           -0.3407171              -9.2714 (HOMO)
       225                         -0.3030446              -8.2463 (LUMO)
       226                         -0.2943343              -8.0092
       227                         -0.2833507              -7.7104
       228                         -0.2734567              -7.4411
       229                         -0.2679407              -7.2910
       230                         -0.2673651              -7.2754
       231                         -0.2656895              -7.2298
       232                         -0.2604506              -7.0872
       233                         -0.2577197              -7.0129
       234                         -0.2533093              -6.8929
       235                         -0.2465794              -6.7098
       ...                                ...                  ...
       460                          0.7798439              21.2206
      -------------------------------------------------------------
                  HL-Gap            0.0376725 Eh            1.0251 eV
             Fermi-level           -0.3218809 Eh           -8.7588 eV

     #   Z          covCN         q      C6AA      α(0)
     1   6 C        2.922    -0.036    28.895     8.815
     2   6 C        2.919    -0.037    28.928     8.820
     3   6 C        2.982     0.006    27.885     8.662
     4   6 C        2.925    -0.043    29.067     8.841
     5   6 C        2.982     0.004    27.929     8.669
     6   6 C        2.990     0.002    27.981     8.677
     7   6 C        2.918    -0.035    28.874     8.812
     8   6 C        3.046    -0.002    28.033     8.684
     9   6 C        2.920    -0.037    28.928     8.820
    10   6 C        2.983     0.005    27.912     8.666
    11   6 C        2.991     0.003    27.958     8.674
    12   6 C        3.026    -0.044    29.058     8.842
    13   6 C        3.003     0.000    28.008     8.681
    14   6 C        2.983    -0.003    28.089     8.694
    15   6 C        3.000    -0.001    28.051     8.688
    16   6 C        3.032    -0.055    29.326     8.883
    17   6 C        2.916    -0.029    28.727     8.789
    18   6 C        2.985     0.006    27.874     8.660
    19   6 C        2.988     0.002    27.971     8.675
    20   6 C        2.988    -0.000    28.022     8.683
    21   6 C        2.972     0.047    26.943     8.514
    22   6 C        2.972     0.003    27.943     8.671
    23   6 C        2.986     0.000    28.014     8.682
    24   6 C        2.965     0.045    26.996     8.522
    25   6 C        2.990     0.001    28.007     8.681
    26   6 C        2.984     0.013    27.726     8.637
    27   6 C        2.888    -0.000    28.032     8.680
    28   6 C        2.965     0.034    27.247     8.562
    29   6 C        2.968     0.012    27.738     8.639
    30   6 C        2.993     0.002    27.971     8.676
    31   6 C        2.989    -0.001    28.037     8.686
    32   6 C        2.979     0.012    27.731     8.638
    33   6 C        2.988    -0.001    28.048     8.687
    34   6 C        2.989     0.000    28.018     8.683
    35   6 C        2.990     0.001    27.986     8.678
    36   6 C        2.984     0.013    27.726     8.637
    37   6 C        2.956    -0.041    29.029     8.837
    38   6 C        3.003     0.003    27.954     8.673
    39   6 C        2.930    -0.053    29.318     8.880
    40   6 C        2.988    -0.005    28.132     8.701
    41   6 C        2.993     0.000    28.009     8.681
    42   6 C        2.926    -0.050    29.244     8.868
    43   6 C        2.987    -0.001    28.035     8.685
    44   6 C        2.965     0.045    26.996     8.522
    45   6 C        2.918    -0.035    28.874     8.812
    46   6 C        2.989    -0.000    28.027     8.684
    47   6 C        2.930    -0.053    29.318     8.880
    48   6 C        2.988    -0.001    28.038     8.686
    49   6 C        3.003     0.003    27.954     8.673
    50   6 C        2.990     0.001    28.007     8.681
    51   6 C        3.046    -0.002    28.033     8.684
    52   6 C        2.988     0.000    28.010     8.682
    53   6 C        2.972     0.003    27.943     8.671
    54   6 C        2.989    -0.001    28.048     8.687
    55   6 C        2.972     0.047    26.943     8.514
    56   6 C        2.989     0.000    28.018     8.683
    57   6 C        2.956    -0.041    29.029     8.837
    58   6 C        2.986     0.000    28.014     8.682
    59   6 C        2.994    -0.005    28.130     8.700
    60   6 C        2.988     0.002    27.971     8.675
    61   6 C        2.991     0.000    28.014     8.682
    62   6 C        2.985     0.006    27.874     8.660
    63   6 C        2.989    -0.000    28.030     8.685
    64   6 C        2.916    -0.029    28.727     8.789
    65   6 C        2.988    -0.000    28.022     8.683
    66   6 C        2.926    -0.050    29.244     8.868
    67   6 C        2.983     0.005    27.912     8.666
    68   6 C        2.993     0.000    28.009     8.681
    69   6 C        2.920    -0.037    28.928     8.820
    70   6 C        2.988    -0.005    28.132     8.701
    71   6 C        2.991     0.003    27.958     8.674
    72   6 C        2.989    -0.000    28.030     8.685
    73   6 C        2.979     0.012    27.731     8.638
    74   6 C        2.919    -0.037    28.928     8.820
    75   6 C        2.991     0.000    28.014     8.682
    76   6 C        2.989    -0.001    28.037     8.686
    77   6 C        2.994    -0.005    28.130     8.700
    78   6 C        2.993     0.002    27.971     8.676
    79   6 C        3.032    -0.055    29.326     8.883
    80   6 C        2.982     0.006    27.885     8.662
    81   6 C        2.989     0.000    28.018     8.683
    82   6 C        2.989    -0.001    28.048     8.687
    83   6 C        2.968     0.012    27.738     8.639
    84   6 C        2.988     0.000    28.010     8.682
    85   6 C        2.965     0.034    27.247     8.562
    86   6 C        3.000    -0.001    28.051     8.688
    87   6 C        2.922    -0.036    28.895     8.815
    88   6 C        2.988    -0.001    28.038     8.686
    89   6 C        3.003     0.000    28.008     8.681
    90   6 C        2.989    -0.000    28.027     8.684
    91   6 C        3.026    -0.044    29.058     8.842
    92   6 C        2.987    -0.001    28.035     8.685
    93   6 C        2.888    -0.000    28.032     8.680
    94   6 C        2.983    -0.003    28.089     8.694
    95   6 C        2.990     0.001    27.986     8.678
    96   6 C        2.982     0.004    27.929     8.669
    97   6 C        2.989     0.000    28.018     8.683
    98   6 C        2.925    -0.043    29.067     8.841
    99   6 C        2.988    -0.001    28.048     8.687
   100   6 C        2.990     0.002    27.981     8.677
   101   1 H        0.926     0.045     2.381     2.413
   102   1 H        0.926     0.035     2.519     2.482
   103   1 H        0.926     0.038     2.475     2.460
   104   1 H        0.926     0.037     2.489     2.467
   105   1 H        0.926     0.035     2.517     2.481
   106   1 H        0.926     0.041     2.430     2.438
   107   1 H        0.926     0.040     2.449     2.447
   108   1 H        0.926     0.036     2.499     2.472
   109   1 H        0.926     0.050     2.318     2.381
   110   1 H        0.925     0.042     2.419     2.432
   111   1 H        0.926     0.030     2.592     2.517
   112   1 H        0.926     0.032     2.554     2.499
   113   1 H        0.926     0.037     2.489     2.467
   114   1 H        0.926     0.030     2.592     2.517
   115   1 H        0.925     0.042     2.419     2.432
   116   1 H        0.926     0.036     2.499     2.472
   117   1 H        0.926     0.032     2.554     2.499
   118   1 H        0.926     0.035     2.517     2.481
   119   1 H        0.926     0.035     2.519     2.482
   120   1 H        0.926     0.040     2.449     2.447
   121   1 H        0.926     0.045     2.381     2.413
   122   1 H        0.926     0.041     2.430     2.438
   123   1 H        0.926     0.050     2.318     2.381
   124   1 H        0.926     0.038     2.475     2.460
   125  16 S        2.225    -0.111   145.696    20.315
   126  16 S        2.101    -0.071   143.985    20.196
   127  16 S        2.225    -0.111   145.695    20.315
   128  16 S        2.101    -0.071   143.985    20.196

 Mol. C6AA /au·bohr⁶  :     379887.544315
 Mol. C8AA /au·bohr⁸  :   11028779.708048
 Mol. α(0) /au        :       1010.375560


Wiberg/Mayer (AO) data.
largest (>0.10) Wiberg bond orders for each atom

 ---------------------------------------------------------------------------
     #   Z sym  total        # sym  WBO       # sym  WBO       # sym  WBO
 ---------------------------------------------------------------------------
     1   6 C    3.952 --     7 C    1.569     8 C    1.263   101 H    0.955
     2   6 C    3.961 --     9 C    1.538    10 C    1.297   102 H    0.960
     3   6 C    3.948 --    11 C    1.297     7 C    1.273    10 C    1.183
     4   6 C    3.978 --    17 C    1.479    18 C    1.338   103 H    0.959
     5   6 C    3.961 --    19 C    1.305     9 C    1.299    18 C    1.155
     6   6 C    3.976 --    10 C    1.281    19 C    1.248    20 C    1.223
     7   6 C    3.971 --     1 C    1.569     3 C    1.273   104 H    0.960
     8   6 C    3.968 --     1 C    1.263    28 C    1.254    30 C    1.253
     9   6 C    3.965 --     2 C    1.538     5 C    1.299   105 H    0.958
    10   6 C    3.959 --     2 C    1.297     6 C    1.281     3 C    1.183
    11   6 C    3.980 --     3 C    1.297    30 C    1.241    33 C    1.216
    12   6 C    3.973 --    21 C    1.423    17 C    1.395   106 H    0.967
    13   6 C    3.975 --    21 C    1.295    18 C    1.276    22 C    1.177
    14   6 C    3.970 --    22 C    1.305    23 C    1.236    19 C    1.201
    15   6 C    3.947 --    25 C    1.264    22 C    1.246    24 C    1.221
    16   6 C    3.945 --    24 C    1.510    26 C    1.254   107 H    0.964
    17   6 C    3.977 --     4 C    1.479    12 C    1.395   108 H    0.969
    18   6 C    3.973 --     4 C    1.338    13 C    1.276     5 C    1.155
    19   6 C    3.983 --     5 C    1.305     6 C    1.248    14 C    1.201
    20   6 C    3.962 --    33 C    1.278    43 C    1.242     6 C    1.223
    21   6 C    3.954 --    12 C    1.423    13 C    1.295   127 S    1.059
    22   6 C    3.951 --    14 C    1.305    15 C    1.246    13 C    1.177
    23   6 C    3.964 --    52 C    1.275    14 C    1.236    43 C    1.233
    24   6 C    3.942 --    16 C    1.510    15 C    1.221   127 S    1.052
    25   6 C    3.974 --    15 C    1.264    59 C    1.248    52 C    1.233
    26   6 C    3.972 --    66 C    1.329    16 C    1.254    59 C    1.226
    27   6 C    3.942 --    37 C    1.741   126 S    1.110   109 H    0.962
    28   6 C    3.896 --    38 C    1.387     8 C    1.254   126 S    1.055
    29   6 C    3.972 --    39 C    1.522    38 C    1.153    37 C    1.140
    30   6 C    3.977 --     8 C    1.253    40 C    1.252    11 C    1.241
    31   6 C    3.966 --    40 C    1.266    41 C    1.261    38 C    1.211
    32   6 C    3.972 --    42 C    1.388    39 C    1.226    41 C    1.204
    33   6 C    3.960 --    20 C    1.278    72 C    1.247    11 C    1.216
    34   6 C    3.963 --    75 C    1.278    72 C    1.237    40 C    1.229
    35   6 C    3.977 --    41 C    1.269    77 C    1.260    75 C    1.226
    36   6 C    3.972 --    42 C    1.329    79 C    1.254    77 C    1.226
    37   6 C    3.981 --    27 C    1.741    29 C    1.140   110 H    0.956
    38   6 C    3.972 --    28 C    1.387    31 C    1.211    29 C    1.153
    39   6 C    3.971 --    29 C    1.522    32 C    1.226   111 H    0.965
    40   6 C    3.977 --    31 C    1.266    30 C    1.252    34 C    1.229
    41   6 C    3.962 --    35 C    1.269    31 C    1.261    32 C    1.204
    42   6 C    3.893 --    32 C    1.388    36 C    1.329   112 H    0.966
    43   6 C    3.957 --    81 C    1.267    20 C    1.242    23 C    1.233
    44   6 C    3.942 --    79 C    1.510    86 C    1.221   125 S    1.052
    45   6 C    3.971 --    87 C    1.569    80 C    1.273   113 H    0.960
    46   6 C    3.964 --    72 C    1.262    82 C    1.242    81 C    1.242
    47   6 C    3.971 --    83 C    1.522    73 C    1.226   114 H    0.965
    48   6 C    3.961 --    82 C    1.265    75 C    1.242    84 C    1.236
    49   6 C    3.972 --    85 C    1.387    76 C    1.211    83 C    1.153
    50   6 C    3.974 --    86 C    1.264    77 C    1.248    84 C    1.233
    51   6 C    3.968 --    87 C    1.263    85 C    1.254    78 C    1.253
    52   6 C    3.966 --    23 C    1.275    88 C    1.236    25 C    1.233
    53   6 C    3.951 --    94 C    1.305    86 C    1.246    89 C    1.177
    54   6 C    3.960 --    88 C    1.265    90 C    1.242    81 C    1.237
    55   6 C    3.954 --    91 C    1.423    89 C    1.295   125 S    1.059
    56   6 C    3.964 --    92 C    1.267    90 C    1.242    82 C    1.237
    57   6 C    3.981 --    93 C    1.741    83 C    1.140   115 H    0.956
    58   6 C    3.964 --    84 C    1.275    94 C    1.236    92 C    1.233
    59   6 C    3.963 --    95 C    1.260    25 C    1.248    26 C    1.226
    60   6 C    3.983 --    96 C    1.305   100 C    1.248    94 C    1.201
    61   6 C    3.962 --    97 C    1.278    88 C    1.242    95 C    1.226
    62   6 C    3.973 --    98 C    1.338    89 C    1.276    96 C    1.155
    63   6 C    3.961 --    90 C    1.262    99 C    1.247    97 C    1.237
    64   6 C    3.977 --    98 C    1.479    91 C    1.395   116 H    0.969
    65   6 C    3.962 --    99 C    1.278    92 C    1.242   100 C    1.223
    66   6 C    3.893 --    73 C    1.388    26 C    1.329   117 H    0.966
    67   6 C    3.959 --    74 C    1.297   100 C    1.281    80 C    1.183
    68   6 C    3.962 --    95 C    1.269    76 C    1.261    73 C    1.204
    69   6 C    3.965 --    74 C    1.538    96 C    1.299   118 H    0.958
    70   6 C    3.977 --    76 C    1.266    78 C    1.252    97 C    1.229
    71   6 C    3.980 --    80 C    1.297    78 C    1.241    99 C    1.216
    72   6 C    3.961 --    46 C    1.262    33 C    1.247    34 C    1.237
    73   6 C    3.972 --    66 C    1.388    47 C    1.226    68 C    1.204
    74   6 C    3.961 --    69 C    1.538    67 C    1.297   119 H    0.960
    75   6 C    3.962 --    34 C    1.278    48 C    1.242    35 C    1.226
    76   6 C    3.966 --    70 C    1.266    68 C    1.261    49 C    1.211
    77   6 C    3.963 --    35 C    1.260    50 C    1.248    36 C    1.226
    78   6 C    3.977 --    51 C    1.253    70 C    1.252    71 C    1.241
    79   6 C    3.945 --    44 C    1.510    36 C    1.254   120 H    0.964
    80   6 C    3.948 --    71 C    1.297    45 C    1.273    67 C    1.183
    81   6 C    3.964 --    43 C    1.267    46 C    1.242    54 C    1.237
    82   6 C    3.960 --    48 C    1.265    46 C    1.242    56 C    1.237
    83   6 C    3.972 --    47 C    1.522    49 C    1.153    57 C    1.140
    84   6 C    3.966 --    58 C    1.275    48 C    1.236    50 C    1.233
    85   6 C    3.896 --    49 C    1.387    51 C    1.254   128 S    1.055
    86   6 C    3.947 --    50 C    1.264    53 C    1.246    44 C    1.221
    87   6 C    3.952 --    45 C    1.569    51 C    1.263   121 H    0.955
    88   6 C    3.961 --    54 C    1.265    61 C    1.242    52 C    1.236
    89   6 C    3.975 --    55 C    1.295    62 C    1.276    53 C    1.177
    90   6 C    3.964 --    63 C    1.262    54 C    1.242    56 C    1.242
    91   6 C    3.973 --    55 C    1.423    64 C    1.395   122 H    0.967
    92   6 C    3.957 --    56 C    1.267    65 C    1.242    58 C    1.233
    93   6 C    3.942 --    57 C    1.741   128 S    1.110   123 H    0.962
    94   6 C    3.970 --    53 C    1.305    58 C    1.236    60 C    1.201
    95   6 C    3.977 --    68 C    1.269    59 C    1.260    61 C    1.226
    96   6 C    3.961 --    60 C    1.305    69 C    1.299    62 C    1.155
    97   6 C    3.963 --    61 C    1.278    63 C    1.237    70 C    1.229
    98   6 C    3.978 --    64 C    1.479    62 C    1.338   124 H    0.959
    99   6 C    3.960 --    65 C    1.278    63 C    1.247    71 C    1.216
   100   6 C    3.976 --    67 C    1.281    60 C    1.248    65 C    1.223
   101   1 H    0.997 --     1 C    0.955
   102   1 H    0.997 --     2 C    0.960
   103   1 H    0.998 --     4 C    0.959
   104   1 H    0.998 --     7 C    0.960
   105   1 H    0.998 --     9 C    0.958
   106   1 H    0.997 --    12 C    0.967
   107   1 H    0.997 --    16 C    0.964
   108   1 H    0.997 --    17 C    0.969
   109   1 H    0.996 --    27 C    0.962
   110   1 H    0.997 --    37 C    0.956
   111   1 H    0.998 --    39 C    0.965
   112   1 H    0.998 --    42 C    0.966
   113   1 H    0.998 --    45 C    0.960
   114   1 H    0.998 --    47 C    0.965
   115   1 H    0.997 --    57 C    0.956
   116   1 H    0.997 --    64 C    0.969
   117   1 H    0.998 --    66 C    0.966
   118   1 H    0.998 --    69 C    0.958
   119   1 H    0.997 --    74 C    0.960
   120   1 H    0.997 --    79 C    0.964
   121   1 H    0.997 --    87 C    0.955
   122   1 H    0.997 --    91 C    0.967
   123   1 H    0.996 --    93 C    0.962
   124   1 H    0.998 --    98 C    0.959
   125  16 S    2.428 --    55 C    1.059    44 C    1.052
   126  16 S    2.486 --    27 C    1.110    28 C    1.055
   127  16 S    2.428 --    21 C    1.059    24 C    1.052
   128  16 S    2.486 --    93 C    1.110    85 C    1.055
 ---------------------------------------------------------------------------

Topologies differ in total number of bonds
Writing topology from bond orders to xtbtopo.mol

molecular dipole:
                 x           y           z       tot (Debye)
 q only:        0.000       0.000       0.310
   full:        0.000       0.000       0.380       0.965
molecular quadrupole (traceless):
                xx          xy          yy          xz          yz          zz
 q only:       -1.651     -22.356      24.156      -0.001      -0.001     -22.505
  q+dip:       25.427     -24.793      36.370      -0.007       0.000     -61.796
   full:        7.972     -25.947      18.823      -0.002       0.001     -26.795


           -------------------------------------------------
          | TOTAL ENERGY             -240.142615154816 Eh   |
          | GRADIENT NORM               0.000375538576 Eh/α |
          | HOMO-LUMO GAP               1.025119909134 eV   |
           -------------------------------------------------

------------------------------------------------------------------------
 * finished run on 2025/12/08 at 00:33:00.712     
------------------------------------------------------------------------
 total:
 * wall-time:     0 d,  0 h,  0 min,  0.485 sec
 *  cpu-time:     0 d,  0 h,  0 min,  4.234 sec
 * ratio c/w:     8.731 speedup
 SCF:
 * wall-time:     0 d,  0 h,  0 min,  0.385 sec
 *  cpu-time:     0 d,  0 h,  0 min,  3.516 sec
 * ratio c/w:     9.131 speedup

normal termination of xtb
