128
 energy: -240.125450595016 gnorm: 0.043498986564 xtb: 6.7.1pre (5071a88)
C           -3.74993200000000        6.94835100000000        0.36071600000000
C            0.50460900000000        7.48111400000000        0.48202800000000
C           -1.50125800000000        6.01635400000000        0.32107100000000
C            4.73128700000000        8.07874400000000        0.36171400000000
C            2.75010100000000        6.57226000000000        0.27888100000000
C            0.79391800000000        5.07921900000000        0.19921700000000
C           -2.39479300000000        7.11819300000000        0.40125600000000
C           -4.33319300000000        5.65735500000000        0.24068700000000
C            1.86168600000000        7.65799800000000        0.45986300000000
C           -0.07152300000000        6.19854100000000        0.33813900000000
C           -2.04351900000000        4.71448500000000        0.20701500000000
C            6.93075700000000        7.26056700000000       -0.13435800000000
C            5.03696400000000        5.68438200000000       -0.10802900000000
C            3.09301000000000        4.13806300000000       -0.02430100000000
C            5.34153100000000        3.17673400000000       -0.30220900000000
C            7.57823500000000        2.16921800000000       -0.47928200000000
C            6.08217900000000        8.31449900000000        0.21269900000000
C            4.18178000000000        6.78582600000000        0.19124700000000
C            2.21475200000000        5.26918500000000        0.14993600000000
C            0.23836900000000        3.76206300000000        0.11161500000000
C            6.41488300000000        5.98224900000000       -0.30245200000000
C            4.49371000000000        4.33021200000000       -0.17166000000000
C            2.52707100000000        2.81870800000000       -0.03453500000000
C            6.76291300000000        3.27028400000000       -0.49313400000000
C            4.79032800000000        1.86266300000000       -0.20384500000000
C            7.05044600000000        0.86496300000000       -0.33458700000000
C           -8.35651300000000        6.35620600000000        0.14661800000000
C           -5.74598000000000        5.46861900000000        0.18121700000000
C           -7.74397700000000        3.96085100000000       -0.01906400000000
C           -3.46408600000000        4.52924000000000        0.17327900000000
C           -5.42130800000000        3.04988500000000        0.01186100000000
C           -7.37475900000000        1.54343400000000       -0.18449400000000
C           -1.16942000000000        3.57956800000000        0.12550100000000
C           -3.13883200000000        2.08556100000000        0.02642500000000
C           -5.09370800000000        0.60143900000000       -0.12240600000000
C           -7.05028300000000       -0.86492200000000       -0.33639600000000
C           -8.68726700000000        5.06203800000000        0.02691400000000
C           -6.30524800000000        4.19096300000000        0.06054700000000
C           -8.22619700000000        2.68467200000000       -0.14149300000000
C           -4.01112000000000        3.22113400000000        0.06865400000000
C           -5.95559000000000        1.73256200000000       -0.09876500000000
C           -7.88968300000000        0.25840800000000       -0.31021100000000
C            1.10701500000000        2.63211600000000        0.02936900000000
C           -6.76276500000000       -3.27033100000000       -0.49386200000000
C            2.39470700000000       -7.11844700000000        0.39840000000000
C           -0.86202800000000        1.13613600000000        0.01980300000000
C            8.22630000000000       -2.68466200000000       -0.14014000000000
C           -2.82149200000000       -0.36338900000000       -0.05168200000000
C            6.30525200000000       -4.19107400000000        0.05995400000000
C           -4.79020700000000       -1.86262700000000       -0.20486600000000
C            4.33313200000000       -5.65755900000000        0.23860000000000
C            3.37524600000000        1.68356400000000       -0.09693800000000
C           -4.49370100000000       -4.33015500000000       -0.17109400000000
C            1.41426300000000        0.18164600000000       -0.00906400000000
C           -6.41500200000000       -5.98210000000000       -0.30059400000000
C           -0.55442800000000       -1.32128600000000        0.01080900000000
C            8.68728100000000       -5.06215200000000        0.02663500000000
C           -2.52694500000000       -2.81870000000000       -0.03566100000000
C            5.63757200000000        0.70962400000000       -0.22457000000000
C           -2.21478900000000       -5.26908400000000        0.15063600000000
C            3.67900800000000       -0.77827300000000       -0.05060200000000
C           -4.18196700000000       -6.78544200000000        0.19387200000000
C            1.72216300000000       -2.26719500000000        0.05397400000000
C           -6.08262400000000       -8.31374200000000        0.21755600000000
C           -0.23832100000000       -3.76213200000000        0.11033600000000
C            7.88986300000000       -0.25833900000000       -0.30787800000000
C            0.07148100000000       -6.19856500000000        0.33774100000000
C            5.95565200000000       -1.73259100000000       -0.09825900000000
C           -1.86178400000000       -7.65782400000000        0.46118200000000
C            4.01111200000000       -3.22124600000000        0.06749500000000
C            2.04349900000000       -4.71460900000000        0.20558600000000
C           -1.72214000000000        2.26706200000000        0.05651000000000
C            7.37487300000000       -1.54341500000000       -0.18301300000000
C           -0.50466200000000       -7.48107800000000        0.48219000000000
C           -3.67901200000000        0.77818700000000       -0.04915800000000
C            5.42134300000000       -3.04993400000000        0.01196000000000
C           -5.63748200000000       -0.70961600000000       -0.22537100000000
C            3.46406800000000       -4.52935000000000        0.17221300000000
C           -7.57802300000000       -2.16920300000000       -0.48112700000000
C            1.50121700000000       -6.01648800000000        0.31952500000000
C            0.55456200000000        1.32122700000000        0.01430100000000
C           -1.41427100000000       -0.18169500000000       -0.00548100000000
C            7.74401300000000       -3.96093200000000       -0.01897000000000
C           -3.37528000000000       -1.68356200000000       -0.09570900000000
C            5.74592800000000       -5.46882100000000        0.17935200000000
C           -5.34144800000000       -3.17672300000000       -0.30249100000000
C            3.74984000000000       -6.94865200000000        0.35738300000000
C            2.82165300000000        0.36343100000000       -0.04901500000000
C           -5.03703100000000       -5.68423300000000       -0.10655200000000
C            0.86209700000000       -1.13606600000000        0.02331900000000
C           -6.93104900000000       -7.26013500000000       -0.13092400000000
C           -1.10704400000000       -2.63202400000000        0.03144400000000
C            8.35646700000000       -6.35641100000000        0.14516700000000
C           -3.09303800000000       -4.13796200000000       -0.02352300000000
C            5.09382900000000       -0.60139700000000       -0.12097200000000
C           -2.75019500000000       -6.57205400000000        0.28036600000000
C            3.13891000000000       -2.08551000000000        0.02798600000000
C           -4.73166000000000       -8.07805600000000        0.36605400000000
C            1.16942600000000       -3.57951800000000        0.12632700000000
C           -0.79394300000000       -5.07917000000000        0.19943200000000
H           -4.37998000000000        7.82858800000000        0.41884800000000
H           -0.12090000000000        8.35453500000000        0.61186900000000
H            4.09244900000000        8.91199700000000        0.62051400000000
H           -2.01244800000000        8.12695100000000        0.48557200000000
H            2.24020400000000        8.66586700000000        0.56285500000000
H            7.99386200000000        7.43408000000000       -0.27336000000000
H            8.65227100000000        2.28744800000000       -0.59450100000000
H            6.48431400000000        9.31258500000000        0.35740000000000
H           -9.09924100000000        7.14661200000000        0.17905500000000
H           -9.74177900000000        4.80621000000000       -0.03987700000000
H           -9.29957500000000        2.52614600000000       -0.20472200000000
H           -8.96461900000000        0.11807700000000       -0.38884600000000
H            2.01232000000000       -8.12728600000000        0.48156700000000
H            9.29970200000000       -2.52610600000000       -0.20289600000000
H            9.74182100000000       -4.80627500000000       -0.03949300000000
H           -6.48493300000000       -9.31155500000000        0.36365100000000
H            8.96482000000000       -0.11799800000000       -0.38619400000000
H           -2.24034800000000       -8.66567000000000        0.56429200000000
H            0.12086600000000       -8.35448200000000        0.61206100000000
H           -8.65203100000000       -2.28746100000000       -0.59656500000000
H            4.37986400000000       -7.82896500000000        0.41461200000000
H           -7.99418600000000       -7.43366100000000       -0.26965400000000
H            9.09917300000000       -7.14685000000000        0.17732000000000
H           -4.09292700000000       -8.91101800000000        0.62606800000000
S           -7.56840800000000       -4.78667900000000       -0.88521900000000
S           -6.72210000000000        6.95816700000000        0.26521000000000
S            7.56867500000000        4.78633800000000       -0.88525000000000
S            6.72199700000000       -6.95844300000000        0.26259700000000
128
 energy: -240.137133868412 gnorm: 0.020338578171 xtb: 6.7.1pre (5071a88)
C           -3.74499209921637        6.92102941922175        0.35754555556084
C            0.50708305599901        7.45623576726671        0.47757092613290
C           -1.49780695225973        5.99925734266569        0.31847531567721
C            4.72481941957569        8.05144595445402        0.35990346764915
C            2.74612278967966        6.55275543751315        0.27547409722993
C            0.79333596364713        5.06544096449931        0.19698676018127
C           -2.39398241726602        7.09298574882740        0.39779140548265
C           -4.32113176835018        5.63524583706573        0.23869992369702
C            1.85974901740975        7.63245888659957        0.45532341716051
C           -0.07110064473251        6.18025054383544        0.33491950280300
C           -2.03813704758790        4.70070354559768        0.20527250247301
C            6.90852189061357        7.24058206533179       -0.13613426328443
C            5.02137774886172        5.66687920314988       -0.10657898507894
C            3.08432458287699        4.12759398260906       -0.02097055232183
C            5.32418588082998        3.17027181925419       -0.29692263314955
C            7.55206080038001        2.16243009180842       -0.47894277039230
C            6.06983002010023        8.28814267182753        0.21483903845549
C            4.17246472127158        6.76584536310977        0.18982029202134
C            2.20935057119342        5.25412688581361        0.14800576509631
C            0.23846395887992        3.75287268802812        0.11074528630155
C            6.38957834348317        5.96882295888017       -0.30300124162832
C            4.48110820954791        4.31983871092615       -0.16594666772810
C            2.52047900150560        2.81298561507710       -0.03413318102049
C            6.73624732873034        3.25870983764933       -0.49321809774014
C            4.77759290460984        1.85877111072217       -0.20031680048795
C            7.03000199892363        0.86169248219518       -0.32846541922238
C           -8.33123948403165        6.33745135001888        0.14624557408710
C           -5.72688792643488        5.44619564774966        0.17978385336181
C           -7.71876695559864        3.95199643323535       -0.01854466601596
C           -3.45289736856915        4.51414336016951        0.17165163829285
C           -5.40843409093628        3.04125110138288        0.01168539518040
C           -7.35333973303877        1.54100717355696       -0.18267954424042
C           -1.16644414324782        3.57046151410052        0.12473303711750
C           -3.13135065104394        2.07980435547711        0.02624283750141
C           -5.08096722400296        0.59973336405928       -0.12130896634908
C           -7.02984410138215       -0.86165269576174       -0.33022746979464
C           -8.65876862955084        5.04890571242800        0.02712669243501
C           -6.28806968993010        4.17730205102940        0.05993592140991
C           -8.20089482469334        2.67876827560506       -0.14049652549949
C           -4.00126890643619        3.21119077716308        0.06811971574814
C           -5.93991945651755        1.72866679433284       -0.09788574725156
C           -7.86666948567816        0.25854077594438       -0.30667430895159
C            1.10487043785379        2.62633532970681        0.02965265555754
C           -6.73610148148782       -3.25874747245007       -0.49395916143693
C            2.39389611664487       -7.09324900542832        0.39489040710671
C           -0.85988596736255        1.13308148064883        0.02055028124059
C            8.20099563990078       -2.67876460463865       -0.13923827657200
C           -2.81555858478760       -0.36359909592037       -0.05011307797374
C            6.28807576434728       -4.17741489271705        0.05934142871210
C           -4.77750370096100       -1.85874270251746       -0.20098649897172
C            4.32107412101926       -5.63545354049830        0.23662970469255
C            3.36714040136638        1.68006794381769       -0.09487903498533
C           -4.48109749689987       -4.31977494676659       -0.16546914675518
C            1.41082594922233        0.18148812360239       -0.00707816710056
C           -6.38969883456380       -5.96868129455783       -0.30115829089209
C           -0.55308005259932       -1.31837002935555        0.01260681499401
C            8.65878489023838       -5.04901984347228        0.02685417534522
C           -2.52042255302318       -2.81295020682553       -0.03436516380497
C            5.62149119821936        0.70859391934344       -0.22008495631561
C           -2.20939117507811       -5.25402973939922        0.14868352847330
C            3.67024908741418       -0.77517942932378       -0.04910162431846
C           -4.17264163471599       -6.76548062774789        0.19232535904745
C            1.71852192137047       -2.26172398211433        0.05518139644207
C           -6.07026903266595       -8.28738181609963        0.21966875232271
C           -0.23844014228500       -3.75289279867249        0.11022241252335
C            7.86683825259657       -0.25848376557596       -0.30454326000596
C            0.07105854890431       -6.18029027273480        0.33445053636190
C            5.93998965095618       -1.72868593540753       -0.09725875646225
C           -1.85984748080794       -7.63230284634685        0.45651984951706
C            4.00128071877776       -3.21127714072418        0.06744209595885
C            2.03812132945873       -4.70081248308695        0.20411302729509
C           -1.71848305490254        2.26167408688767        0.05597139193727
C            7.35345457164672       -1.54098804693304       -0.18122160048988
C           -0.50714239437785       -7.45619919918754        0.47777297080886
C           -3.67020090066195        0.77515419516904       -0.04889763648170
C            5.40846888161293       -3.04131144674854        0.01165200296209
C           -5.62139222018458       -0.70857388012576       -0.22102007585437
C            3.45288071151226       -4.51426489601587        0.17050702161323
C           -7.55186555521977       -2.16242237040157       -0.48063483850400
C            1.49776630628147       -5.99938828227701        0.31703233222575
C            0.55315508857953        1.31836909925365        0.01341362206049
C           -1.41077461963175       -0.18148830073162       -0.00627548306104
C            7.71880685242701       -3.95207380610207       -0.01840776556077
C           -3.36710097995329       -1.68004432985879       -0.09471638359008
C            5.72684442244796       -5.44638843620620        0.17807524810652
C           -5.32411732613897       -3.17025204922798       -0.29713967361538
C            3.74490328949386       -6.92132415315731        0.35435270092095
C            2.81564896347505        0.36361755720155       -0.04931720498373
C           -5.02145972753879       -5.66671482188487       -0.10504877385091
C            0.85995171721083       -1.13306642064255        0.02129323563706
C           -6.90881139935415       -7.24015749982990       -0.13271953343922
C           -1.10484417252559       -2.62629953161938        0.03014999125332
C            8.33119692779559       -6.33765726067839        0.14480200916876
C           -3.08433764696763       -4.12750804954027       -0.02038064580334
C            5.08106228605028       -0.59972013506234       -0.12040172914912
C           -2.74622103238452       -6.55254865764073        0.27697952312350
C            3.13140781114214       -2.07981677942742        0.02657009802910
C           -4.72518800528431       -8.05075837714849        0.36421698046566
C            1.16645974039590       -3.57047598048807        0.12466089308346
C           -0.79335941518429       -5.06541241070200        0.19707808700869
H           -4.38348640885812        7.79267789901892        0.41547095700070
H           -0.11400910000491        8.32885885540968        0.60871804287121
H            4.09229873340185        8.88603463995201        0.61543743599204
H           -2.01684526684811        8.10030274972156        0.48361099654486
H            2.23585940524449        8.63801192403665        0.56148241323770
H            7.96693175171269        7.41087762873206       -0.28227680383172
H            8.62080618430150        2.28658401536127       -0.60152117280939
H            6.47265448105792        9.28261805338157        0.35606297113609
H           -9.06725955691713        7.12852289949364        0.17878948474351
H           -9.70990115204548        4.79286352052125       -0.03963218373354
H           -9.27098676557320        2.52085692822206       -0.20369984610957
H           -8.93775188678656        0.11806419476196       -0.38640439319086
H            2.01671591754418       -8.10063771925610        0.47969015188367
H            9.27111578266574       -2.52081435727107       -0.20186516202900
H            9.70994581321723       -4.79292928978432       -0.03925719705912
H           -6.47326875018520       -9.28158646798701        0.36229326545200
H            8.93795763238835       -0.11797846394725       -0.38371596088612
H           -2.23601393606830       -8.63780892049314        0.56297832672244
H            0.11397417097740       -8.32881947169343        0.60883467108635
H           -8.62056407752600       -2.28659059443053       -0.60360960441598
H            4.38337014528127       -7.79305999418955        0.41124314051156
H           -7.96724581356122       -7.41049239279597       -0.27863357793176
H            9.06719525007583       -7.12876101731905        0.17705070614827
H           -4.09276411993010       -8.88506362152256        0.62093720886417
S           -7.55052436814403       -4.77372100122240       -0.85486415435471
S           -6.70040628644202        6.92911070908495        0.26371861335419
S            7.55076814535501        4.77341257622102       -0.85490450479781
S            6.70030845723882       -6.92938834803803        0.26112632068482
128
 energy: -240.141857518848 gnorm: 0.008311918618 xtb: 6.7.1pre (5071a88)
C           -3.73605648285449        6.89895897554825        0.35508764830459
C            0.50424510345184        7.43465303423655        0.47418186509384
C           -1.49379976204613        5.98239602533757        0.31555382402692
C            4.71109125796834        8.02545526847597        0.35873730614012
C            2.73859273315663        6.53364990719796        0.27409837943052
C            0.79091218312411        5.05048743053297        0.19487300829112
C           -2.38753272083893        7.07233462473190        0.39524726308746
C           -4.30664607751311        5.61586217695976        0.23667354300736
C            1.85513623591476        7.61048059636864        0.45302328902117
C           -0.07184553108449        6.16240946780981        0.33160098565331
C           -2.03156051374166        4.68581891528173        0.20299930050877
C            6.88794294998544        7.21938006846856       -0.14147511468654
C            5.00613564985290        5.64650619501178       -0.10363907845776
C            3.07321972374775        4.11525422064291       -0.01870580712038
C            5.30756848502474        3.16308912815887       -0.29159920322407
C            7.52916063924303        2.15604523248717       -0.48170184953662
C            6.05398194686995        8.26442395089142        0.21147374527038
C            4.16001894083265        6.74483999854641        0.18920643872402
C            2.20170313908576        5.23791728055945        0.14725476357996
C            0.23822756324922        3.74172228827696        0.10924255349073
C            6.36825550012638        5.94915432236524       -0.29990128635731
C            4.46675039225082        4.30724825555368       -0.16241075454255
C            2.51212447283068        2.80531595999997       -0.03280544780996
C            6.71285358516043        3.24934835200493       -0.48877268397260
C            4.76334372855060        1.85401472275257       -0.19706836845071
C            7.01011932621737        0.85938250887547       -0.32786353779108
C           -8.30144158753936        6.32093996408929        0.14611979425245
C           -5.70737512826366        5.42724983113533        0.17862981011814
C           -7.69316798483097        3.94034282881528       -0.01812508308289
C           -3.44032820792743        4.49845323218437        0.16981142172494
C           -5.39294962115761        3.03069192273921        0.01165568107344
C           -7.33191420171485        1.53596655289843       -0.18035243514724
C           -1.16295408060534        3.55942782489669        0.12332769625092
C           -3.12171598959624        2.07263984865083        0.02615777442314
C           -5.06574662778150        0.59646684758586       -0.11867250191201
C           -7.00996987212136       -0.85934969901746       -0.32955257156052
C           -8.62932748553134        5.03416569597887        0.02713032584242
C           -6.26945727981260        4.16286141571894        0.05956708235436
C           -8.17708440126886        2.66946976351829       -0.13945109733574
C           -3.98888480167857        3.19964484876309        0.06738223632742
C           -5.92249731397936        1.72250785488002       -0.09624072959022
C           -7.84571782434273        0.25665247296142       -0.30486251449060
C            1.10171965034842        2.61869647762960        0.02973288204990
C           -6.71271604350292       -3.24938838384469       -0.48948611932770
C            2.38745766149734       -7.07259457099707        0.39238999930450
C           -0.85707809805476        1.12907957705369        0.02077419100116
C            8.17718161109862       -2.66946571269153       -0.13823326200056
C           -2.80749701169477       -0.36370364871794       -0.04855053186017
C            6.26946369692310       -4.16296652220580        0.05900011448600
C           -4.76327545885832       -1.85399302375318       -0.19753018466977
C            4.30659575415462       -5.61606032478306        0.23466929903506
C            3.35733806813563        1.67531664243524       -0.09234171690803
C           -4.46674783338367       -4.30718112937750       -0.16187815582288
C            1.40611693759245        0.18115790295213       -0.00600991879771
C           -6.36836883322074       -5.94902316392090       -0.29810369223192
C           -0.55115352806675       -1.31425828101201        0.01312808457243
C            8.62934472456758       -5.03427565446949        0.02686546733820
C           -2.51209927580855       -2.80527151906652       -0.03262980965402
C            5.60456378088264        0.70808840464989       -0.21654666769421
C           -2.20173881172733       -5.23782094434430        0.14794553111101
C            3.65920990014217       -0.77108155076316       -0.04741736318131
C           -4.16019029890382       -6.74448593728912        0.19167426397246
C            1.71354444127243       -2.25478260559999        0.05518053812651
C           -6.05441845272656       -8.26367168240474        0.21627178188092
C           -0.23821358645904       -3.74171597476893        0.10914702195782
C            7.84587990500647       -0.25659898245814       -0.30280906564918
C            0.07181403936360       -6.16245187834248        0.33112868241761
C            5.92256633871821       -1.72251554521998       -0.09553203909766
C           -1.85522669908572       -7.61032888425840        0.45418556748155
C            3.98890261222147       -3.19970938571612        0.06696567853105
C            2.03155102950464       -4.68591179429595        0.20200844251357
C           -1.71350494231652        2.25477297811277        0.05517015027810
C            7.33202240798254       -1.53594859123150       -0.17894561459855
C           -0.50429884513222       -7.43461785081321        0.47437101034299
C           -3.65914734138090        0.77108577166941       -0.04782691696481
C            5.39297878606181       -3.03075468302443        0.01151600653711
C           -5.60446576184245       -0.70806410311778       -0.21757329276449
C            3.44031511999057       -4.49857441054157        0.16860212389059
C           -7.52897314256268       -2.15604464386481       -0.48332271186201
C            1.49376844800419       -5.98252542764819        0.31410846193087
C            0.55119969792842        1.31427390677694        0.01289363798537
C           -1.40605211549631       -0.18114662190800       -0.00637103193799
C            7.69320817338478       -3.94041523889858       -0.01797329815425
C           -3.35727713195532       -1.67528760449045       -0.09266695521537
C            5.70733709961827       -5.42743437286892        0.17697664544417
C           -5.30750442070589       -3.16307077203430       -0.29183098053640
C            3.73597705280737       -6.89924698079094        0.35196206353415
C            2.80754655051548        0.36370985715412       -0.04857863873825
C           -5.00621859752795       -5.64634431530848       -0.10211565483440
C            0.85713177917094       -1.12908821273554        0.02042317047135
C           -6.88823090121745       -7.21897022158559       -0.13808615287852
C           -1.10167202128455       -2.61868538873845        0.02951152938370
C            8.30140218675712       -6.32114193206886        0.14469092390376
C           -3.07321997380214       -4.11518131938005       -0.01825601069588
C            5.06581801585488       -0.59646709780780       -0.11805151213434
C           -2.73868571318893       -6.53344583459926        0.27559856407268
C            3.12175371009383       -2.07267783272348        0.02588414834343
C           -4.71145931699681       -8.02477140759122        0.36303492069933
C            1.16297593197619       -3.55946902696096        0.12277385717114
C           -0.79092211724454       -5.05047157315023        0.19483244357679
H           -4.38288889714340        7.76215550538588        0.41240898521409
H           -0.11690185374314        8.30531781449736        0.60466558298626
H            4.08036405373567        8.85917677280737        0.61484772723718
H           -2.01073552848778        8.07798015920172        0.48172676749426
H            2.23165265775050        8.61384225572923        0.56056049929962
H            7.94391274082673        7.38295226919437       -0.29392997357398
H            8.59362633743227        2.28622211256320       -0.61129758468762
H            6.45735438421257        9.25525499712430        0.35700796016600
H           -9.03027535254381        7.11451919060953        0.17911062891809
H           -9.67774276698920        4.77564380317845       -0.03974677551734
H           -9.24473771031640        2.51167160253965       -0.20289275768509
H           -8.91413816048069        0.11578930662555       -0.38421440293686
H            2.01061695077968       -8.07830693215338        0.47791295719663
H            9.24486420458565       -2.51162470709998       -0.20106940161916
H            9.67778980390615       -4.77570461087520       -0.03935314251621
H           -6.45796990879241       -9.25422048452649        0.36322703632544
H            8.91434073426127       -0.11570190969790       -0.38155496272294
H           -2.23180148482549       -8.61363027241078        0.56211849350467
H            0.11687139829123       -8.30529369719495        0.60468410122294
H           -8.59338359298772       -2.28622640760299       -0.61337722246478
H            4.38278073414705       -7.76253617008535        0.40819239157793
H           -7.94421663363792       -7.38260529090193       -0.29036144441793
H            9.03021400331910       -7.11475469455178        0.17735331367888
H           -4.08082542271384       -8.85822146153574        0.62027410980949
S           -7.53877571849245       -4.75915689854072       -0.82463199382578