128
 energy: -240.142615154797 gnorm: 0.000375510264 xtb: 6.7.1pre (5071a88)
C           -3.72578732756115        6.89391890626937        0.33716631214662
C            0.50503439384117        7.40064714194896        0.68238580902598
C           -1.49021952160151        5.97036528934735        0.37206962300025
C            4.70356224038992        8.00428969310809        0.45010550728984
C            2.73582970787049        6.51055278698714        0.40962855008911
C            0.78942066207832        5.03594997167500        0.27385831229346
C           -2.37894228665071        7.06544228623324        0.41390418858358
C           -4.29520411291589        5.60976118340153        0.21867793059844
C            1.85670116591853        7.57323345059161        0.67643937691840
C           -0.07109677897511        6.14358170337216        0.44255716378294
C           -2.02666505860682        4.67681370880101        0.23180997870629
C            6.85889877982266        7.21928393829973       -0.16849148485134
C            4.99119462526831        5.63651436028607       -0.06830966509726
C            3.06529616541532        4.10602768650994        0.02383355883264
C            5.29309856006695        3.16151755488185       -0.31370948339856
C            7.50373224037496        2.15655853644780       -0.60442516138519
C            6.03652585013235        8.25415018971066        0.23740921018697
C            4.15244644751006        6.72517536341320        0.28153035801052
C            2.19788052969933        5.22239809851479        0.23296707502959
C            0.23775777190953        3.73244370910054        0.15177855905902
C            6.34345078695450        5.94444824652703       -0.31216101166843
C            4.45453631811262        4.29965335666097       -0.13913269277579
C            2.50587269567410        2.79899388494563       -0.01037832584013
C            6.69040579699626        3.25218338950129       -0.55472356278632
C            4.75152809775010        1.85204048298691       -0.22576998020986
C            6.99085554835291        0.86011389894693       -0.43766793732368
C           -8.28027987098310        6.31386156403969        0.07898519343376
C           -5.69452125187411        5.42233169702448        0.13964763038091
C           -7.67524199226905        3.93465473059624       -0.09914727942978
C           -3.43210607193708        4.49082836329243        0.16742830052964
C           -5.38023631740368        3.02532827334439       -0.03301981061958
C           -7.31492350664554        1.53308244448764       -0.28036278817991
C           -1.16083238949463        3.55121228973132        0.15423750705292
C           -3.11498023485055        2.06817584921022        0.02107501729036
C           -5.05389207495228        0.59418822728320       -0.16438102235685
C           -6.99091652712239       -0.86000249888272       -0.43691240110282
C           -8.60971432044472        5.02845493334845       -0.05728439813304
C           -6.25458497936580        4.15736353561527        0.00529636736129
C           -8.15937321566683        2.66583735490151       -0.24469231653658
C           -3.97941312323550        3.19406547744146        0.05051168912925
C           -5.90888147136343        1.71936857965100       -0.15924912873616
C           -7.82636489907289        0.25581802069449       -0.43363523062028
C            1.09899585648789        2.61231253412153        0.05713037469134
C           -6.69060649591781       -3.25210477460073       -0.55354615235056
C            2.37929291100891       -7.06541546120198        0.41423257108279
C           -0.85556071782101        1.12619991805954        0.03512800505256
C            8.15947273527373       -2.66563037250965       -0.24481898493601
C           -2.80153939716672       -0.36360162356992       -0.05060650429283
C            6.25476060511523       -4.15718236026199        0.00557164180491
C           -4.75159538472399       -1.85200957345800       -0.22513562284368
C            4.29545123587322       -5.60961291215683        0.21920892770537
C            3.34994597255282        1.67243052322760       -0.09456556680452
C           -4.45465342553525       -4.29962431769226       -0.13848910834972
C            1.40303382685854        0.18083577433193        0.00404343117175
C           -6.34396320252657       -5.94420632795183       -0.30979196932849
C           -0.54954140157706       -1.31084169554792        0.03040636212621
C            8.60992756854048       -5.02818045456150       -0.05686097069653
C           -2.50590405428473       -2.79904493801067       -0.01004671782822
C            5.59046361873034        0.70857893569432       -0.27785201425892
C           -2.19785878667837       -5.22255541376326        0.23243793611274
C            3.65138635150852       -0.76885077349034       -0.06419865641176
C           -4.15267022967264       -6.72505418425575        0.28252237120551
C            1.71020629125182       -2.24996259306053        0.06868811900550
C           -6.03733729519470       -8.25338550547401        0.24211054109101
C           -0.23772496334466       -3.73258095383630        0.15149378298107
C            7.82634593485976       -0.25567322538192       -0.43425837807478
C            0.07122032070584       -6.14395195316553        0.44058893210126
C            5.90893274902478       -1.71926612443533       -0.15950530209162
C           -1.85652073486391       -7.57412453106975        0.67204230223839
C            3.97950764146133       -3.19402046889796        0.05044290173888
C            2.02677912015940       -4.67688939925841        0.23142245847911
C           -1.71017578416367        2.24988161252300        0.06894425025441
C            7.31496339104996       -1.53292913597813       -0.28070220762438
C           -0.50486423515612       -7.40155304895542        0.67768999017813
C           -3.65137599505373        0.76884538780895       -0.06384770565058
C            5.38033564704940       -3.02521968334414       -0.03302252559040
C           -5.59050267598728       -0.70851906588511       -0.27724599363177
C            3.43224188451055       -4.49078992977323        0.16746913967827
C           -7.50388470363939       -2.15644994098649       -0.60331548699475
C            1.49038933114357       -5.97051833282026        0.37126568849211
C            0.54954160599748        1.31074269852766        0.03033440369442
C           -1.40303518135868       -0.18092325302149        0.00424525619649
C            7.67540463234039       -3.93443340149597       -0.09895208056783
C           -3.34998339026812       -1.67245911553331       -0.09409529808966
C            5.69476271375053       -5.42213615361487        0.14026898858563
C           -5.29323115994161       -3.16146888669936       -0.31289111598086
C            3.72614999640119       -6.89376050056227        0.33820105826811
C            2.80152439550439        0.36356502122259       -0.05097130607260
C           -4.99147371283585       -5.63638432654473       -0.06707824074594
C            0.85556803263607       -1.12629373819907        0.03499076797206
C           -6.85964279300720       -7.21876791560937       -0.16458341581624
C           -1.09899459287148       -2.61241832186315        0.05722639822850
C            8.28055847859249       -6.31356390881858        0.07977975326934
C           -3.06534859046481       -4.10607110105193        0.02412964983850
C            5.05389456892223       -0.59413187780507       -0.16479211864632
C           -2.73580428633091       -6.51080299286152        0.40843880773047
C            3.11501335366019       -2.06818932365438        0.02081572752569
C           -4.70410783719367       -8.00373271262580        0.45336460978439
C            1.16088130415477       -3.55132560153970        0.15384378868966
C           -0.78935443849254       -5.03617700796837        0.27296628825674
H           -4.37454551546244        7.75620672100263        0.36270814287367
H           -0.11785099765721        8.25610011915671        0.88396872933674
H            4.07857448005581        8.82771630337780        0.74911594429854
H           -1.99708766331129        8.06970310884367        0.49018162840620
H            2.23671061404932        8.56218208876819        0.86774515256571
H            7.90544065677893        7.38520096511614       -0.37343901748851
H            8.56120526538282        2.28966580732976       -0.77800500564283
H            6.43826951355204        9.24644732483906        0.37331854541188
H           -9.00722345328082        7.10891483795502        0.10986606502173
H           -9.65587050879128        4.76794026561656       -0.14174360153103
H           -9.22509382513197        2.50862478187620       -0.33076906825087
H           -8.89155028244838        0.11572671381559       -0.54642916971187
H            1.99768383846851       -8.06971045346778        0.49113136724115
H            9.22518215719215       -2.50838613627643       -0.33097273128012
H            9.65606791826019       -4.76764039752089       -0.14143557349708
H           -6.43934912664541       -9.24533796264711        0.37972988415093
H            8.89151806634228       -0.11556683592663       -0.54715856092296
H           -2.23638118635700       -8.56363555414081        0.86069536224058
H            0.11799354913455       -8.25762662822806        0.87663969269568
H           -8.56140375497794       -2.28954558401370       -0.77662352682600
H            4.37500090913211       -7.75594717224353        0.36472812216654
H           -7.90635028348683       -7.38462452930854       -0.36872792573965
H            9.00754050607850       -7.10857400393104        0.11086412360307
H           -4.07923454693840       -8.82689083612281        0.75335991497357
S           -7.50890136460362       -4.76694909079737       -0.86639681723160
S           -6.65859647130606        6.89837372648101        0.22277383106288
S            7.50843711234528        4.76701370092097       -0.86830608004142
S            6.65891073342939       -6.89810813141532        0.22381325288313
