      -----------------------------------------------------------      
     |                   =====================                   |     
     |                           x T B                           |     
     |                   =====================                   |     
     |                         S. Grimme                         |     
     |          Mulliken Center for Theoretical Chemistry        |     
     |                    University of Bonn                     |     
      -----------------------------------------------------------      

   * xtb version 6.7.1pre (5071a88) compiled by 'Marcel@Raven' on 2024-07-23

   xtb is free software: you can redistribute it and/or modify it under
   the terms of the GNU Lesser General Public License as published by
   the Free Software Foundation, either version 3 of the License, or
   (at your option) any later version.
   
   xtb is distributed in the hope that it will be useful,
   but WITHOUT ANY WARRANTY; without even the implied warranty of
   MERCHANTABILITY or FITNESS FOR A PARTICULAR PURPOSE.  See the
   GNU Lesser General Public License for more details.
   
   Cite this work as:
   * C. Bannwarth, E. Caldeweyher, S. Ehlert, A. Hansen, P. Pracht,
     J. Seibert, S. Spicher, S. Grimme, WIREs Comput. Mol. Sci., 2020, 11,
     e01493. DOI: 10.1002/wcms.1493
   
   for GFN2-xTB:
   * C. Bannwarth, S. Ehlert and S. Grimme., J. Chem. Theory Comput., 2019,
     15, 1652-1671. DOI: 10.1021/acs.jctc.8b01176
   for GFN1-xTB:
   * S. Grimme, C. Bannwarth, P. Shushkov, J. Chem. Theory Comput., 2017,
     13, 1989-2009. DOI: 10.1021/acs.jctc.7b00118
   for GFN0-xTB:
   * P. Pracht, E. Caldeweyher, S. Ehlert, S. Grimme, ChemRxiv, 2019, preprint.
     DOI: 10.26434/chemrxiv.8326202.v1
   for GFN-FF:
   * S. Spicher and S. Grimme, Angew. Chem. Int. Ed., 2020, 59, 15665-15673.
     DOI: 10.1002/anie.202004239
   
   for ALPB and GBSA implicit solvation:
   * S. Ehlert, M. Stahn, S. Spicher, S. Grimme, J. Chem. Theory Comput.,
     2021, 17, 4250-4261. DOI: 10.1021/acs.jctc.1c00471
   
   for ddCOSMO and CPCM-X implicit solvation:
   * M. Stahn, S. Ehlert, S. Grimme, J. Phys. Chem. A,
     2023, XX, XXXX-XXXX. DOI: 10.1021/acs.jpca.3c04382
   
   for DFT-D4:
   * E. Caldeweyher, C. Bannwarth and S. Grimme, J. Chem. Phys., 2017,
     147, 034112. DOI: 10.1063/1.4993215
   * E. Caldeweyher, S. Ehlert, A. Hansen, H. Neugebauer, S. Spicher,
     C. Bannwarth and S. Grimme, J. Chem. Phys., 2019, 150, 154122.
     DOI: 10.1063/1.5090222
   * E. Caldeweyher, J.-M. Mewes, S. Ehlert and S. Grimme, Phys. Chem. Chem. Phys.
     2020, 22, 8499-8512. DOI: 10.1039/D0CP00502A
   
   for sTDA-xTB:
   * S. Grimme and C. Bannwarth, J. Chem. Phys., 2016, 145, 054103.
     DOI: 10.1063/1.4959605
   
   in the mass-spec context:
   * V. Asgeirsson, C. Bauer and S. Grimme, Chem. Sci., 2017, 8, 4879.
     DOI: 10.1039/c7sc00601b
   * J. Koopman and S. Grimme, ACS Omega 2019, 4, 12, 15120-15133.
     DOI: 10.1021/acsomega.9b02011
   
   for metadynamics refer to:
   * S. Grimme, J. Chem. Theory Comput., 2019, 155, 2847-2862
     DOI: 10.1021/acs.jctc.9b00143
   
   for SPH calculations refer to:
   * S. Spicher and S. Grimme, J. Chem. Theory Comput., 2021, 17, 1701-1714
     DOI: 10.1021/acs.jctc.0c01306
   
   for ONIOM refer to:
   * C. Plett, A. Katbashev, S. Ehlert, S. Grimme, M. Bursch,
     Phys. Chem. Chem. Phys., 2023, 25, 17860-17868. DOI: 10.1039/D3CP02178E
   
   for DIPRO refer to:
   * J. Kohn, N. Gildemeister, S. Grimme, D. Fazzi, A. Hansen,
     J. Chem. Phys., 2023, just accepted.
   
   for PTB refer to:
   * S. Grimme, M. Mueller, A. Hansen, J. Chem. Phys., 2023, 158, 124111.
     DOI: 10.1063/5.0137838
   
   with help from (in alphabetical order)
   P. Atkinson, C. Bannwarth, F. Bohle, G. Brandenburg, E. Caldeweyher
   M. Checinski, S. Dohm, S. Ehlert, S. Ehrlich, I. Gerasimov, C. Hölzer
   A. Katbashev, J. Kohn, J. Koopman, C. Lavigne, S. Lehtola, F. März, M. Müller,
   F. Musil, H. Neugebauer, J. Pisarek, C. Plett, P. Pracht, F. Pultar,
   J. Seibert, P. Shushkov, S. Spicher, M. Stahn, M. Steiner, T. Strunk,
   J. Stückrath, T. Rose, and J. Unsleber
   
 * started run on 2025/12/08 at 00:31:47.554     
   ID    Z sym.   atoms
    1    6 C      1-102
    2    1 H      103-128
    3    8 O      129, 130

           -------------------------------------------------
          |                Calculation Setup                |
           -------------------------------------------------

          program call               : xtb "C:\Users\LENOVO GAMING\Documents\GitHub\molecular-conductivity-sim\results\1.5nm-2Odoped-1.5percent\xtbopt.xyz" --sp
          coordinate file            : C:\Users\LENOVO GAMING\Documents\GitHub\molecular-conductivity-sim\results\1.5nm-2Odoped-1.5percent\xtbopt.xyz
          omp threads                :                    16


           -------------------------------------------------
          |                 G F N 2 - x T B                 |
           -------------------------------------------------

        Reference                      10.1021/acs.jctc.8b01176
      * Hamiltonian:
        H0-scaling (s, p, d)           1.850000    2.230000    2.230000
        zeta-weighting                 0.500000
      * Dispersion:
        s8                             2.700000
        a1                             0.520000
        a2                             5.000000
        s9                             5.000000
      * Repulsion:
        kExp                           1.500000    1.000000
        rExp                           1.000000
      * Coulomb:
        alpha                          2.000000
        third order                    shell-resolved
        anisotropic                    true
        a3                             3.000000
        a5                             4.000000
        cn-shift                       1.200000
        cn-exp                         4.000000
        max-rad                        5.000000

q/qsh data taken from xtbrestart
CAMM data taken from xtbrestart

          ...................................................
          :                      SETUP                      :
          :.................................................:
          :  # basis functions                 442          :
          :  # atomic orbitals                 442          :
          :  # shells                          234          :
          :  # electrons                       446          :
          :  max. iterations                   250          :
          :  Hamiltonian                  GFN2-xTB          :
          :  restarted?                       true          :
          :  GBSA solvation                  false          :
          :  PC potential                    false          :
          :  electronic temp.          300.0000000     K    :
          :  accuracy                    1.0000000          :
          :  -> integral cutoff          0.2500000E+02      :
          :  -> integral neglect         0.1000000E-07      :
          :  -> SCF convergence          0.1000000E-05 Eh   :
          :  -> wf. convergence          0.1000000E-03 e    :
          :  Broyden damping             0.4000000          :
          :  net charge                          0          :
          :  unpaired electrons                  0          :
          ...................................................

 iter      E             dE          RMSdq      gap      omega  full diag
   1   -245.2505121 -0.245251E+03  0.291E-05    0.32       0.0  T
   2   -245.2505121  0.853646E-08  0.181E-04    0.32      48.4  T
   3   -245.2505121 -0.875698E-08  0.369E-06    0.32    2377.9  T

   *** convergence criteria satisfied after 3 iterations ***

         #    Occupation            Energy/Eh            Energy/eV
      -------------------------------------------------------------
         1        2.0000           -0.7341169             -19.9763
       ...           ...                  ...                  ...
       217        2.0000           -0.3827456             -10.4150
       218        2.0000           -0.3782786             -10.2935
       219        2.0000           -0.3780438             -10.2871
       220        2.0000           -0.3608341              -9.8188
       221        2.0000           -0.3606994              -9.8151
       222        2.0000           -0.3501056              -9.5269
       223        1.9961           -0.3307130              -8.9992 (HOMO)
       224        0.0039           -0.3188480              -8.6763 (LUMO)
       225                         -0.2918421              -7.9414
       226                         -0.2852552              -7.7622
       227                         -0.2703278              -7.3560
       228                         -0.2650584              -7.2126
       ...                                ...                  ...
       442                          0.7834755              21.3195
      -------------------------------------------------------------
                  HL-Gap            0.0118650 Eh            0.3229 eV
             Fermi-level           -0.3247805 Eh           -8.8377 eV

 SCC (total)                   0 d,  0 h,  0 min,  0.252 sec
 SCC setup                      ...        0 min,  0.002 sec (  0.794%)
 Dispersion                     ...        0 min,  0.009 sec (  3.571%)
 classical contributions        ...        0 min,  0.000 sec (  0.000%)
 integral evaluation            ...        0 min,  0.024 sec (  9.524%)
 iterations                     ...        0 min,  0.145 sec ( 57.540%)
 molecular gradient             ...        0 min,  0.068 sec ( 26.984%)
 printout                       ...        0 min,  0.004 sec (  1.587%)

         :::::::::::::::::::::::::::::::::::::::::::::::::::::
         ::                     SUMMARY                     ::
         :::::::::::::::::::::::::::::::::::::::::::::::::::::
         :: total energy            -240.631834154481 Eh    ::
         :: gradient norm              0.000383777064 Eh/a0 ::
         :: HOMO-LUMO gap              0.322863447410 eV    ::
         ::.................................................::
         :: SCC energy              -245.258445802260 Eh    ::
         :: -> isotropic ES            0.025465462604 Eh    ::
         :: -> anisotropic ES          0.011961073643 Eh    ::
         :: -> anisotropic XC          0.080789095133 Eh    ::
         :: -> dispersion             -0.286185166724 Eh    ::
         :: repulsion energy           4.626611647779 Eh    ::
         :: add. restraining           0.000000000000 Eh    ::
         :: total charge               0.000000000005 e     ::
         :::::::::::::::::::::::::::::::::::::::::::::::::::::

           -------------------------------------------------
          |                Property Printout                |
           -------------------------------------------------

    * Orbital Energies and Occupations

         #    Occupation            Energy/Eh            Energy/eV
      -------------------------------------------------------------
         1        2.0000           -0.7341169             -19.9763
       ...           ...                  ...                  ...
       211        2.0000           -0.3981804             -10.8350
       212        2.0000           -0.3976538             -10.8207
       213        2.0000           -0.3895501             -10.6002
       214        2.0000           -0.3873198             -10.5395
       215        2.0000           -0.3866985             -10.5226
       216        2.0000           -0.3865352             -10.5182
       217        2.0000           -0.3827456             -10.4150
       218        2.0000           -0.3782786             -10.2935
       219        2.0000           -0.3780438             -10.2871
       220        2.0000           -0.3608341              -9.8188
       221        2.0000           -0.3606994              -9.8151
       222        2.0000           -0.3501056              -9.5269
       223        1.9961           -0.3307130              -8.9992 (HOMO)
       224        0.0039           -0.3188480              -8.6763 (LUMO)
       225                         -0.2918421              -7.9414
       226                         -0.2852552              -7.7622
       227                         -0.2703278              -7.3560
       228                         -0.2650584              -7.2126
       229                         -0.2625553              -7.1445
       230                         -0.2583991              -7.0314
       231                         -0.2543240              -6.9205
       232                         -0.2478031              -6.7431
       233                         -0.2422217              -6.5912
       234                         -0.2379417              -6.4747
       ...                                ...                  ...
       442                          0.7834755              21.3195
      -------------------------------------------------------------
                  HL-Gap            0.0118650 Eh            0.3229 eV
             Fermi-level           -0.3247805 Eh           -8.8377 eV

     #   Z          covCN         q      C6AA      α(0)
     1   6 C        2.919    -0.037    28.913     8.818
     2   6 C        2.919    -0.037    28.924     8.819
     3   6 C        2.979     0.004    27.922     8.668
     4   6 C        2.919    -0.046    29.130     8.851
     5   6 C        2.978     0.004    27.925     8.668
     6   6 C        2.990     0.002    27.984     8.678
     7   6 C        2.922    -0.036    28.897     8.815
     8   6 C        2.919    -0.037    28.915     8.818
     9   6 C        2.978     0.005    27.911     8.666
    10   6 C        2.918    -0.036    28.896     8.815
    11   6 C        2.978     0.005    27.898     8.664
    12   6 C        2.989     0.001    27.989     8.678
    13   6 C        2.915    -0.059    29.464     8.901
    14   6 C        2.995    -0.017    28.412     8.744
    15   6 C        2.990    -0.004    28.112     8.697
    16   6 C        2.993    -0.015    28.365     8.736
    17   6 C        2.915    -0.075    29.871     8.962
    18   6 C        2.918    -0.030    28.741     8.791
    19   6 C        2.978     0.006    27.892     8.663
    20   6 C        2.991     0.002    27.968     8.675
    21   6 C        2.985     0.000    28.019     8.683
    22   6 C        2.879     0.140    24.938     8.187
    23   6 C        2.996     0.006    27.868     8.660
    24   6 C        2.991     0.001    28.006     8.681
    25   6 C        2.870     0.136    25.031     8.201
    26   6 C        2.994    -0.001    28.050     8.688
    27   6 C        2.977     0.013    27.723     8.637
    28   6 C        2.912    -0.030    28.747     8.792
    29   6 C        2.975     0.006    27.877     8.661
    30   6 C        2.980     0.012    27.732     8.638
    31   6 C        2.989     0.002    27.984     8.678
    32   6 C        2.986     0.001    27.996     8.679
    33   6 C        2.975     0.012    27.741     8.640
    34   6 C        2.986    -0.000    28.032     8.685
    35   6 C        2.988    -0.000    28.031     8.685
    36   6 C        2.990     0.002    27.973     8.676
    37   6 C        2.977     0.013    27.723     8.637
    38   6 C        2.921    -0.036    28.903     8.816
    39   6 C        2.994     0.001    27.993     8.679
    40   6 C        2.925    -0.045    29.108     8.848
    41   6 C        2.986     0.000    28.019     8.683
    42   6 C        2.994    -0.001    28.042     8.686
    43   6 C        2.924    -0.048    29.203     8.862
    44   6 C        2.989    -0.001    28.034     8.685
    45   6 C        2.870     0.136    25.031     8.201
    46   6 C        2.919    -0.037    28.915     8.818
    47   6 C        2.989    -0.000    28.026     8.684
    48   6 C        2.925    -0.045    29.108     8.848
    49   6 C        2.990    -0.000    28.024     8.684
    50   6 C        2.995     0.001    27.993     8.679
    51   6 C        2.994    -0.001    28.050     8.688
    52   6 C        2.978     0.005    27.911     8.666
    53   6 C        2.992    -0.001    28.036     8.686
    54   6 C        2.996     0.006    27.868     8.660
    55   6 C        2.989    -0.001    28.035     8.685
    56   6 C        2.879     0.140    24.938     8.187
    57   6 C        2.989    -0.000    28.032     8.685
    58   6 C        2.921    -0.036    28.903     8.816
    59   6 C        2.991     0.001    28.006     8.681
    60   6 C        2.922    -0.036    28.897     8.815
    61   6 C        2.995    -0.003    28.092     8.694
    62   6 C        2.991     0.002    27.968     8.675
    63   6 C        2.989    -0.001    28.032     8.685
    64   6 C        2.978     0.006    27.892     8.663
    65   6 C        2.987    -0.000    28.025     8.684
    66   6 C        2.918    -0.030    28.741     8.791
    67   6 C        2.985     0.000    28.019     8.683
    68   6 C        2.924    -0.048    29.203     8.862
    69   6 C        2.978     0.005    27.898     8.664
    70   6 C        2.994    -0.001    28.042     8.686
    71   6 C        2.918    -0.036    28.896     8.815
    72   6 C        2.986     0.000    28.019     8.683
    73   6 C        2.989     0.001    27.989     8.678
    74   6 C        2.987    -0.000    28.025     8.684
    75   6 C        2.975     0.012    27.741     8.640
    76   6 C        2.919    -0.037    28.924     8.819
    77   6 C        2.989    -0.001    28.032     8.685
    78   6 C        2.986     0.001    27.996     8.679
    79   6 C        2.995    -0.003    28.092     8.694
    80   6 C        2.989     0.002    27.984     8.678
    81   6 C        2.915    -0.075    29.871     8.962
    82   6 C        2.979     0.004    27.922     8.668
    83   6 C        2.989    -0.000    28.032     8.685
    84   6 C        2.989    -0.001    28.035     8.685
    85   6 C        2.980     0.012    27.732     8.638
    86   6 C        2.992    -0.001    28.036     8.686
    87   6 C        2.975     0.006    27.877     8.661
    88   6 C        2.993    -0.015    28.365     8.736
    89   6 C        2.919    -0.037    28.913     8.818
    90   6 C        2.990    -0.000    28.024     8.684
    91   6 C        2.995    -0.017    28.412     8.744
    92   6 C        2.989    -0.000    28.026     8.684
    93   6 C        2.915    -0.059    29.464     8.901
    94   6 C        2.989    -0.001    28.034     8.685
    95   6 C        2.912    -0.030    28.747     8.792
    96   6 C        2.990    -0.004    28.112     8.697
    97   6 C        2.990     0.002    27.973     8.676
    98   6 C        2.978     0.004    27.925     8.668
    99   6 C        2.988    -0.000    28.031     8.685
   100   6 C        2.919    -0.046    29.130     8.851
   101   6 C        2.986    -0.000    28.032     8.685
   102   6 C        2.990     0.002    27.984     8.678
   103   1 H        0.926     0.033     2.540     2.492
   104   1 H        0.926     0.034     2.530     2.487
   105   1 H        0.926     0.038     2.477     2.461
   106   1 H        0.926     0.032     2.552     2.498
   107   1 H        0.926     0.033     2.539     2.492
   108   1 H        0.926     0.034     2.530     2.487
   109   1 H        0.926     0.049     2.338     2.391
   110   1 H        0.926     0.045     2.383     2.414
   111   1 H        0.926     0.039     2.457     2.451
   112   1 H        0.926     0.030     2.589     2.516
   113   1 H        0.926     0.032     2.563     2.503
   114   1 H        0.926     0.032     2.552     2.498
   115   1 H        0.926     0.033     2.544     2.494
   116   1 H        0.926     0.033     2.539     2.492
   117   1 H        0.926     0.032     2.552     2.498
   118   1 H        0.926     0.032     2.563     2.503
   119   1 H        0.926     0.032     2.552     2.498
   120   1 H        0.926     0.039     2.457     2.451
   121   1 H        0.926     0.033     2.544     2.494
   122   1 H        0.926     0.034     2.530     2.487
   123   1 H        0.926     0.034     2.530     2.487
   124   1 H        0.926     0.045     2.383     2.414
   125   1 H        0.926     0.033     2.540     2.492
   126   1 H        0.926     0.049     2.338     2.391
   127   1 H        0.926     0.030     2.589     2.516
   128   1 H        0.926     0.038     2.477     2.461
   129   8 O        1.710    -0.231    17.823     5.700
   130   8 O        1.710    -0.231    17.823     5.700

 Mol. C6AA /au·bohr⁶  :     348718.894192
 Mol. C8AA /au·bohr⁸  :    9549596.903293
 Mol. α(0) /au        :        963.260233


Wiberg/Mayer (AO) data.
largest (>0.10) Wiberg bond orders for each atom

 ---------------------------------------------------------------------------
     #   Z sym  total        # sym  WBO       # sym  WBO       # sym  WBO
 ---------------------------------------------------------------------------
     1   6 C    3.972 --     8 C    1.487     9 C    1.346   103 H    0.961
     2   6 C    3.961 --    10 C    1.498    11 C    1.330   104 H    0.961
     3   6 C    3.966 --     8 C    1.337    12 C    1.277    11 C    1.151
     4   6 C    3.969 --    18 C    1.476    19 C    1.344   105 H    0.963
     5   6 C    3.961 --    10 C    1.335    20 C    1.286    19 C    1.141
     6   6 C    3.977 --    11 C    1.284    20 C    1.253    21 C    1.217
     7   6 C    3.902 --    29 C    1.393    28 C    1.382   106 H    0.962
     8   6 C    3.954 --     1 C    1.487     3 C    1.337   107 H    0.960
     9   6 C    3.950 --     1 C    1.346    31 C    1.278    29 C    1.135
    10   6 C    3.962 --     2 C    1.498     5 C    1.335   108 H    0.962
    11   6 C    3.961 --     2 C    1.330     6 C    1.284     3 C    1.151
    12   6 C    3.975 --     3 C    1.277    31 C    1.249    34 C    1.226
    13   6 C    3.966 --    18 C    1.401    22 C    1.398   109 H    0.968
    14   6 C    3.978 --    19 C    1.293    22 C    1.278    23 C    1.171
    15   6 C    3.963 --    23 C    1.275    24 C    1.252    20 C    1.214
    16   6 C    3.944 --    23 C    1.290    26 C    1.252    25 C    1.182
    17   6 C    3.934 --    25 C    1.522    27 C    1.217   110 H    0.966
    18   6 C    3.975 --     4 C    1.476    13 C    1.401   111 H    0.970
    19   6 C    3.973 --     4 C    1.344    14 C    1.293     5 C    1.141
    20   6 C    3.979 --     5 C    1.286     6 C    1.253    15 C    1.214
    21   6 C    3.952 --    44 C    1.273    34 C    1.248     6 C    1.217
    22   6 C    3.921 --    13 C    1.398    14 C    1.278   129 O    1.056
    23   6 C    3.949 --    16 C    1.290    15 C    1.275    14 C    1.171
    24   6 C    3.968 --    53 C    1.269    15 C    1.252    44 C    1.223
    25   6 C    3.910 --    17 C    1.522    16 C    1.182   129 O    1.041
    26   6 C    3.971 --    61 C    1.272    16 C    1.252    53 C    1.231
    27   6 C    3.977 --    68 C    1.412    17 C    1.217    61 C    1.193
    28   6 C    3.983 --    38 C    1.507     7 C    1.382   112 H    0.970
    29   6 C    3.982 --     7 C    1.393    39 C    1.261     9 C    1.135
    30   6 C    3.985 --    40 C    1.329    38 C    1.274    39 C    1.218
    31   6 C    3.981 --     9 C    1.278    12 C    1.249    41 C    1.228
    32   6 C    3.980 --    42 C    1.278    39 C    1.256    41 C    1.221
    33   6 C    3.985 --    40 C    1.356    43 C    1.283    42 C    1.187
    34   6 C    3.960 --    74 C    1.268    21 C    1.248    12 C    1.226
    35   6 C    3.969 --    41 C    1.283    77 C    1.246    74 C    1.220
    36   6 C    3.978 --    42 C    1.269    79 C    1.263    77 C    1.225
    37   6 C    3.977 --    43 C    1.412    81 C    1.217    79 C    1.193
    38   6 C    3.907 --    28 C    1.507    30 C    1.274   113 H    0.969
    39   6 C    3.956 --    29 C    1.261    32 C    1.256    30 C    1.218
    40   6 C    3.827 --    33 C    1.356    30 C    1.329   114 H    0.966
    41   6 C    3.938 --    35 C    1.283    31 C    1.228    32 C    1.221
    42   6 C    3.959 --    32 C    1.278    36 C    1.269    33 C    1.187
    43   6 C    3.851 --    37 C    1.412    33 C    1.283   115 H    0.966
    44   6 C    3.960 --    21 C    1.273    83 C    1.249    24 C    1.223
    45   6 C    3.910 --    81 C    1.522    88 C    1.182   130 O    1.041
    46   6 C    3.954 --    89 C    1.487    82 C    1.337   116 H    0.960
    47   6 C    3.964 --    74 C    1.255    84 C    1.251    83 C    1.242
    48   6 C    3.827 --    75 C    1.356    85 C    1.329   117 H    0.966
    49   6 C    3.966 --    77 C    1.268    86 C    1.244    84 C    1.234
    50   6 C    3.956 --    87 C    1.261    78 C    1.256    85 C    1.218
    51   6 C    3.971 --    79 C    1.272    88 C    1.252    86 C    1.231
    52   6 C    3.950 --    89 C    1.346    80 C    1.278    87 C    1.135
    53   6 C    3.965 --    24 C    1.269    90 C    1.244    26 C    1.231
    54   6 C    3.949 --    88 C    1.290    96 C    1.275    91 C    1.171
    55   6 C    3.953 --    83 C    1.256    92 C    1.251    90 C    1.234
    56   6 C    3.921 --    93 C    1.398    91 C    1.278   130 O    1.056
    57   6 C    3.962 --    84 C    1.256    94 C    1.249    92 C    1.242
    58   6 C    3.907 --    95 C    1.507    85 C    1.274   118 H    0.969
    59   6 C    3.968 --    86 C    1.269    96 C    1.252    94 C    1.223
    60   6 C    3.902 --    87 C    1.393    95 C    1.382   119 H    0.962
    61   6 C    3.940 --    26 C    1.272    97 C    1.263    27 C    1.193
    62   6 C    3.979 --    98 C    1.286   102 C    1.253    96 C    1.214
    63   6 C    3.953 --    90 C    1.268    99 C    1.246    97 C    1.225
    64   6 C    3.973 --   100 C    1.344    91 C    1.293    98 C    1.141
    65   6 C    3.959 --   101 C    1.268    92 C    1.255    99 C    1.220
    66   6 C    3.975 --   100 C    1.476    93 C    1.401   120 H    0.970
    67   6 C    3.952 --    94 C    1.273   101 C    1.248   102 C    1.217
    68   6 C    3.851 --    27 C    1.412    75 C    1.283   121 H    0.966
    69   6 C    3.961 --    76 C    1.330   102 C    1.284    82 C    1.151
    70   6 C    3.959 --    78 C    1.278    97 C    1.269    75 C    1.187
    71   6 C    3.962 --    76 C    1.498    98 C    1.335   122 H    0.962
    72   6 C    3.938 --    99 C    1.283    80 C    1.228    78 C    1.221
    73   6 C    3.975 --    82 C    1.277    80 C    1.249   101 C    1.226
    74   6 C    3.959 --    34 C    1.268    47 C    1.255    35 C    1.220
    75   6 C    3.985 --    48 C    1.356    68 C    1.283    70 C    1.187
    76   6 C    3.961 --    71 C    1.498    69 C    1.330   123 H    0.961
    77   6 C    3.953 --    49 C    1.268    35 C    1.246    36 C    1.225
    78   6 C    3.980 --    70 C    1.278    50 C    1.256    72 C    1.221
    79   6 C    3.940 --    51 C    1.272    36 C    1.263    37 C    1.193
    80   6 C    3.981 --    52 C    1.278    73 C    1.249    72 C    1.228
    81   6 C    3.934 --    45 C    1.522    37 C    1.217   124 H    0.966
    82   6 C    3.966 --    46 C    1.337    73 C    1.277    69 C    1.151
    83   6 C    3.962 --    55 C    1.256    44 C    1.249    47 C    1.242
    84   6 C    3.953 --    57 C    1.256    47 C    1.251    49 C    1.234
    85   6 C    3.985 --    48 C    1.329    58 C    1.274    50 C    1.218
    86   6 C    3.965 --    59 C    1.269    49 C    1.244    51 C    1.231
    87   6 C    3.982 --    60 C    1.393    50 C    1.261    52 C    1.135
    88   6 C    3.944 --    54 C    1.290    51 C    1.252    45 C    1.182
    89   6 C    3.972 --    46 C    1.487    52 C    1.346   125 H    0.961
    90   6 C    3.966 --    63 C    1.268    53 C    1.244    55 C    1.234
    91   6 C    3.978 --    64 C    1.293    56 C    1.278    54 C    1.171
    92   6 C    3.964 --    65 C    1.255    55 C    1.251    57 C    1.242
    93   6 C    3.966 --    66 C    1.401    56 C    1.398   126 H    0.968
    94   6 C    3.960 --    67 C    1.273    57 C    1.249    59 C    1.223
    95   6 C    3.983 --    58 C    1.507    60 C    1.382   127 H    0.970
    96   6 C    3.963 --    54 C    1.275    59 C    1.252    62 C    1.214
    97   6 C    3.978 --    70 C    1.269    61 C    1.263    63 C    1.225
    98   6 C    3.961 --    71 C    1.335    62 C    1.286    64 C    1.141
    99   6 C    3.969 --    72 C    1.283    63 C    1.246    65 C    1.220
   100   6 C    3.969 --    66 C    1.476    64 C    1.344   128 H    0.963
   101   6 C    3.960 --    65 C    1.268    67 C    1.248    73 C    1.226
   102   6 C    3.977 --    69 C    1.284    62 C    1.253    67 C    1.217
   103   1 H    0.998 --     1 C    0.961
   104   1 H    0.998 --     2 C    0.961
   105   1 H    0.998 --     4 C    0.963
   106   1 H    0.998 --     7 C    0.962
   107   1 H    0.998 --     8 C    0.960
   108   1 H    0.998 --    10 C    0.962
   109   1 H    0.997 --    13 C    0.968
   110   1 H    0.997 --    17 C    0.966
   111   1 H    0.997 --    18 C    0.970
   112   1 H    0.998 --    28 C    0.970
   113   1 H    0.998 --    38 C    0.969
   114   1 H    0.998 --    40 C    0.966
   115   1 H    0.998 --    43 C    0.966
   116   1 H    0.998 --    46 C    0.960
   117   1 H    0.998 --    48 C    0.966
   118   1 H    0.998 --    58 C    0.969
   119   1 H    0.998 --    60 C    0.962
   120   1 H    0.997 --    66 C    0.970
   121   1 H    0.998 --    68 C    0.966
   122   1 H    0.998 --    71 C    0.962
   123   1 H    0.998 --    76 C    0.961
   124   1 H    0.997 --    81 C    0.966
   125   1 H    0.998 --    89 C    0.961
   126   1 H    0.997 --    93 C    0.968
   127   1 H    0.998 --    95 C    0.970
   128   1 H    0.998 --   100 C    0.963
   129   8 O    2.348 --    22 C    1.056    25 C    1.041
   130   8 O    2.348 --    56 C    1.056    45 C    1.041
 ---------------------------------------------------------------------------

Topologies differ in total number of bonds
Writing topology from bond orders to xtbtopo.mol

molecular dipole:
                 x           y           z       tot (Debye)
 q only:       -0.000       0.000       0.000
   full:       -0.000       0.000      -0.000       0.000
molecular quadrupole (traceless):
                xx          xy          yy          xz          yz          zz
 q only:      -11.539       1.666      31.187       0.007      -0.003     -19.648
  q+dip:       12.385       2.052      55.719       0.007       0.001     -68.104
   full:       -7.249       1.674      36.389       0.010      -0.000     -29.140


           -------------------------------------------------
          | TOTAL ENERGY             -240.631834154481 Eh   |
          | GRADIENT NORM               0.000383777064 Eh/α |
          | HOMO-LUMO GAP               0.322863447410 eV   |
           -------------------------------------------------

------------------------------------------------------------------------
 * finished run on 2025/12/08 at 00:31:47.891     
------------------------------------------------------------------------
 total:
 * wall-time:     0 d,  0 h,  0 min,  0.334 sec
 *  cpu-time:     0 d,  0 h,  0 min,  4.734 sec
 * ratio c/w:    14.175 speedup
 SCF:
 * wall-time:     0 d,  0 h,  0 min,  0.255 sec
 *  cpu-time:     0 d,  0 h,  0 min,  3.859 sec
 * ratio c/w:    15.135 speedup

normal termination of xtb
