      -----------------------------------------------------------      
     |                   =====================                   |     
     |                           x T B                           |     
     |                   =====================                   |     
     |                         S. Grimme                         |     
     |          Mulliken Center for Theoretical Chemistry        |     
     |                    University of Bonn                     |     
      -----------------------------------------------------------      

   * xtb version 6.7.1pre (5071a88) compiled by 'Marcel@Raven' on 2024-07-23

   xtb is free software: you can redistribute it and/or modify it under
   the terms of the GNU Lesser General Public License as published by
   the Free Software Foundation, either version 3 of the License, or
   (at your option) any later version.
   
   xtb is distributed in the hope that it will be useful,
   but WITHOUT ANY WARRANTY; without even the implied warranty of
   MERCHANTABILITY or FITNESS FOR A PARTICULAR PURPOSE.  See the
   GNU Lesser General Public License for more details.
   
   Cite this work as:
   * C. Bannwarth, E. Caldeweyher, S. Ehlert, A. Hansen, P. Pracht,
     J. Seibert, S. Spicher, S. Grimme, WIREs Comput. Mol. Sci., 2020, 11,
     e01493. DOI: 10.1002/wcms.1493
   
   for GFN2-xTB:
   * C. Bannwarth, S. Ehlert and S. Grimme., J. Chem. Theory Comput., 2019,
     15, 1652-1671. DOI: 10.1021/acs.jctc.8b01176
   for GFN1-xTB:
   * S. Grimme, C. Bannwarth, P. Shushkov, J. Chem. Theory Comput., 2017,
     13, 1989-2009. DOI: 10.1021/acs.jctc.7b00118
   for GFN0-xTB:
   * P. Pracht, E. Caldeweyher, S. Ehlert, S. Grimme, ChemRxiv, 2019, preprint.
     DOI: 10.26434/chemrxiv.8326202.v1
   for GFN-FF:
   * S. Spicher and S. Grimme, Angew. Chem. Int. Ed., 2020, 59, 15665-15673.
     DOI: 10.1002/anie.202004239
   
   for ALPB and GBSA implicit solvation:
   * S. Ehlert, M. Stahn, S. Spicher, S. Grimme, J. Chem. Theory Comput.,
     2021, 17, 4250-4261. DOI: 10.1021/acs.jctc.1c00471
   
   for ddCOSMO and CPCM-X implicit solvation:
   * M. Stahn, S. Ehlert, S. Grimme, J. Phys. Chem. A,
     2023, XX, XXXX-XXXX. DOI: 10.1021/acs.jpca.3c04382
   
   for DFT-D4:
   * E. Caldeweyher, C. Bannwarth and S. Grimme, J. Chem. Phys., 2017,
     147, 034112. DOI: 10.1063/1.4993215
   * E. Caldeweyher, S. Ehlert, A. Hansen, H. Neugebauer, S. Spicher,
     C. Bannwarth and S. Grimme, J. Chem. Phys., 2019, 150, 154122.
     DOI: 10.1063/1.5090222
   * E. Caldeweyher, J.-M. Mewes, S. Ehlert and S. Grimme, Phys. Chem. Chem. Phys.
     2020, 22, 8499-8512. DOI: 10.1039/D0CP00502A
   
   for sTDA-xTB:
   * S. Grimme and C. Bannwarth, J. Chem. Phys., 2016, 145, 054103.
     DOI: 10.1063/1.4959605
   
   in the mass-spec context:
   * V. Asgeirsson, C. Bauer and S. Grimme, Chem. Sci., 2017, 8, 4879.
     DOI: 10.1039/c7sc00601b
   * J. Koopman and S. Grimme, ACS Omega 2019, 4, 12, 15120-15133.
     DOI: 10.1021/acsomega.9b02011
   
   for metadynamics refer to:
   * S. Grimme, J. Chem. Theory Comput., 2019, 155, 2847-2862
     DOI: 10.1021/acs.jctc.9b00143
   
   for SPH calculations refer to:
   * S. Spicher and S. Grimme, J. Chem. Theory Comput., 2021, 17, 1701-1714
     DOI: 10.1021/acs.jctc.0c01306
   
   for ONIOM refer to:
   * C. Plett, A. Katbashev, S. Ehlert, S. Grimme, M. Bursch,
     Phys. Chem. Chem. Phys., 2023, 25, 17860-17868. DOI: 10.1039/D3CP02178E
   
   for DIPRO refer to:
   * J. Kohn, N. Gildemeister, S. Grimme, D. Fazzi, A. Hansen,
     J. Chem. Phys., 2023, just accepted.
   
   for PTB refer to:
   * S. Grimme, M. Mueller, A. Hansen, J. Chem. Phys., 2023, 158, 124111.
     DOI: 10.1063/5.0137838
   
   with help from (in alphabetical order)
   P. Atkinson, C. Bannwarth, F. Bohle, G. Brandenburg, E. Caldeweyher
   M. Checinski, S. Dohm, S. Ehlert, S. Ehrlich, I. Gerasimov, C. Hölzer
   A. Katbashev, J. Kohn, J. Koopman, C. Lavigne, S. Lehtola, F. März, M. Müller,
   F. Musil, H. Neugebauer, J. Pisarek, C. Plett, P. Pracht, F. Pultar,
   J. Seibert, P. Shushkov, S. Spicher, M. Stahn, M. Steiner, T. Strunk,
   J. Stückrath, T. Rose, and J. Unsleber
   
 * started run on 2025/12/08 at 00:31:41.871     
   ID    Z sym.   atoms
    1    6 C      1-102
    2    1 H      103-128
    3    8 O      129, 130

           -------------------------------------------------
          |                Calculation Setup                |
           -------------------------------------------------

          program call               : xtb "C:\Users\LENOVO GAMING\Documents\GitHub\molecular-conductivity-sim\dataset\1.5nm-2Odoped-1.5percent.xyz" --opt --parallel 4
          coordinate file            : C:\Users\LENOVO GAMING\Documents\GitHub\molecular-conductivity-sim\dataset\1.5nm-2Odoped-1.5percent.xyz
          omp threads                :                     4


           -------------------------------------------------
          |                 G F N 2 - x T B                 |
           -------------------------------------------------

        Reference                      10.1021/acs.jctc.8b01176
      * Hamiltonian:
        H0-scaling (s, p, d)           1.850000    2.230000    2.230000
        zeta-weighting                 0.500000
      * Dispersion:
        s8                             2.700000
        a1                             0.520000
        a2                             5.000000
        s9                             5.000000
      * Repulsion:
        kExp                           1.500000    1.000000
        rExp                           1.000000
      * Coulomb:
        alpha                          2.000000
        third order                    shell-resolved
        anisotropic                    true
        a3                             3.000000
        a5                             4.000000
        cn-shift                       1.200000
        cn-exp                         4.000000
        max-rad                        5.000000


          ...................................................
          :                      SETUP                      :
          :.................................................:
          :  # basis functions                 442          :
          :  # atomic orbitals                 442          :
          :  # shells                          234          :
          :  # electrons                       446          :
          :  max. iterations                   250          :
          :  Hamiltonian                  GFN2-xTB          :
          :  restarted?                      false          :
          :  GBSA solvation                  false          :
          :  PC potential                    false          :
          :  electronic temp.          300.0000000     K    :
          :  accuracy                    1.0000000          :
          :  -> integral cutoff          0.2500000E+02      :
          :  -> integral neglect         0.1000000E-07      :
          :  -> SCF convergence          0.1000000E-05 Eh   :
          :  -> wf. convergence          0.1000000E-03 e    :
          :  Broyden damping             0.4000000          :
          :  net charge                          0          :
          :  unpaired electrons                  0          :
          ...................................................

 iter      E             dE          RMSdq      gap      omega  full diag
   1   -244.8768489 -0.244877E+03  0.497E+00    0.35       0.0  T
   2   -244.9257979 -0.489491E-01  0.302E+00    0.33       1.0  T
   3   -244.7222932  0.203505E+00  0.133E+00    0.38       1.0  T
   4   -244.9446140 -0.222321E+00  0.306E-01    0.33       1.0  T
   5   -244.9538506 -0.923663E-02  0.173E-01    0.35       1.0  T
   6   -244.9595131 -0.566249E-02  0.695E-02    0.34       1.0  T
   7   -244.9601643 -0.651214E-03  0.237E-02    0.34       1.0  T
   8   -244.9601457  0.186298E-04  0.167E-02    0.34       1.0  T
   9   -244.9598144  0.331347E-03  0.382E-02    0.34       1.0  T
  10   -244.9601905 -0.376161E-03  0.432E-03    0.34       2.0  T
  11   -244.9601936 -0.305012E-05  0.102E-03    0.34       8.6  T
  12   -244.9601937 -0.159711E-06  0.400E-04    0.34      21.9  T
  13   -244.9601937 -0.861152E-08  0.214E-04    0.34      41.0  T

   *** convergence criteria satisfied after 13 iterations ***

         #    Occupation            Energy/Eh            Energy/eV
      -------------------------------------------------------------
         1        2.0000           -0.7290196             -19.8376
       ...           ...                  ...                  ...
       217        2.0000           -0.3820590             -10.3964
       218        2.0000           -0.3775976             -10.2750
       219        2.0000           -0.3769429             -10.2571
       220        2.0000           -0.3609020              -9.8206
       221        2.0000           -0.3604695              -9.8089
       222        2.0000           -0.3503184              -9.5326
       223        1.9972           -0.3312135              -9.0128 (HOMO)
       224        0.0028           -0.3187474              -8.6736 (LUMO)
       225                         -0.2922051              -7.9513
       226                         -0.2862032              -7.7880
       227                         -0.2718364              -7.3970
       228                         -0.2659525              -7.2369
       ...                                ...                  ...
       442                          0.7504231              20.4201
      -------------------------------------------------------------
                  HL-Gap            0.0124661 Eh            0.3392 eV
             Fermi-level           -0.3249805 Eh           -8.8432 eV

 SCC (total)                   0 d,  0 h,  0 min,  1.014 sec
 SCC setup                      ...        0 min,  0.002 sec (  0.197%)
 Dispersion                     ...        0 min,  0.006 sec (  0.592%)
 classical contributions        ...        0 min,  0.001 sec (  0.099%)
 integral evaluation            ...        0 min,  0.044 sec (  4.339%)
 iterations                     ...        0 min,  0.780 sec ( 76.923%)
 molecular gradient             ...        0 min,  0.173 sec ( 17.061%)
 printout                       ...        0 min,  0.008 sec (  0.789%)

         :::::::::::::::::::::::::::::::::::::::::::::::::::::
         ::                     SUMMARY                     ::
         :::::::::::::::::::::::::::::::::::::::::::::::::::::
         :: total energy            -240.616770988552 Eh    ::
         :: gradient norm              0.048570348064 Eh/a0 ::
         :: HOMO-LUMO gap              0.339219857154 eV    ::
         ::.................................................::
         :: SCC energy              -244.967979850262 Eh    ::
         :: -> isotropic ES            0.026456078294 Eh    ::
         :: -> anisotropic ES          0.011744169912 Eh    ::
         :: -> anisotropic XC          0.087165525917 Eh    ::
         :: -> dispersion             -0.282491314614 Eh    ::
         :: repulsion energy           4.351208861710 Eh    ::
         :: add. restraining           0.000000000000 Eh    ::
         :: total charge               0.000000000005 e     ::
         :::::::::::::::::::::::::::::::::::::::::::::::::::::

      ----------------------------------------------------------- 
     |                   =====================                   |
     |                        A N C O P T                        |
     |                   =====================                   |
     |               Approximate Normal Coordinate               |
     |                Rational Function Optimizer                |
      ----------------------------------------------------------- 
      ----------------------------------------------------------- 
     |                   =====================                   |
     |                        A N C O P T                        |
     |                   =====================                   |
     |               Approximate Normal Coordinate               |
     |                Rational Function Optimizer                |
      ----------------------------------------------------------- 

          ...................................................
          :                      SETUP                      :
          :.................................................:
          :   optimization level            normal          :
          :   max. optcycles                   390          :
          :   ANC micro-cycles                  20          :
          :   degrees of freedom               384          :
          :.................................................:
          :   RF solver                   davidson          :
          :   write xtbopt.log                true          :
          :   linear?                        false          :
          :   energy convergence         0.5000000E-05 Eh   :
          :   grad. convergence          0.1000000E-02 Eh/α :
          :   maxmium RF displ.          1.0000000          :
          :   Hlow (freq-cutoff)         0.1000000E-01      :
          :   Hmax (freq-cutoff)         5.0000000          :
          :   S6 in model hess.         20.0000000          :
          ...................................................

generating ANC from exact Hessian ...
Using Lindh-Hessian (1995)
 Shifting diagonal of input Hessian by   9.877594378172525E-003
 Lowest  eigenvalues of input Hessian
    0.000000    0.000000    0.000000    0.000000    0.000000    0.000000
    0.010000    0.010143    0.010226    0.010424    0.010511    0.011316
    0.011403    0.011578    0.011916    0.012395    0.012968    0.013365
 Highest eigenvalues
    2.095929    2.110558    2.118002    2.139829    2.165541    2.172200
 

........................................................................
.............................. CYCLE    1 ..............................
........................................................................

 iter      E             dE          RMSdq      gap      omega  full diag
   1   -244.9601937 -0.244960E+03  0.834E-05    0.34       0.0  T
   2   -244.9601937 -0.180904E-09  0.633E-05    0.34     138.6  T
   3   -244.9601937 -0.461483E-09  0.423E-05    0.34     207.1  T
     SCC iter.                  ...        0 min,  0.194 sec
     gradient                   ...        0 min,  0.160 sec
 * total energy  :  -240.6167710 Eh     change       -0.1367425E-08 Eh
   gradient norm :     0.0485722 Eh/α   predicted     0.0000000E+00 (-100.00%)
   displ. norm   :     0.4827880 α      lambda       -0.1425201E-01
   maximum displ.:     0.4244575 α      in ANC's #43, #69, #61, ...

........................................................................
.............................. CYCLE    2 ..............................
........................................................................

 iter      E             dE          RMSdq      gap      omega  full diag
   1   -245.1031382 -0.245103E+03  0.104E-01    0.33       0.0  T
   2   -245.1031588 -0.205938E-04  0.627E-02    0.33       1.0  T
   3   -245.1030012  0.157635E-03  0.384E-02    0.34       1.0  T
   4   -245.1030760 -0.748932E-04  0.203E-02    0.33       1.0  T
   5   -245.1030437  0.323876E-04  0.228E-02    0.33       1.0  T
   6   -245.1031765 -0.132886E-03  0.406E-03    0.33       2.2  T
   7   -245.1031801 -0.352554E-05  0.107E-03    0.33       8.2  T
   8   -245.1031802 -0.939185E-07  0.517E-04    0.33      17.0  T
   9   -245.1031802 -0.896512E-08  0.179E-04    0.33      49.1  T
     SCC iter.                  ...        0 min,  0.504 sec
     gradient                   ...        0 min,  0.178 sec
 * total energy  :  -240.6274009 Eh     change       -0.1062994E-01 Eh
   gradient norm :     0.0225118 Eh/α   predicted    -0.8787229E-02 ( -17.34%)
   displ. norm   :     0.4708954 α      lambda       -0.6507055E-02
   maximum displ.:     0.4311005 α      in ANC's #43, #22, #61, ...

........................................................................
.............................. CYCLE    3 ..............................
........................................................................

 iter      E             dE          RMSdq      gap      omega  full diag
   1   -245.2178535 -0.245218E+03  0.891E-02    0.33       0.0  T
   2   -245.2178752 -0.217328E-04  0.546E-02    0.33       1.0  T
   3   -245.2176928  0.182427E-03  0.400E-02    0.33       1.0  T
   4   -245.2178674 -0.174678E-03  0.141E-02    0.33       1.0  T
   5   -245.2179068 -0.393408E-04  0.315E-03    0.33       2.8  T
   6   -245.2179049  0.191945E-05  0.381E-03    0.33       2.3  T
   7   -245.2179071 -0.226985E-05  0.240E-03    0.33       3.7  T
   8   -245.2179085 -0.141600E-05  0.440E-04    0.33      19.9  T
   9   -245.2179086 -0.101545E-07  0.171E-04    0.33      51.3  T
  10   -245.2179086 -0.248036E-08  0.660E-05    0.33     132.9  T
     SCC iter.                  ...        0 min,  0.587 sec
     gradient                   ...        0 min,  0.176 sec
 * total energy  :  -240.6314423 Eh     change       -0.4041336E-02 Eh
   gradient norm :     0.0066417 Eh/α   predicted    -0.3975476E-02 (  -1.63%)
   displ. norm   :     0.1812679 α      lambda       -0.6785135E-03
   maximum displ.:     0.1597286 α      in ANC's #43, #22, #30, ...

........................................................................
.............................. CYCLE    4 ..............................
........................................................................

 iter      E             dE          RMSdq      gap      omega  full diag
   1   -245.2502870 -0.245250E+03  0.341E-02    0.32       0.0  T
   2   -245.2502883 -0.130604E-05  0.219E-02    0.32       1.0  T
   3   -245.2502429  0.453794E-04  0.170E-02    0.33       1.0  T
   4   -245.2502896 -0.466166E-04  0.553E-03    0.32       1.6  T
   5   -245.2502953 -0.575182E-05  0.927E-04    0.32       9.5  T
   6   -245.2502952  0.622447E-07  0.867E-04    0.32      10.1  T
   7   -245.2502951  0.183003E-06  0.119E-03    0.32       7.4  T
   8   -245.2502954 -0.359590E-06  0.177E-04    0.32      49.6  T
     SCC iter.                  ...        0 min,  0.465 sec
     gradient                   ...        0 min,  0.167 sec
 * total energy  :  -240.6318161 Eh     change       -0.3738131E-03 Eh
   gradient norm :     0.0023821 Eh/α   predicted    -0.3504078E-03 (  -6.26%)
   displ. norm   :     0.0295588 α      lambda       -0.2501957E-04
   maximum displ.:     0.0219191 α      in ANC's #22, #43, #30, ...

........................................................................
.............................. CYCLE    5 ..............................
........................................................................

 iter      E             dE          RMSdq      gap      omega  full diag
   1   -245.2514602 -0.245251E+03  0.725E-03    0.32       0.0  T
   2   -245.2514601  0.303939E-07  0.453E-03    0.32       1.9  T
   3   -245.2514573  0.286969E-05  0.351E-03    0.32       2.5  T
   4   -245.2514603 -0.299669E-05  0.478E-04    0.32      18.3  T
   5   -245.2514603 -0.125869E-07  0.324E-04    0.32      27.1  T
   6   -245.2514603 -0.856346E-09  0.314E-04    0.32      27.9  T
     SCC iter.                  ...        0 min,  0.359 sec
     gradient                   ...        0 min,  0.168 sec
 * total energy  :  -240.6318319 Eh     change       -0.1579029E-04 Eh
   gradient norm :     0.0010911 Eh/α   predicted    -0.1273394E-04 ( -19.36%)
   displ. norm   :     0.0182285 α      lambda       -0.3992314E-05
   maximum displ.:     0.0156710 α      in ANC's #22, #30, #110, ...

........................................................................
.............................. CYCLE    6 ..............................
........................................................................

 iter      E             dE          RMSdq      gap      omega  full diag
   1   -245.2505120 -0.245251E+03  0.460E-03    0.32       0.0  T
   2   -245.2505121 -0.524751E-07  0.275E-03    0.32       3.2  T
   3   -245.2505116  0.507416E-06  0.153E-03    0.32       5.7  T
   4   -245.2505090  0.257276E-05  0.342E-03    0.32       2.6  T
   5   -245.2505121 -0.307148E-05  0.383E-04    0.32      22.9  T
   6   -245.2505121 -0.297174E-07  0.142E-04    0.32      61.6  T
   7   -245.2505121 -0.340782E-08  0.414E-05    0.32     211.8  T
     SCC iter.                  ...        0 min,  0.422 sec
     gradient                   ...        0 min,  0.191 sec
 * total energy  :  -240.6318342 Eh     change       -0.2285152E-05 Eh
   gradient norm :     0.0003844 Eh/α   predicted    -0.2000747E-05 ( -12.45%)
   displ. norm   :     0.0039788 α      lambda       -0.4281975E-06
   maximum displ.:     0.0023233 α      in ANC's #22, #43, #30, ...

   *** GEOMETRY OPTIMIZATION CONVERGED AFTER 6 ITERATIONS ***

------------------------------------------------------------------------
 total energy gain   :        -0.0150632 Eh       -9.4523 kcal/mol
 total RMSD          :         0.0999842 a0        0.0529 Å
 total power (kW/mol):        -6.5913894 (step)   -9.6837 (real)
------------------------------------------------------------------------

 ANCopt (total)                0 d,  0 h,  0 min,  4.084 sec
 optimizer setup                ...        0 min,  0.002 sec (  0.049%)
 model hessian                  ...        0 min,  0.121 sec (  2.963%)
 ANC generation                 ...        0 min,  0.031 sec (  0.759%)
 coordinate transformation      ...        0 min,  0.000 sec (  0.000%)
 single point calculation       ...        0 min,  3.897 sec ( 95.421%)
 optimization log               ...        0 min,  0.028 sec (  0.686%)
 hessian update                 ...        0 min,  0.001 sec (  0.024%)
 rational function              ...        0 min,  0.003 sec (  0.073%)

================
 final structure:
================
130
 xtb: 6.7.1pre (5071a88)
C           -2.68724639049969       -7.37329195671498       -0.00108728112706
C            1.61140134149899       -7.29430227452715        0.00155102324226
C           -0.59913385919640       -6.15076720673533        0.00005292468607
C            5.94779854419572       -7.15863854132724        0.00137748944487
C            3.68906908368296       -6.05583724027652        0.00114367771525
C            1.51906081841862       -4.88560370629800        0.00049539062012
C           -5.62239633073076       -7.40566226866115       -0.00175745832592
C           -1.31596311868779       -7.35111339450646       -0.00061739546841
C           -3.44217702390817       -6.19829300265295       -0.00084599629335
C            2.98220872089712       -7.26269544761013        0.00179717000901
C            0.84189262774392       -6.12392179446085        0.00067990087800
C           -1.32851193230662       -4.93957123524280       -0.00003122385277
C            7.94866092370616       -5.81290409909417        0.00047612469695
C            5.77188622500465       -4.76033307133395        0.00039969207153
C            3.60217060889149       -3.60028339886875        0.00025519243825
C            5.68581260974299       -2.33351697613695       -0.00032407678784
C            7.78403271569233       -1.12176411028447       -0.00108819285964
C            7.32154791121197       -7.05138160814089        0.00111907308177
C            5.13632435773139       -6.01692062103053        0.00101374383362
C            2.93871047605629       -4.85684596154486        0.00062751769553
C            0.77911113851111       -3.66750645639398        0.00020839517882
C            7.17532018160516       -4.66568540444227        0.00012335240380
C            5.00506982299323       -3.55757961700385        0.00009832971708
C            2.87125919919845       -2.39185617103881        0.00003185015772
C            7.10978658094133       -2.30696571698391       -0.00064050322009
C            4.96702143812540       -1.12106088815514       -0.00042577370435
C            7.08380416897973        0.11596222490829       -0.00107143694127
C           -7.01362267526724       -7.40130610535704       -0.00178484377582
C           -4.88928927448950       -6.22183223668995       -0.00107413484476
C           -7.01856899106185       -4.99048974234683       -0.00050673363718
C           -2.75029635699720       -4.96408864278742       -0.00033827886844
C           -4.89646852295770       -3.76118517777033       -0.00013131536847
C           -7.04485848207089       -2.55385658392616        0.00033723551183
C           -0.63836106838461       -3.69579569369280        0.00015680967790
C           -2.78718217889861       -2.51085726924639        0.00010835024960
C           -4.92960700962641       -1.31630556903603        0.00033454814010
C           -7.08380774635958       -0.11595892194242        0.00060177921280
C           -7.70759987755822       -6.21991434296373       -0.00109627863807
C           -5.59286741614177       -4.99233689894416       -0.00054536668138
C           -7.71089237468763       -3.77633576626188        0.00004110319931
C           -3.47412431742150       -3.74130186575747       -0.00014365075978
C           -5.61499269021514       -2.54781372616881        0.00019903505783
C           -7.74324085380545       -1.33218138975420        0.00063300137304
C            1.45334169066723       -2.42731726789310        0.00013460662666
C           -7.10978649672510        2.30697093373313        0.00031822526877
C            1.31596622002084        7.35111209824399        0.00245309367543
C           -0.68580028418008       -1.24302692394442        0.00016881391584
C            7.71088449483574        3.77633059534906       -0.00115538676694
C           -2.82545008674766       -0.05931749484905        0.00028494213127
C            5.59286541825716        4.99233117089519       -0.00007033757118
C           -4.96702173297377        1.12106375092116        0.00035894669022
C            3.44217855066774        6.19829191678141        0.00120968451123
C            3.55029618414546       -1.15516764593062       -0.00016670035986
C           -5.00506851549805        3.55758395622934        0.00000099732066
C            1.40964680597479        0.02810191618097        0.00004032950199
C           -7.17531864066965        4.66568748880555       -0.00037198120390
C           -0.72899054555071        1.21202895530709        0.00021007946746
C            7.70759923527057        6.21990215068606       -0.00071457182426
C           -2.87125906202889        2.39185855499923        0.00022821391363
C            5.62240207467686        7.40565042254682        0.00040839326893
C            5.65552003091663        0.10572627410740       -0.00068442364076
C           -2.93870897727093        4.85684903615534       -0.00009238908510
C            3.50993650297352        1.29302472185356       -0.00022951690089
C           -5.13632272276241        6.01692434462739       -0.00077728743462
C            1.36543515475117        2.48442273346157        0.00013252042397
C           -7.32154769494097        7.05138248182218       -0.00140646288700
C           -0.77911090612718        3.66750816981500        0.00032506684986
C            7.74323476808318        1.33218449702958       -0.00133873826885
C           -0.84189080164706        6.12392379044318        0.00042393194838
C            5.61498812034049        2.54781294945600       -0.00058594365309
C           -2.98220610416590        7.26269842708834       -0.00080165365437
C            3.47412263016132        3.74130203704413        0.00012427833143
C            1.32851236483788        4.93957160937170        0.00066622709820
C           -1.36543615689042       -2.48442184662060        0.00010888973188
C            7.04485165571157        2.55385502205967       -0.00104804816875
C           -1.61139877207435        7.29430503437235       -0.00029367896592
C           -3.50993869864901       -1.29302383297753        0.00022288967807
C            4.89646463763589        3.76118309845537       -0.00015885272699
C           -5.65552128600258       -0.10572268056413        0.00044301238762
C            2.75029630341422        4.96408887689631        0.00063459052083
C           -7.78403421354294        1.12176919662102        0.00058882289281
C            0.59913533490334        6.15076772729016        0.00113565406372
C            0.72898980898210       -1.21202780914376        0.00005818875618
C           -1.40964765492726       -0.02810059449626        0.00016334752970
C            7.01856502005704        4.99048232720187       -0.00065715709964
C           -3.55029647913749        1.15516956981371        0.00027131759481
C            4.88929000740297        6.22182600299293        0.00057438424542
C           -5.68581162795909        2.33352200088375        0.00023385174770
C            2.68724931065198        7.37329098791490        0.00250538990133
C            2.82544860022857        0.05931870559916       -0.00017514823450
C           -5.77188455024123        4.76033638628426       -0.00035633539575
C            0.68579941667313        1.24302799640927        0.00006834968522
C           -7.94866053520841        5.81290548431570       -0.00088762403810
C           -1.45334179038049        2.42731900386042        0.00021851279903
C            7.01362675686266        7.40129541831591       -0.00022655408250
C           -3.60216911597478        3.60028678872005        0.00003279086473
C            4.92960373040505        1.31630651544683       -0.00053363874075
C           -3.68906735908352        6.05584091181607       -0.00055264427290
C            2.78718035355517        2.51085772904185       -0.00004060054874
C           -5.94779793087207        7.15864048308613       -0.00133868883530
C            0.63836079449400        3.69579684629984        0.00030031102491
C           -1.51905952710070        4.88560594896105        0.00023229676368
H           -3.17651677409517       -8.33356707257894       -0.00161458784947
H            1.13156750748912       -8.25921380001461        0.00212119881246
H            5.50837616019899       -8.14241953489779        0.00185435677483
H           -5.12352827049025       -8.36095353871206       -0.00231348456763
H           -0.79721237755255       -8.29562012872547       -0.00086482645362
H            3.51420222561500       -8.20024225975761        0.00249658801580
H            9.02317251205147       -5.72581591724790        0.00025580371474
H            8.86261165220413       -1.11949102261008       -0.00137507587481
H            7.92626199478934       -7.94588842350804        0.00141198901157
H           -7.54361259721299       -8.34284685943598       -0.00232665193307
H           -8.78770549418658       -6.21162854833733       -0.00105372705780
H           -8.79164234849606       -3.78922512867122        0.00013199108250
H           -8.82350688365179       -1.35314987608131        0.00077541394330
H            0.79721533405584        8.29561856958307        0.00355488358331
H            8.79163522959823        3.78921933020011       -0.00158457081090
H            8.78770527732940        6.21161419892535       -0.00117586853927
H            5.12353567087210        8.36094382565431        0.00069952142070
H           -7.92626204628565        7.94588894617869       -0.00186481168168
H            8.82350138157152        1.35315411546652       -0.00169610420556
H           -3.51419953283335        8.20024537390184       -0.00138189268405
H           -1.13156457589144        8.25921628455824       -0.00059069430584
H           -8.86261292731651        1.11949670299926        0.00069407706034
H            3.17651993535491        8.33356555190057        0.00360730441094
H           -9.02317210001366        5.72581654778318       -0.00090488687663
H            7.54361723629727        8.34283687732689       -0.00033565032346
H           -5.50837635867454        8.14242169500307       -0.00174483508641
O            7.82440910287690       -3.46995643352559       -0.00049677320349
O           -7.82440664538559        3.46995845263272        0.00010095771384
 
 Bond Distances (Angstroems)
 ---------------------------
C1-C8=1.3715         C1-C9=1.3966         C1-H103=1.0777       C2-C10=1.3712        C2-C11=1.4007        C2-H104=1.0776       
C3-C8=1.3981         C3-C11=1.4413        C3-C12=1.4139        C4-C18=1.3779        C4-C19=1.4007        C4-H105=1.0775       
C5-C10=1.3986        C5-C19=1.4478        C5-C20=1.4144        C6-C11=1.4114        C6-C20=1.4199        C6-C21=1.4252        
C7-C28=1.3912        C7-C29=1.3924        C7-H106=1.0777       C8-C1=1.3715         C8-C3=1.3981         C8-H107=1.0776       
C9-C1=1.3966         C9-C29=1.4473        C9-C31=1.4149        C10-C2=1.3712        C10-C5=1.3986        C10-H108=1.0780      
C11-C2=1.4007        C11-C3=1.4413        C11-C6=1.4114        C12-C3=1.4139        C12-C31=1.4220       C12-C34=1.4224       
C13-C18=1.3882       C13-C22=1.3835       C13-H109=1.0780      C14-C19=1.4082       C14-C22=1.4066       C14-C23=1.4264       
C15-C20=1.4210       C15-C23=1.4035       C15-C24=1.4123       C16-C23=1.4006       C16-C25=1.4242       C16-C26=1.4095       
C17-C25=1.3636       C17-C27=1.4221       C17-H110=1.0786      C18-C4=1.3779        C18-C13=1.3882       C18-H111=1.0797      
C19-C4=1.4007        C19-C5=1.4478        C19-C14=1.4082       C20-C5=1.4144        C20-C6=1.4199        C20-C15=1.4210       
C21-C6=1.4252        C21-C34=1.4178       C21-C44=1.4116       C22-C13=1.3835       C22-C14=1.4066       C22-O129=1.3605      
C23-C14=1.4264       C23-C15=1.4035       C23-C16=1.4006       C24-C15=1.4123       C24-C44=1.4184       C24-C53=1.4108       
C25-C16=1.4242       C25-C17=1.3636       C25-O129=1.3650      C26-C16=1.4095       C26-C53=1.4171       C26-C61=1.4068       
C27-C17=1.4221       C27-C61=1.4283       C27-C68=1.3835       C28-C7=1.3912        C28-C38=1.3701       C28-H112=1.0805      
C29-C7=1.3924        C29-C9=1.4473        C29-C39=1.4166       C30-C38=1.4093       C30-C39=1.4257       C30-C40=1.3977       
C31-C9=1.4149        C31-C12=1.4220       C31-C41=1.4210       C32-C39=1.4145       C32-C41=1.4225       C32-C42=1.4102       
C33-C40=1.3921       C33-C42=1.4299       C33-C43=1.4072       C34-C12=1.4224       C34-C21=1.4178       C34-C74=1.4128       
C35-C41=1.4092       C35-C74=1.4220       C35-C77=1.4162       C36-C42=1.4094       C36-C77=1.4199       C36-C79=1.4115       
C37-C43=1.3835       C37-C79=1.4283       C37-C81=1.4221       C38-C28=1.3701       C38-C30=1.4093       C38-H113=1.0801      
C39-C29=1.4166       C39-C30=1.4257       C39-C32=1.4145       C40-C30=1.3977       C40-C33=1.3921       C40-H114=1.0808      
C41-C31=1.4210       C41-C32=1.4225       C41-C35=1.4092       C42-C32=1.4102       C42-C33=1.4299       C42-C36=1.4094       
C43-C33=1.4072       C43-C37=1.3835       C43-H115=1.0805      C44-C21=1.4116       C44-C24=1.4184       C44-C83=1.4148       
C45-C81=1.3636       C45-C88=1.4242       C45-O130=1.3650      C46-C82=1.3981       C46-C89=1.3715       C46-H116=1.0776      
C47-C74=1.4153       C47-C83=1.4151       C47-C84=1.4142       C48-C75=1.3921       C48-C85=1.3977       C48-H117=1.0808      
C49-C77=1.4109       C49-C84=1.4161       C49-C86=1.4143       C50-C78=1.4145       C50-C85=1.4257       C50-C87=1.4166       
C51-C79=1.4068       C51-C86=1.4171       C51-C88=1.4095       C52-C80=1.4149       C52-C87=1.4473       C52-C89=1.3966       
C53-C24=1.4108       C53-C26=1.4171       C53-C90=1.4143       C54-C88=1.4006       C54-C91=1.4264       C54-C96=1.4035       
C55-C83=1.4146       C55-C90=1.4161       C55-C92=1.4142       C56-C91=1.4066       C56-C93=1.3835       C56-O130=1.3605      
C57-C84=1.4146       C57-C92=1.4151       C57-C94=1.4148       C58-C85=1.4093       C58-C95=1.3701       C58-H118=1.0801      
C59-C86=1.4108       C59-C94=1.4184       C59-C96=1.4123       C60-C87=1.3924       C60-C95=1.3912       C60-H119=1.0777      
C61-C26=1.4068       C61-C27=1.4283       C61-C97=1.4115       C62-C96=1.4210       C62-C98=1.4144       C62-C102=1.4199      
C63-C90=1.4109       C63-C97=1.4199       C63-C99=1.4162       C64-C91=1.4082       C64-C98=1.4478       C64-C100=1.4007      
C65-C92=1.4153       C65-C99=1.4220       C65-C101=1.4128      C66-C93=1.3882       C66-C100=1.3779      C66-H120=1.0797      
C67-C94=1.4116       C67-C101=1.4178      C67-C102=1.4252      C68-C27=1.3835       C68-C75=1.4072       C68-H121=1.0805      
C69-C76=1.4007       C69-C82=1.4413       C69-C102=1.4114      C70-C75=1.4299       C70-C78=1.4102       C70-C97=1.4094       
C71-C76=1.3712       C71-C98=1.3986       C71-H122=1.0780      C72-C78=1.4225       C72-C80=1.4210       C72-C99=1.4092       
C73-C80=1.4220       C73-C82=1.4139       C73-C101=1.4224      C74-C34=1.4128       C74-C35=1.4220       C74-C47=1.4153       
C75-C48=1.3921       C75-C68=1.4072       C75-C70=1.4299       C76-C69=1.4007       C76-C71=1.3712       C76-H123=1.0776      
C77-C35=1.4162       C77-C36=1.4199       C77-C49=1.4109       C78-C50=1.4145       C78-C70=1.4102       C78-C72=1.4225       
C79-C36=1.4115       C79-C37=1.4283       C79-C51=1.4068       C80-C52=1.4149       C80-C72=1.4210       C80-C73=1.4220       
C81-C37=1.4221       C81-C45=1.3636       C81-H124=1.0786      C82-C46=1.3981       C82-C69=1.4413       C82-C73=1.4139       
C83-C44=1.4148       C83-C47=1.4151       C83-C55=1.4146       C84-C47=1.4142       C84-C49=1.4161       C84-C57=1.4146       
C85-C48=1.3977       C85-C50=1.4257       C85-C58=1.4093       C86-C49=1.4143       C86-C51=1.4171       C86-C59=1.4108       
C87-C50=1.4166       C87-C52=1.4473       C87-C60=1.3924       C88-C45=1.4242       C88-C51=1.4095       C88-C54=1.4006       
C89-C46=1.3715       C89-C52=1.3966       C89-H125=1.0777      C90-C53=1.4143       C90-C55=1.4161       C90-C63=1.4109       
C91-C54=1.4264       C91-C56=1.4066       C91-C64=1.4082       C92-C55=1.4142       C92-C57=1.4151       C92-C65=1.4153       
C93-C56=1.3835       C93-C66=1.3882       C93-H126=1.0780      C94-C57=1.4148       C94-C59=1.4184       C94-C67=1.4116       
C95-C58=1.3701       C95-C60=1.3912       C95-H127=1.0805      C96-C54=1.4035       C96-C59=1.4123       C96-C62=1.4210       
C97-C61=1.4115       C97-C63=1.4199       C97-C70=1.4094       C98-C62=1.4144       C98-C64=1.4478       C98-C71=1.3986       
C99-C63=1.4162       C99-C65=1.4220       C99-C72=1.4092       C100-C64=1.4007      C100-C66=1.3779      C100-H128=1.0775     
C101-C65=1.4128      C101-C67=1.4178      C101-C73=1.4224      C102-C62=1.4199      C102-C67=1.4252      C102-C69=1.4114      
H103-C1=1.0777       H104-C2=1.0776       H105-C4=1.0775       H106-C7=1.0777       H107-C8=1.0776       H108-C10=1.0780      
H109-C13=1.0780      H110-C17=1.0786      H111-C18=1.0797      H112-C28=1.0805      H113-C38=1.0801      H114-C40=1.0808      
H115-C43=1.0805      H116-C46=1.0776      H117-C48=1.0808      H118-C58=1.0801      H119-C60=1.0777      H120-C66=1.0797      
H121-C68=1.0805      H122-C71=1.0780      H123-C76=1.0776      H124-C81=1.0786      H125-C89=1.0777      H126-C93=1.0780      
H127-C95=1.0805      H128-C100=1.0775     O129-C22=1.3605      O129-C25=1.3650      O130-C45=1.3650      O130-C56=1.3605      
 C  H  Rav=1.0788 sigma=0.0013  Rmin=1.0775  Rmax=1.0808    26
 C  C  Rav=1.4098 sigma=0.0165  Rmin=1.3636  Rmax=1.4478   138
 O  C  Rav=1.3628 sigma=0.0022  Rmin=1.3605  Rmax=1.3650     4
 
 selected bond angles (degree)
 --------------------
C9-C1-C8=121.79                H103-C1-C8=117.93              H103-C1-C9=120.28              C11-C2-C10=122.00              
H104-C2-C10=117.76             H104-C2-C11=120.24             C11-C3-C8=121.91               C12-C3-C8=118.10               
C12-C3-C11=119.99              C19-C4-C18=120.94              H105-C4-C18=118.53             H105-C4-C19=120.53             
C19-C5-C10=121.90              C20-C5-C10=117.60              C20-C5-C19=120.50              C20-C6-C11=119.83              
C21-C6-C11=120.05              C21-C6-C20=120.12              C29-C7-C28=121.59              H106-C7-C28=117.75             
H106-C7-C29=120.66             C3-C8-C1=121.77                H107-C8-C1=117.85              H107-C8-C3=120.38              
C29-C9-C1=121.79               C31-C9-C1=118.00               C31-C9-C29=120.21              C5-C10-C2=121.68               
H108-C10-C2=118.25             H108-C10-C5=120.07             
 
 selected dihedral angles (degree)
 ---------------------------------
C3-C8-C1-C9=  0.00            C3-C8-C1-H103=180.00          H107-C8-C1-C9=180.00          H107-C8-C1-H103=  0.00        
C1-C8-C3-C11=179.99           C1-C8-C3-C12=  0.00           H107-C8-C3-C11=  0.00         H107-C8-C3-C12=179.98         
C29-C9-C1-C8=180.01           C29-C9-C1-H103=  0.00         C31-C9-C1-C8=  0.00           C31-C9-C1-H103=180.01         
C5-C10-C2-C11=  0.00          C5-C10-C2-H104=180.00         H108-C10-C2-C11=180.00        H108-C10-C2-H104=  0.00       
C2-C10-C5-C19=180.02          C2-C10-C5-C20=  0.00          H108-C10-C5-C19=  0.00        H108-C10-C5-C20=180.02        
           -------------------------------------------------
          |                Final Singlepoint                |
           -------------------------------------------------

          ...................................................
          :                      SETUP                      :
          :.................................................:
          :  # basis functions                 442          :
          :  # atomic orbitals                 442          :
          :  # shells                          234          :
          :  # electrons                       446          :
          :  max. iterations                   250          :
          :  Hamiltonian                  GFN2-xTB          :
          :  restarted?                      false          :
          :  GBSA solvation                  false          :
          :  PC potential                    false          :
          :  electronic temp.          300.0000000     K    :
          :  accuracy                    1.0000000          :
          :  -> integral cutoff          0.2500000E+02      :
          :  -> integral neglect         0.1000000E-07      :
          :  -> SCF convergence          0.1000000E-05 Eh   :
          :  -> wf. convergence          0.1000000E-03 e    :
          :  Broyden damping             0.4000000          :
          :  net charge                          0          :
          :  unpaired electrons                  0          :
          ...................................................

 iter      E             dE          RMSdq      gap      omega  full diag
   1   -245.2505121 -0.245251E+03  0.186E-05    0.32       0.0  T
   2   -245.2505121 -0.287059E-11  0.134E-05    0.32     656.9  T
   3   -245.2505121 -0.106013E-10  0.929E-06    0.32     944.0  T

   *** convergence criteria satisfied after 3 iterations ***

         #    Occupation            Energy/Eh            Energy/eV
      -------------------------------------------------------------
         1        2.0000           -0.7341168             -19.9763
       ...           ...                  ...                  ...
       217        2.0000           -0.3827457             -10.4150
       218        2.0000           -0.3782786             -10.2935
       219        2.0000           -0.3780439             -10.2871
       220        2.0000           -0.3608341              -9.8188
       221        2.0000           -0.3606994              -9.8151
       222        2.0000           -0.3501055              -9.5269
       223        1.9961           -0.3307130              -8.9992 (HOMO)
       224        0.0039           -0.3188480              -8.6763 (LUMO)
       225                         -0.2918421              -7.9414
       226                         -0.2852552              -7.7622
       227                         -0.2703278              -7.3560
       228                         -0.2650585              -7.2126
       ...                                ...                  ...
       442                          0.7834755              21.3195
      -------------------------------------------------------------
                  HL-Gap            0.0118650 Eh            0.3229 eV
             Fermi-level           -0.3247805 Eh           -8.8377 eV

 SCC (total)                   0 d,  0 h,  0 min,  0.410 sec
 SCC setup                      ...        0 min,  0.003 sec (  0.732%)
 Dispersion                     ...        0 min,  0.004 sec (  0.976%)
 classical contributions        ...        0 min,  0.000 sec (  0.000%)
 integral evaluation            ...        0 min,  0.043 sec ( 10.488%)
 iterations                     ...        0 min,  0.179 sec ( 43.659%)
 molecular gradient             ...        0 min,  0.176 sec ( 42.927%)
 printout                       ...        0 min,  0.005 sec (  1.220%)

         :::::::::::::::::::::::::::::::::::::::::::::::::::::
         ::                     SUMMARY                     ::
         :::::::::::::::::::::::::::::::::::::::::::::::::::::
         :: total energy            -240.631834154475 Eh    ::
         :: gradient norm              0.000383734638 Eh/a0 ::
         :: HOMO-LUMO gap              0.322863501893 eV    ::
         ::.................................................::
         :: SCC energy              -245.258445802255 Eh    ::
         :: -> isotropic ES            0.025465553369 Eh    ::
         :: -> anisotropic ES          0.011961106303 Eh    ::
         :: -> anisotropic XC          0.080789097530 Eh    ::
         :: -> dispersion             -0.286185167795 Eh    ::
         :: repulsion energy           4.626611647779 Eh    ::
         :: add. restraining           0.000000000000 Eh    ::
         :: total charge               0.000000000005 e     ::
         :::::::::::::::::::::::::::::::::::::::::::::::::::::

           -------------------------------------------------
          |                Property Printout                |
           -------------------------------------------------

    * Orbital Energies and Occupations

         #    Occupation            Energy/Eh            Energy/eV
      -------------------------------------------------------------
         1        2.0000           -0.7341168             -19.9763
       ...           ...                  ...                  ...
       211        2.0000           -0.3981804             -10.8350
       212        2.0000           -0.3976539             -10.8207
       213        2.0000           -0.3895501             -10.6002
       214        2.0000           -0.3873198             -10.5395
       215        2.0000           -0.3866985             -10.5226
       216        2.0000           -0.3865352             -10.5182
       217        2.0000           -0.3827457             -10.4150
       218        2.0000           -0.3782786             -10.2935
       219        2.0000           -0.3780439             -10.2871
       220        2.0000           -0.3608341              -9.8188
       221        2.0000           -0.3606994              -9.8151
       222        2.0000           -0.3501055              -9.5269
       223        1.9961           -0.3307130              -8.9992 (HOMO)
       224        0.0039           -0.3188480              -8.6763 (LUMO)
       225                         -0.2918421              -7.9414
       226                         -0.2852552              -7.7622
       227                         -0.2703278              -7.3560
       228                         -0.2650585              -7.2126
       229                         -0.2625553              -7.1445
       230                         -0.2583991              -7.0314
       231                         -0.2543240              -6.9205
       232                         -0.2478031              -6.7431
       233                         -0.2422217              -6.5912
       234                         -0.2379417              -6.4747
       ...                                ...                  ...
       442                          0.7834755              21.3195
      -------------------------------------------------------------
                  HL-Gap            0.0118650 Eh            0.3229 eV
             Fermi-level           -0.3247805 Eh           -8.8377 eV

     #   Z          covCN         q      C6AA      α(0)
     1   6 C        2.919    -0.037    28.913     8.818
     2   6 C        2.919    -0.037    28.924     8.819
     3   6 C        2.979     0.004    27.922     8.668
     4   6 C        2.919    -0.046    29.130     8.851
     5   6 C        2.978     0.004    27.925     8.668
     6   6 C        2.990     0.002    27.984     8.678
     7   6 C        2.922    -0.036    28.897     8.815
     8   6 C        2.919    -0.037    28.915     8.818
     9   6 C        2.978     0.005    27.911     8.666
    10   6 C        2.918    -0.036    28.896     8.815
    11   6 C        2.978     0.005    27.898     8.664
    12   6 C        2.989     0.001    27.989     8.678
    13   6 C        2.915    -0.059    29.464     8.901
    14   6 C        2.995    -0.017    28.412     8.744
    15   6 C        2.990    -0.004    28.112     8.697
    16   6 C        2.993    -0.015    28.365     8.736
    17   6 C        2.915    -0.075    29.871     8.962
    18   6 C        2.918    -0.030    28.741     8.791
    19   6 C        2.978     0.006    27.892     8.663
    20   6 C        2.991     0.002    27.968     8.675
    21   6 C        2.985     0.000    28.019     8.683
    22   6 C        2.879     0.140    24.938     8.187
    23   6 C        2.996     0.006    27.868     8.660
    24   6 C        2.991     0.001    28.006     8.681
    25   6 C        2.870     0.136    25.031     8.201
    26   6 C        2.994    -0.001    28.050     8.688
    27   6 C        2.977     0.013    27.723     8.637
    28   6 C        2.912    -0.030    28.747     8.792
    29   6 C        2.975     0.006    27.877     8.661
    30   6 C        2.980     0.012    27.732     8.638
    31   6 C        2.989     0.002    27.984     8.678
    32   6 C        2.986     0.001    27.996     8.679
    33   6 C        2.975     0.012    27.741     8.640
    34   6 C        2.986    -0.000    28.032     8.685
    35   6 C        2.988    -0.000    28.031     8.685
    36   6 C        2.990     0.002    27.973     8.676
    37   6 C        2.977     0.013    27.723     8.637
    38   6 C        2.921    -0.036    28.903     8.816
    39   6 C        2.994     0.001    27.993     8.679
    40   6 C        2.925    -0.045    29.108     8.848
    41   6 C        2.986     0.000    28.019     8.683
    42   6 C        2.994    -0.001    28.042     8.686
    43   6 C        2.924    -0.048    29.203     8.862
    44   6 C        2.989    -0.001    28.034     8.685
    45   6 C        2.870     0.136    25.031     8.201
    46   6 C        2.919    -0.037    28.915     8.818
    47   6 C        2.989    -0.000    28.026     8.684
    48   6 C        2.925    -0.045    29.108     8.848
    49   6 C        2.990    -0.000    28.024     8.684
    50   6 C        2.995     0.001    27.993     8.679
    51   6 C        2.994    -0.001    28.050     8.688
    52   6 C        2.978     0.005    27.911     8.666
    53   6 C        2.992    -0.001    28.036     8.686
    54   6 C        2.996     0.006    27.868     8.660
    55   6 C        2.989    -0.001    28.035     8.685
    56   6 C        2.879     0.140    24.938     8.187
    57   6 C        2.989    -0.000    28.032     8.685
    58   6 C        2.921    -0.036    28.903     8.816
    59   6 C        2.991     0.001    28.006     8.681
    60   6 C        2.922    -0.036    28.897     8.815
    61   6 C        2.995    -0.003    28.092     8.694
    62   6 C        2.991     0.002    27.968     8.675
    63   6 C        2.989    -0.001    28.032     8.685
    64   6 C        2.978     0.006    27.892     8.663
    65   6 C        2.987    -0.000    28.025     8.684
    66   6 C        2.918    -0.030    28.741     8.791
    67   6 C        2.985     0.000    28.019     8.683
    68   6 C        2.924    -0.048    29.203     8.862
    69   6 C        2.978     0.005    27.898     8.664
    70   6 C        2.994    -0.001    28.042     8.686
    71   6 C        2.918    -0.036    28.896     8.815
    72   6 C        2.986     0.000    28.019     8.683
    73   6 C        2.989     0.001    27.989     8.678
    74   6 C        2.987    -0.000    28.025     8.684
    75   6 C        2.975     0.012    27.741     8.640
    76   6 C        2.919    -0.037    28.924     8.819
    77   6 C        2.989    -0.001    28.032     8.685
    78   6 C        2.986     0.001    27.996     8.679
    79   6 C        2.995    -0.003    28.092     8.694
    80   6 C        2.989     0.002    27.984     8.678
    81   6 C        2.915    -0.075    29.871     8.962
    82   6 C        2.979     0.004    27.922     8.668
    83   6 C        2.989    -0.000    28.032     8.685
    84   6 C        2.989    -0.001    28.035     8.685
    85   6 C        2.980     0.012    27.732     8.638
    86   6 C        2.992    -0.001    28.036     8.686
    87   6 C        2.975     0.006    27.877     8.661
    88   6 C        2.993    -0.015    28.365     8.736
    89   6 C        2.919    -0.037    28.913     8.818
    90   6 C        2.990    -0.000    28.024     8.684
    91   6 C        2.995    -0.017    28.412     8.744
    92   6 C        2.989    -0.000    28.026     8.684
    93   6 C        2.915    -0.059    29.464     8.901
    94   6 C        2.989    -0.001    28.034     8.685
    95   6 C        2.912    -0.030    28.747     8.792
    96   6 C        2.990    -0.004    28.112     8.697
    97   6 C        2.990     0.002    27.973     8.676
    98   6 C        2.978     0.004    27.925     8.668
    99   6 C        2.988    -0.000    28.031     8.685
   100   6 C        2.919    -0.046    29.130     8.851
   101   6 C        2.986    -0.000    28.032     8.685
   102   6 C        2.990     0.002    27.984     8.678
   103   1 H        0.926     0.033     2.540     2.492
   104   1 H        0.926     0.034     2.530     2.487
   105   1 H        0.926     0.038     2.477     2.461
   106   1 H        0.926     0.032     2.552     2.498
   107   1 H        0.926     0.033     2.539     2.492
   108   1 H        0.926     0.034     2.530     2.487
   109   1 H        0.926     0.049     2.338     2.391
   110   1 H        0.926     0.045     2.383     2.414
   111   1 H        0.926     0.039     2.457     2.451
   112   1 H        0.926     0.030     2.589     2.516
   113   1 H        0.926     0.032     2.563     2.503
   114   1 H        0.926     0.032     2.552     2.498
   115   1 H        0.926     0.033     2.544     2.494
   116   1 H        0.926     0.033     2.539     2.492
   117   1 H        0.926     0.032     2.552     2.498
   118   1 H        0.926     0.032     2.563     2.503
   119   1 H        0.926     0.032     2.552     2.498
   120   1 H        0.926     0.039     2.457     2.451
   121   1 H        0.926     0.033     2.544     2.494
   122   1 H        0.926     0.034     2.530     2.487
   123   1 H        0.926     0.034     2.530     2.487
   124   1 H        0.926     0.045     2.383     2.414
   125   1 H        0.926     0.033     2.540     2.492
   126   1 H        0.926     0.049     2.338     2.391
   127   1 H        0.926     0.030     2.589     2.516
   128   1 H        0.926     0.038     2.477     2.461
   129   8 O        1.710    -0.231    17.823     5.700
   130   8 O        1.710    -0.231    17.823     5.700

 Mol. C6AA /au·bohr⁶  :     348718.894673
 Mol. C8AA /au·bohr⁸  :    9549596.901133
 Mol. α(0) /au        :        963.260234


Wiberg/Mayer (AO) data.
largest (>0.10) Wiberg bond orders for each atom

 ---------------------------------------------------------------------------
     #   Z sym  total        # sym  WBO       # sym  WBO       # sym  WBO
 ---------------------------------------------------------------------------
     1   6 C    3.972 --     8 C    1.487     9 C    1.346   103 H    0.961
     2   6 C    3.961 --    10 C    1.498    11 C    1.330   104 H    0.961
     3   6 C    3.966 --     8 C    1.337    12 C    1.277    11 C    1.151
     4   6 C    3.969 --    18 C    1.476    19 C    1.344   105 H    0.963
     5   6 C    3.961 --    10 C    1.335    20 C    1.286    19 C    1.141
     6   6 C    3.977 --    11 C    1.284    20 C    1.253    21 C    1.217
     7   6 C    3.902 --    29 C    1.393    28 C    1.382   106 H    0.962
     8   6 C    3.954 --     1 C    1.487     3 C    1.337   107 H    0.960
     9   6 C    3.950 --     1 C    1.346    31 C    1.278    29 C    1.135
    10   6 C    3.962 --     2 C    1.498     5 C    1.335   108 H    0.962
    11   6 C    3.961 --     2 C    1.330     6 C    1.284     3 C    1.151
    12   6 C    3.975 --     3 C    1.277    31 C    1.249    34 C    1.226
    13   6 C    3.966 --    18 C    1.401    22 C    1.398   109 H    0.968
    14   6 C    3.978 --    19 C    1.293    22 C    1.278    23 C    1.171
    15   6 C    3.963 --    23 C    1.275    24 C    1.252    20 C    1.214
    16   6 C    3.944 --    23 C    1.290    26 C    1.252    25 C    1.182
    17   6 C    3.934 --    25 C    1.522    27 C    1.217   110 H    0.966
    18   6 C    3.975 --     4 C    1.476    13 C    1.401   111 H    0.970
    19   6 C    3.973 --     4 C    1.344    14 C    1.293     5 C    1.141
    20   6 C    3.979 --     5 C    1.286     6 C    1.253    15 C    1.214
    21   6 C    3.952 --    44 C    1.273    34 C    1.248     6 C    1.217
    22   6 C    3.921 --    13 C    1.398    14 C    1.278   129 O    1.056
    23   6 C    3.949 --    16 C    1.290    15 C    1.275    14 C    1.171
    24   6 C    3.968 --    53 C    1.269    15 C    1.252    44 C    1.223
    25   6 C    3.910 --    17 C    1.522    16 C    1.182   129 O    1.041
    26   6 C    3.971 --    61 C    1.272    16 C    1.252    53 C    1.231
    27   6 C    3.977 --    68 C    1.412    17 C    1.217    61 C    1.193
    28   6 C    3.983 --    38 C    1.507     7 C    1.382   112 H    0.970
    29   6 C    3.982 --     7 C    1.393    39 C    1.261     9 C    1.135
    30   6 C    3.985 --    40 C    1.329    38 C    1.274    39 C    1.218
    31   6 C    3.981 --     9 C    1.278    12 C    1.249    41 C    1.228
    32   6 C    3.980 --    42 C    1.278    39 C    1.256    41 C    1.221
    33   6 C    3.985 --    40 C    1.356    43 C    1.283    42 C    1.187
    34   6 C    3.960 --    74 C    1.268    21 C    1.248    12 C    1.226
    35   6 C    3.969 --    41 C    1.283    77 C    1.246    74 C    1.220
    36   6 C    3.978 --    42 C    1.269    79 C    1.263    77 C    1.225
    37   6 C    3.977 --    43 C    1.412    81 C    1.217    79 C    1.193
    38   6 C    3.907 --    28 C    1.507    30 C    1.274   113 H    0.969
    39   6 C    3.956 --    29 C    1.261    32 C    1.256    30 C    1.218
    40   6 C    3.827 --    33 C    1.356    30 C    1.329   114 H    0.966
    41   6 C    3.938 --    35 C    1.283    31 C    1.228    32 C    1.221
    42   6 C    3.959 --    32 C    1.278    36 C    1.269    33 C    1.187
    43   6 C    3.851 --    37 C    1.412    33 C    1.283   115 H    0.966
    44   6 C    3.960 --    21 C    1.273    83 C    1.249    24 C    1.223
    45   6 C    3.910 --    81 C    1.522    88 C    1.182   130 O    1.041
    46   6 C    3.954 --    89 C    1.487    82 C    1.337   116 H    0.960
    47   6 C    3.964 --    74 C    1.255    84 C    1.251    83 C    1.242
    48   6 C    3.827 --    75 C    1.356    85 C    1.329   117 H    0.966
    49   6 C    3.966 --    77 C    1.268    86 C    1.244    84 C    1.234
    50   6 C    3.956 --    87 C    1.261    78 C    1.256    85 C    1.218
    51   6 C    3.971 --    79 C    1.272    88 C    1.252    86 C    1.231
    52   6 C    3.950 --    89 C    1.346    80 C    1.278    87 C    1.135
    53   6 C    3.965 --    24 C    1.269    90 C    1.244    26 C    1.231
    54   6 C    3.949 --    88 C    1.290    96 C    1.275    91 C    1.171
    55   6 C    3.953 --    83 C    1.256    92 C    1.251    90 C    1.234
    56   6 C    3.921 --    93 C    1.398    91 C    1.278   130 O    1.056
    57   6 C    3.962 --    84 C    1.256    94 C    1.249    92 C    1.242
    58   6 C    3.907 --    95 C    1.507    85 C    1.274   118 H    0.969
    59   6 C    3.968 --    86 C    1.269    96 C    1.252    94 C    1.223
    60   6 C    3.902 --    87 C    1.393    95 C    1.382   119 H    0.962
    61   6 C    3.940 --    26 C    1.272    97 C    1.263    27 C    1.193
    62   6 C    3.979 --    98 C    1.286   102 C    1.253    96 C    1.214
    63   6 C    3.953 --    90 C    1.268    99 C    1.246    97 C    1.225
    64   6 C    3.973 --   100 C    1.344    91 C    1.293    98 C    1.141
    65   6 C    3.959 --   101 C    1.268    92 C    1.255    99 C    1.220
    66   6 C    3.975 --   100 C    1.476    93 C    1.401   120 H    0.970
    67   6 C    3.952 --    94 C    1.273   101 C    1.248   102 C    1.217
    68   6 C    3.851 --    27 C    1.412    75 C    1.283   121 H    0.966
    69   6 C    3.961 --    76 C    1.330   102 C    1.284    82 C    1.151
    70   6 C    3.959 --    78 C    1.278    97 C    1.269    75 C    1.187
    71   6 C    3.962 --    76 C    1.498    98 C    1.335   122 H    0.962
    72   6 C    3.938 --    99 C    1.283    80 C    1.228    78 C    1.221
    73   6 C    3.975 --    82 C    1.277    80 C    1.249   101 C    1.226
    74   6 C    3.959 --    34 C    1.268    47 C    1.255    35 C    1.220
    75   6 C    3.985 --    48 C    1.356    68 C    1.283    70 C    1.187
    76   6 C    3.961 --    71 C    1.498    69 C    1.330   123 H    0.961
    77   6 C    3.953 --    49 C    1.268    35 C    1.246    36 C    1.225
    78   6 C    3.980 --    70 C    1.278    50 C    1.256    72 C    1.221
    79   6 C    3.940 --    51 C    1.272    36 C    1.263    37 C    1.193
    80   6 C    3.981 --    52 C    1.278    73 C    1.249    72 C    1.228
    81   6 C    3.934 --    45 C    1.522    37 C    1.217   124 H    0.966
    82   6 C    3.966 --    46 C    1.337    73 C    1.277    69 C    1.151
    83   6 C    3.962 --    55 C    1.256    44 C    1.249    47 C    1.242
    84   6 C    3.953 --    57 C    1.256    47 C    1.251    49 C    1.234
    85   6 C    3.985 --    48 C    1.329    58 C    1.274    50 C    1.218
    86   6 C    3.965 --    59 C    1.269    49 C    1.244    51 C    1.231
    87   6 C    3.982 --    60 C    1.393    50 C    1.261    52 C    1.135
    88   6 C    3.944 --    54 C    1.290    51 C    1.252    45 C    1.182
    89   6 C    3.972 --    46 C    1.487    52 C    1.346   125 H    0.961
    90   6 C    3.966 --    63 C    1.268    53 C    1.244    55 C    1.234
    91   6 C    3.978 --    64 C    1.293    56 C    1.278    54 C    1.171
    92   6 C    3.964 --    65 C    1.255    55 C    1.251    57 C    1.242
    93   6 C    3.966 --    66 C    1.401    56 C    1.398   126 H    0.968
    94   6 C    3.960 --    67 C    1.273    57 C    1.249    59 C    1.223
    95   6 C    3.983 --    58 C    1.507    60 C    1.382   127 H    0.970
    96   6 C    3.963 --    54 C    1.275    59 C    1.252    62 C    1.214
    97   6 C    3.978 --    70 C    1.269    61 C    1.263    63 C    1.225
    98   6 C    3.961 --    71 C    1.335    62 C    1.286    64 C    1.141
    99   6 C    3.969 --    72 C    1.283    63 C    1.246    65 C    1.220
   100   6 C    3.969 --    66 C    1.476    64 C    1.344   128 H    0.963
   101   6 C    3.960 --    65 C    1.268    67 C    1.248    73 C    1.226
   102   6 C    3.977 --    69 C    1.284    62 C    1.253    67 C    1.217
   103   1 H    0.998 --     1 C    0.961
   104   1 H    0.998 --     2 C    0.961
   105   1 H    0.998 --     4 C    0.963
   106   1 H    0.998 --     7 C    0.962
   107   1 H    0.998 --     8 C    0.960
   108   1 H    0.998 --    10 C    0.962
   109   1 H    0.997 --    13 C    0.968
   110   1 H    0.997 --    17 C    0.966
   111   1 H    0.997 --    18 C    0.970
   112   1 H    0.998 --    28 C    0.970
   113   1 H    0.998 --    38 C    0.969
   114   1 H    0.998 --    40 C    0.966
   115   1 H    0.998 --    43 C    0.966
   116   1 H    0.998 --    46 C    0.960
   117   1 H    0.998 --    48 C    0.966
   118   1 H    0.998 --    58 C    0.969
   119   1 H    0.998 --    60 C    0.962
   120   1 H    0.997 --    66 C    0.970
   121   1 H    0.998 --    68 C    0.966
   122   1 H    0.998 --    71 C    0.962
   123   1 H    0.998 --    76 C    0.961
   124   1 H    0.997 --    81 C    0.966
   125   1 H    0.998 --    89 C    0.961
   126   1 H    0.997 --    93 C    0.968
   127   1 H    0.998 --    95 C    0.970
   128   1 H    0.998 --   100 C    0.963
   129   8 O    2.348 --    22 C    1.056    25 C    1.041
   130   8 O    2.348 --    56 C    1.056    45 C    1.041
 ---------------------------------------------------------------------------

Topologies differ in total number of bonds
Writing topology from bond orders to xtbtopo.mol

molecular dipole:
                 x           y           z       tot (Debye)
 q only:        0.000       0.000       0.000
   full:        0.000       0.000      -0.000       0.000
molecular quadrupole (traceless):
                xx          xy          yy          xz          yz          zz
 q only:      -11.539       1.666      31.187       0.007      -0.003     -19.648
  q+dip:       12.385       2.052      55.719       0.007       0.001     -68.104
   full:       -7.249       1.674      36.389       0.010      -0.000     -29.140

           -------------------------------------------------
          |                Geometry Summary                 |
           -------------------------------------------------

      molecular mass/u    :     1283.3003311
   center of mass at/Å    :       -0.0000001       0.0000002       0.0000016
  moments of inertia/u·Å² :        0.2732680E+05   0.3153404E+05   0.5886084E+05
rotational constants/cm⁻¹ :        0.6168900E-03   0.5345852E-03   0.2863981E-03

 * 162 selected distances

     #   Z          #   Z                                           value/Å
     1   6 C        8   6 C                                       1.3714628
     3   6 C        8   6 C                                       1.3980973
     1   6 C        9   6 C                                       1.3966185
     2   6 C       10   6 C                                       1.3711719
     5   6 C       10   6 C                                       1.3986276
     2   6 C       11   6 C                                       1.4006910
     6   6 C       11   6 C                                       1.4113784
     3   6 C       12   6 C                                       1.4138559
     4   6 C       18   6 C                                       1.3779303
    13   6 C       18   6 C                                       1.3881996
     4   6 C       19   6 C                                       1.4007179
    14   6 C       19   6 C                                       1.4081733
     5   6 C       20   6 C                                       1.4144323
     6   6 C       20   6 C                                       1.4199410
    15   6 C       20   6 C                                       1.4209607
     6   6 C       21   6 C                                       1.4252322
    13   6 C       22   6 C                                       1.3835343
    14   6 C       22   6 C                                       1.4066220
    14   6 C       23   6 C                                       1.4264024
    15   6 C       23   6 C                                       1.4035491
    16   6 C       23   6 C                                       1.4006215
    15   6 C       24   6 C                                       1.4122777
    16   6 C       25   6 C                                       1.4242217
    17   6 C       25   6 C                                       1.3635656
    16   6 C       26   6 C                                       1.4095073
    17   6 C       27   6 C                                       1.4220713
     7   6 C       28   6 C                                       1.3912333
     7   6 C       29   6 C                                       1.3924440
     9   6 C       31   6 C                                       1.4149063
    12   6 C       31   6 C                                       1.4219960
    12   6 C       34   6 C                                       1.4224227
    21   6 C       34   6 C                                       1.4177546
    28   6 C       38   6 C                                       1.3701429
    30   6 C       38   6 C                                       1.4093435
    29   6 C       39   6 C                                       1.4165739
    30   6 C       39   6 C                                       1.4257029
    32   6 C       39   6 C                                       1.4144633
    30   6 C       40   6 C                                       1.3976703
    33   6 C       40   6 C                                       1.3921411
    31   6 C       41   6 C                                       1.4209626
    32   6 C       41   6 C                                       1.4224833
    35   6 C       41   6 C                                       1.4092139
    32   6 C       42   6 C                                       1.4101588
    33   6 C       42   6 C                                       1.4298787 (max)
    36   6 C       42   6 C                                       1.4093851
    33   6 C       43   6 C                                       1.4072060
    37   6 C       43   6 C                                       1.3834918
    21   6 C       44   6 C                                       1.4116148
    24   6 C       44   6 C                                       1.4183610
    24   6 C       53   6 C                                       1.4108473
    26   6 C       53   6 C                                       1.4171359
    26   6 C       61   6 C                                       1.4067827
    27   6 C       61   6 C                                       1.4283210
    27   6 C       68   6 C                                       1.3834904
    34   6 C       74   6 C                                       1.4128217
    35   6 C       74   6 C                                       1.4219919
    47   6 C       74   6 C                                       1.4152620
    48   6 C       75   6 C                                       1.3921374
    68   6 C       75   6 C                                       1.4072023
    70   6 C       75   6 C                                       1.4298765
    69   6 C       76   6 C                                       1.4006911
    71   6 C       76   6 C                                       1.3711719
    35   6 C       77   6 C                                       1.4161552
    36   6 C       77   6 C                                       1.4198593
    49   6 C       77   6 C                                       1.4108708
    50   6 C       78   6 C                                       1.4144610
    70   6 C       78   6 C                                       1.4101573
    72   6 C       78   6 C                                       1.4224811
    36   6 C       79   6 C                                       1.4115463
    37   6 C       79   6 C                                       1.4283233
    51   6 C       79   6 C                                       1.4067825
    52   6 C       80   6 C                                       1.4149060
    72   6 C       80   6 C                                       1.4209619
    73   6 C       80   6 C                                       1.4219954
    37   6 C       81   6 C                                       1.4220719
    45   6 C       81   6 C                                       1.3635665
    46   6 C       82   6 C                                       1.3980970
    73   6 C       82   6 C                                       1.4138555
    44   6 C       83   6 C                                       1.4147843
    47   6 C       83   6 C                                       1.4151298
    55   6 C       83   6 C                                       1.4146434
    47   6 C       84   6 C                                       1.4142140
    49   6 C       84   6 C                                       1.4161467
    57   6 C       84   6 C                                       1.4146433
    48   6 C       85   6 C                                       1.3976664
    50   6 C       85   6 C                                       1.4257011
    58   6 C       85   6 C                                       1.4093408
    49   6 C       86   6 C                                       1.4143484
    51   6 C       86   6 C                                       1.4171359
    59   6 C       86   6 C                                       1.4108479
    50   6 C       87   6 C                                       1.4165722
    60   6 C       87   6 C                                       1.3924417
    45   6 C       88   6 C                                       1.4242225
    51   6 C       88   6 C                                       1.4095085
    54   6 C       88   6 C                                       1.4006210
    46   6 C       89   6 C                                       1.3714626
    52   6 C       89   6 C                                       1.3966184
    53   6 C       90   6 C                                       1.4143484
    55   6 C       90   6 C                                       1.4161460
    63   6 C       90   6 C                                       1.4108702
    54   6 C       91   6 C                                       1.4264013
    56   6 C       91   6 C                                       1.4066222
    64   6 C       91   6 C                                       1.4081735
    55   6 C       92   6 C                                       1.4142138
    57   6 C       92   6 C                                       1.4151297
    65   6 C       92   6 C                                       1.4152618
    56   6 C       93   6 C                                       1.3835344
    66   6 C       93   6 C                                       1.3881990
    57   6 C       94   6 C                                       1.4147844
    59   6 C       94   6 C                                       1.4183607
    67   6 C       94   6 C                                       1.4116150
    58   6 C       95   6 C                                       1.3701418
    60   6 C       95   6 C                                       1.3912318
    54   6 C       96   6 C                                       1.4035493
    59   6 C       96   6 C                                       1.4122778
    62   6 C       96   6 C                                       1.4209604
    61   6 C       97   6 C                                       1.4115450
    63   6 C       97   6 C                                       1.4198583
    70   6 C       97   6 C                                       1.4093829
    62   6 C       98   6 C                                       1.4144327
    71   6 C       98   6 C                                       1.3986273
    63   6 C       99   6 C                                       1.4161547
    65   6 C       99   6 C                                       1.4219911
    72   6 C       99   6 C                                       1.4092137
    64   6 C      100   6 C                                       1.4007171
    66   6 C      100   6 C                                       1.3779307
    65   6 C      101   6 C                                       1.4128216
    67   6 C      101   6 C                                       1.4177541
    73   6 C      101   6 C                                       1.4224224
    62   6 C      102   6 C                                       1.4199408
    67   6 C      102   6 C                                       1.4252321
    69   6 C      102   6 C                                       1.4113784
     1   6 C      103   1 H                                       1.0777357
     2   6 C      104   1 H                                       1.0776341
     4   6 C      105   1 H                                       1.0774588
     7   6 C      106   1 H                                       1.0777065
     8   6 C      107   1 H                                       1.0775879
    10   6 C      108   1 H                                       1.0779665
    13   6 C      109   1 H                                       1.0780351
    17   6 C      110   1 H                                       1.0785815
    18   6 C      111   1 H                                       1.0797323
    28   6 C      112   1 H                                       1.0804577
    38   6 C      113   1 H                                       1.0801375
    40   6 C      114   1 H                                       1.0808269
    43   6 C      115   1 H                                       1.0804696
    46   6 C      116   1 H                                       1.0775882
    48   6 C      117   1 H                                       1.0808278
    58   6 C      118   1 H                                       1.0801380
    60   6 C      119   1 H                                       1.0777075
    66   6 C      120   1 H                                       1.0797322
    68   6 C      121   1 H                                       1.0804703
    71   6 C      122   1 H                                       1.0779665
    76   6 C      123   1 H                                       1.0776339
    81   6 C      124   1 H                                       1.0785812
    89   6 C      125   1 H                                       1.0777358
    93   6 C      126   1 H                                       1.0780352
    95   6 C      127   1 H                                       1.0804584
   100   6 C      128   1 H                                       1.0774587 (min)
    22   6 C      129   8 O                                       1.3605458
    25   6 C      129   8 O                                       1.3650030
    45   6 C      130   8 O                                       1.3649990
    56   6 C      130   8 O                                       1.3605454

 * 3 distinct bonds (by element types)

   Z      Z             #   av. dist./Å        max./Å        min./Å
   1 H    6 C          26     1.0787948     1.0808278     1.0774587
   6 C    6 C         132     1.4081857     1.4298787     1.3635656
   6 C    8 O           4     1.3627733     1.3650030     1.3605454


optimized geometry written to: xtbopt.xyz


           -------------------------------------------------
          | TOTAL ENERGY             -240.631834154475 Eh   |
          | GRADIENT NORM               0.000383734638 Eh/α |
          | HOMO-LUMO GAP               0.322863501893 eV   |
           -------------------------------------------------

------------------------------------------------------------------------
 * finished run on 2025/12/08 at 00:31:47.518     
------------------------------------------------------------------------
 total:
 * wall-time:     0 d,  0 h,  0 min,  5.643 sec
 *  cpu-time:     0 d,  0 h,  0 min, 21.953 sec
 * ratio c/w:     3.890 speedup
 SCF:
 * wall-time:     0 d,  0 h,  0 min,  1.017 sec
 *  cpu-time:     0 d,  0 h,  0 min,  3.953 sec
 * ratio c/w:     3.887 speedup
 ANC optimizer:
 * wall-time:     0 d,  0 h,  0 min,  4.502 sec
 *  cpu-time:     0 d,  0 h,  0 min, 17.594 sec
 * ratio c/w:     3.908 speedup

normal termination of xtb
