130
 energy: -240.616770989920 gnorm: 0.048572153343 xtb: 6.7.1pre (5071a88)
C           -2.70558400000000       -7.42126400000000       -0.00123500000000
C            1.62529500000000       -7.34193300000000        0.00169400000000
C           -0.60331500000000       -6.19175400000000       -0.00005300000000
C            5.99722900000000       -7.20747400000000        0.00144600000000
C            3.71772500000000       -6.09699400000000        0.00121000000000
C            1.53337900000000       -4.91717500000000        0.00071100000000
C           -5.66559700000000       -7.45451700000000       -0.00194900000000
C           -1.32451200000000       -7.39875500000000       -0.00069700000000
C           -3.46633600000000       -6.24062300000000       -0.00092900000000
C            3.00667900000000       -7.30989600000000        0.00204600000000
C            0.85226600000000       -6.16436600000000        0.00079300000000
C           -1.33694600000000       -4.97200800000000       -0.00030400000000
C            8.01211300000000       -5.84353400000000        0.00048000000000
C            5.81512300000000       -4.78956400000000        0.00032500000000
C            3.63361700000000       -3.62096400000000        0.00070500000000
C            5.72468600000000       -2.35090900000000       -0.00012500000000
C            7.84560400000000       -1.13690300000000       -0.00136000000000
C            7.38149200000000       -7.09541500000000        0.00119900000000
C            5.18092000000000       -6.05633000000000        0.00116900000000
C            2.96483400000000       -4.88715600000000        0.00063400000000
C            0.78750900000000       -3.68906300000000       -0.00069900000000
C            7.22262300000000       -4.70512500000000        0.00018700000000
C            5.04658100000000       -3.57732800000000        0.00005000000000
C            2.89613200000000       -2.40744000000000       -0.00109100000000
C            7.15639500000000       -2.31416100000000       -0.00082400000000
C            5.00490000000000       -1.12754800000000       -0.00100100000000
C            7.14272400000000        0.11594600000000       -0.00129100000000
C           -7.06974800000000       -7.44976800000000       -0.00191600000000
C           -4.92891900000000       -6.26396100000000       -0.00126700000000
C           -7.07687800000000       -5.02164400000000       -0.00052000000000
C           -2.77084200000000       -4.99668300000000       -0.00034000000000
C           -4.93599700000000       -3.78494200000000       -0.00005700000000
C           -7.10221300000000       -2.57007200000000        0.00045400000000
C           -0.64203500000000       -3.71787900000000        0.00102400000000
C           -2.80931500000000       -2.52856000000000        0.00118400000000
C           -4.96825400000000       -1.32389100000000        0.00086200000000
C           -7.14272500000000       -0.11594600000000        0.00082200000000
C           -7.76945400000000       -6.26062100000000       -0.00110200000000
C           -5.63779300000000       -5.02402500000000       -0.00053000000000
C           -7.77103400000000       -3.79771500000000        0.00021200000000
C           -3.50060500000000       -3.76466500000000       -0.00065000000000
C           -5.65903300000000       -2.56415300000000        0.00013300000000
C           -7.80393800000000       -1.33593000000000        0.00097400000000
C            1.46655100000000       -2.44283500000000        0.00188200000000
C           -7.15639600000000        2.31416100000000        0.00049300000000
C            1.32451300000000        7.39875400000000        0.00267400000000
C           -0.68978200000000       -1.25026100000000        0.00265800000000
C            7.77103300000000        3.79771500000000       -0.00131900000000
C           -2.84802300000000       -0.06068900000000        0.00213700000000
C            5.63779300000000        5.02402400000000       -0.00007200000000
C           -5.00490100000000        1.12754800000000        0.00090100000000
C            3.46633700000000        6.24062200000000        0.00135100000000
C            3.57824200000000       -1.16064100000000        0.00119100000000
C           -5.04658100000000        3.57732900000000        0.00004900000000
C            1.42008400000000        0.02927800000000        0.00288600000000
C           -7.22262300000000        4.70512600000000       -0.00040800000000
C           -0.73530000000000        1.21913900000000        0.00273600000000
C            7.76945400000000        6.26062100000000       -0.00074400000000
C           -2.89613300000000        2.40744000000000        0.00130000000000
C            5.66559700000000        7.45451600000000        0.00040800000000
C            5.69863700000000        0.10585200000000       -0.00037000000000
C           -2.96483400000000        4.88715600000000       -0.00011100000000
C            3.53750600000000        1.30097400000000        0.00115700000000
C           -5.18091900000000        6.05633000000000       -0.00095400000000
C            1.37489600000000        2.50155000000000        0.00192100000000
C           -7.38149200000000        7.09541500000000       -0.00157000000000
C           -0.78750900000000        3.68906300000000        0.00121300000000
C            7.80393700000000        1.33593000000000       -0.00167700000000
C           -0.85226600000000        6.16436600000000        0.00034200000000
C            5.65903300000000        2.56415200000000       -0.00049500000000
C           -3.00667800000000        7.30989700000000       -0.00095000000000
C            3.50060500000000        3.76466500000000        0.00065700000000
C            1.33694700000000        4.97200700000000        0.00095200000000
C           -1.37489500000000       -2.50155100000000       -0.00166600000000
C            7.10221200000000        2.57007200000000       -0.00115300000000
C           -1.62529400000000        7.34193400000000       -0.00036600000000
C           -3.53750600000000       -1.30097400000000       -0.00111400000000
C            4.93599600000000        3.78494100000000       -0.00023400000000
C           -5.69863700000000       -0.10585200000000        0.00016200000000
C            2.77084200000000        4.99668200000000        0.00063000000000
C           -7.84560400000000        1.13690400000000        0.00085200000000
C            0.60331500000000        6.19175400000000        0.00128900000000
C            0.73530000000000       -1.21913900000000       -0.00250900000000
C           -1.42008300000000       -0.02927800000000       -0.00265200000000
C            7.07687700000000        5.02164400000000       -0.00064300000000
C           -3.57824200000000        1.16064100000000       -0.00103800000000
C            4.92891900000000        6.26396000000000        0.00071600000000
C           -5.72468700000000        2.35090900000000        0.00006200000000
C            2.70558400000000        7.42126300000000        0.00284900000000
C            2.84802200000000        0.06068900000000       -0.00208900000000
C           -5.81512200000000        4.78956500000000       -0.00026500000000
C            0.68978300000000        1.25026100000000       -0.00244900000000
C           -8.01211300000000        5.84353400000000       -0.00091200000000
C           -1.46655000000000        2.44283600000000       -0.00150800000000
C            7.06974800000000        7.44976800000000       -0.00023000000000
C           -3.63361700000000        3.62096500000000       -0.00039500000000
C            4.96825300000000        1.32389100000000       -0.00108700000000
C           -3.71772500000000        6.09699500000000       -0.00059400000000
C            2.80931500000000        2.52855900000000       -0.00115900000000
C           -5.99722900000000        7.20747400000000       -0.00149800000000
C            0.64203600000000        3.71787900000000       -0.00058100000000
C           -1.53337800000000        4.91717500000000        0.00003500000000
H           -3.19609700000000       -8.38716400000000       -0.00146700000000
H            1.14325000000000       -8.31173400000000        0.00259900000000
H            5.55567400000000       -8.19676500000000        0.00199500000000
H           -5.16084500000000       -8.41320200000000       -0.00268300000000
H           -0.80365600000000       -8.34835300000000       -0.00122300000000
H            3.53879800000000       -8.25405900000000        0.00257100000000
H            9.09280600000000       -5.74975200000000        0.00029000000000
H            8.93084400000000       -1.14550500000000       -0.00156400000000
H            7.99089600000000       -7.99417400000000        0.00143700000000
H           -7.60273900000000       -8.39622600000000       -0.00244900000000
H           -8.85600800000000       -6.25506500000000       -0.00104900000000
H           -8.85815000000000       -3.80989600000000        0.00025700000000
H           -8.89078900000000       -1.35626900000000        0.00097000000000
H            0.80365600000000        8.34835100000000        0.00414000000000
H            8.85814800000000        3.80989500000000       -0.00171000000000
H            8.85600700000000        6.25506400000000       -0.00120500000000
H            5.16084400000000        8.41320100000000        0.00064600000000
H           -7.99089600000000        7.99417400000000       -0.00202500000000
H            8.89078800000000        1.35626900000000       -0.00189800000000
H           -3.53879800000000        8.25406000000000       -0.00124100000000
H           -1.14324900000000        8.31173500000000       -0.00098900000000
H           -8.93084500000000        1.14550600000000        0.00086000000000
H            3.19609700000000        8.38716200000000        0.00389000000000
H           -9.09280500000000        5.74975300000000       -0.00096200000000
H            7.60273900000000        8.39622500000000       -0.00042700000000
H           -5.55567400000000        8.19676600000000       -0.00209600000000
O            7.86935700000000       -3.49066800000000       -0.00058900000000
O           -7.86935700000000        3.49066900000000        0.00020600000000
130
 energy: -240.627400929295 gnorm: 0.022511767091 xtb: 6.7.1pre (5071a88)
C           -2.70064153650019       -7.39633996873007       -0.00113806201799
C            1.62254515492478       -7.31725464456562        0.00172193131498
C           -0.60268165206398       -6.17312768746512        0.00001414120854
C            5.98338265426660       -7.18287873725833        0.00143611850249
C            3.70862169958123       -6.07883059568888        0.00121584864832
C            1.52833417352598       -4.90427463430202        0.00059140750226
C           -5.65409716289388       -7.43053765393174       -0.00191787458002
C           -1.32501565691123       -7.37393578187474       -0.00072807127609
C           -3.46043955326009       -6.22133564939240       -0.00092609385689
C            2.99795265574705       -7.28576235666282        0.00193021708712
C            0.84802156562288       -6.14623092098998        0.00071564518261
C           -1.33571073493588       -4.95855582743400       -0.00016253215788
C            7.98683775318591       -5.83084550825700        0.00048151146679
C            5.79832364836381       -4.77876610318298        0.00039867636694
C            3.62095875715765       -3.61373742877245        0.00045714261032
C            5.70832768928588       -2.34424950139084       -0.00024032848165
C            7.81739003118534       -1.12982976295959       -0.00123735047581
C            7.35993195731173       -7.07365600186652        0.00116977748654
C            5.16513965712443       -6.04015289309323        0.00107554438037
C            2.95503010363346       -4.87531206244047        0.00064806678127
C            0.78383539326498       -3.68119563850945       -0.00003622555546
C            7.20399572530661       -4.68941332559490        0.00012269168882
C            5.02996239593443       -3.57069374392067        0.00005720308643
C            2.88655112408059       -2.40203281514914       -0.00021717433774
C            7.13647079254174       -2.31155774912304       -0.00074582577223
C            4.98979657720553       -1.12478944209883       -0.00059968361607
C            7.11723691186781        0.11704201027604       -0.00121450777368
C           -7.04935725811524       -7.42574141297258       -0.00188471187652
C           -4.91659762011394       -6.24593511436191       -0.00116843797226
C           -7.05291132621070       -5.00948251909036       -0.00048663456967
C           -2.76492622087255       -4.98324926179106       -0.00038418019221
C           -4.92211291576821       -3.77626490875094       -0.00011633813975
C           -7.07770334047312       -2.56489297596735        0.00045511841835
C           -0.64159813663697       -3.70966157578683        0.00036209738379
C           -2.80215070351153       -2.52217243531740        0.00028804645032
C           -4.95411796483840       -1.32133064367170        0.00048105029487
C           -7.11723736884650       -0.11704228496092        0.00074602255586
C           -7.74375751414713       -6.24271079585991       -0.00109523083934
C           -5.62150236069184       -5.01134962299717       -0.00057200179192
C           -7.74424339657724       -3.79014965292209        0.00015455700909
C           -3.49215933160904       -3.75578236697004       -0.00036243922562
C           -5.64192544224811       -2.55842247404899        0.00017061075163
C           -7.77581233998185       -1.33550067775249        0.00081115948264
C            1.46134294170893       -2.43752074205343        0.00057518720026
C           -7.13647114581123        2.31155759934719        0.00043062511310
C            1.32501612340247        7.37393467810999        0.00269514820717
C           -0.68876227767470       -1.24792608418501        0.00070313201179
C            7.74424318341369        3.79014974813397       -0.00125629144203
C           -2.83987239059722       -0.06039467069917        0.00068444585916
C            5.62150234949241        5.01134928372128       -0.00003489763361
C           -4.98979699174963        1.12478937420480        0.00052668644056
C            3.46044004139456        6.22133507266966        0.00132782341025
C            3.56744606327166       -1.15874045614443        0.00022536449188
C           -5.02996242189729        3.57069398856630        0.00004859818576
C            1.41634883366296        0.02879065581781        0.00075171856473
C           -7.20399568248753        4.68941385003880       -0.00036405281307
C           -0.73281140796010        1.21676647224707        0.00076627352523
C            7.74375733526626        6.24271121900941       -0.00074042760848
C           -2.88655166062506        2.40203253394640        0.00045875495497
C            5.65409683621392        7.43053779918852        0.00039596473205
C            5.68136039256550        0.10584707332618       -0.00059128794177
C           -2.95503012864813        4.87531195948294       -0.00011599318626
C            3.52787494310105        1.29819222275728        0.00016667379014
C           -5.16513899708300        6.04015296122186       -0.00085421484298
C            1.37242751588021        2.49537540451737        0.00057561598917
C           -7.35993152744713        7.07365629784992       -0.00153231250726
C           -0.78383577779494        3.68119540445185        0.00055803320086
C            7.77581202273543        1.33550047601504       -0.00151082869452
C           -0.84802155387583        6.14623078872712        0.00040527169433
C            5.64192551971102        2.55842198951770       -0.00054005566032
C           -2.99795192203971        7.28576291474619       -0.00085092011632
C            3.49215931922703        3.75578248006221        0.00035142627250
C            1.33571086039735        4.95855527090902        0.00080206681976
C           -1.37242757104025       -2.49537580688252       -0.00034019639591
C            7.07770298289511        2.56489291937078       -0.00115389124370
C           -1.62254453320472        7.31725519957841       -0.00040333083967
C           -3.52787495936940       -1.29819217909801       -0.00016211623239
C            4.92211249765705        3.77626448237515       -0.00016666789184
C           -5.68136040468990       -0.10584729121263        0.00036312075848
C            2.76492606459039        4.98324880718554        0.00068060654148
C           -7.81739007853250        1.12982989437839        0.00073844682236
C            0.60268151298047        6.17312752655528        0.00120492750701
C            0.73281071389079       -1.21676671411065       -0.00051789857978
C           -1.41634888086128       -0.02879073722294       -0.00055179544533
C            7.05291080418413        5.00948266440892       -0.00067559812212
C           -3.56744600485081        1.15874028561218       -0.00011209836768
C            4.91659745435466        6.24593485676066        0.00063157613473
C           -5.70832801644302        2.34424931550969        0.00016865857207
C            2.70064170506817        7.39633893821432        0.00272605471385
C            2.83987182662813        0.06039456809525       -0.00059302947642
C           -5.79832308840378        4.77876649961245       -0.00034454235836
C            0.68876205557026        1.24792607243929       -0.00048283272493
C           -7.98683756831684        5.83084561570643       -0.00091064682771
C           -1.46134282486800        2.43752085461999       -0.00022817988317
C            7.04935690409015        7.42574194665127       -0.00025217752616
C           -3.62095872374349        3.61373764632575       -0.00016512192720
C            4.95411762499977        1.32133055115062       -0.00068132653866
C           -3.70862151228643        6.07883107853984       -0.00060381755119
C            2.80215055142715        2.52217204811251       -0.00023091573097
C           -5.98338239829061        7.18287896312905       -0.00148375271200
C            0.64159823261060        3.70966156587985        0.00008503265919
C           -1.52833380298725        4.90427453817008        0.00013919967164
H           -3.18842965423179       -8.36024715017662       -0.00154440477751
H            1.14502626554118       -8.28576143631645        0.00247262010197
H            5.54821260722705       -8.17063094647146        0.00197022420098
H           -5.15731756977723       -8.38917438649513       -0.00261860236690
H           -0.80833390018460       -8.32224112926763       -0.00110950132564
H            3.52829485824480       -8.22726312222590        0.00260470485563
H            9.06348042815662       -5.74309442866705        0.00028419655884
H            8.89848913923478       -1.13437560737803       -0.00158873858484
H            7.96796769770127       -7.96931820549549        0.00144725690544
H           -7.58177645105721       -8.36895985261450       -0.00244396395413
H           -8.82652579532220       -6.23935373292148       -0.00103276882258
H           -8.82787930237483       -3.80421162335616        0.00026386656728
H           -8.85905532375073       -1.35693129749250        0.00101319205470
H            0.80833377407996        8.32223906045004        0.00399733960767
H            8.82787858044872        3.80421109424470       -0.00170853612962
H            8.82652515302020        6.23935343064888       -0.00119699205313
H            5.15731663816615        8.38917438267299        0.00066298052006
H           -7.96796721992673        7.96931846993996       -0.00202086805098
H            8.85905482220783        1.35693107347643       -0.00193539090123
H           -3.52829461132472        8.22726370606978       -0.00131959664632
H           -1.14502541669595        8.28576201774385       -0.00086232776216
H           -8.89848962325773        1.13437571702091        0.00089333791053
H            3.18843025888568        8.36024517142998        0.00387694895939
H           -9.06348002346935        5.74309521150268       -0.00094467336754
H            7.58177616851335        8.36896005129113       -0.00040176405763
H           -5.54821235285342        8.17063146852700       -0.00203307819535
O            7.85122250366208       -3.48242686249379       -0.00056981106841
O           -7.85122249358544        3.48242739859556        0.00018725364727
130
 energy: -240.631442265775 gnorm: 0.006641711645 xtb: 6.7.1pre (5071a88)
C           -2.69350041169676       -7.37648743276397       -0.00112429519251
C            1.61587860954998       -7.29757607893348        0.00167827438693
C           -0.60091733476811       -6.15590780948239        0.00001899062272
C            5.96278268653074       -7.16254521290674        0.00143789321618
C            3.69708255673094       -6.06144107786619        0.00120663146361
C            1.52240913375811       -4.89074203667055        0.00049284418217
C           -5.63580833333339       -7.41040055138328       -0.00189570239918
C           -1.32109013789763       -7.35426262861095       -0.00069791989264
C           -3.45068137052878       -6.20339707967755       -0.00091145431835
C            2.98780449030667       -7.26625884641557        0.00188832321708
C            0.84333871218788       -6.12920728011339        0.00070804900376
C           -1.33222811653261       -4.94462219366665       -0.00005383603324
C            7.96202555216265       -5.81641161632055        0.00049152740732
C            5.78106387868809       -4.76586363120706        0.00042899629432
C            3.60793343711823       -3.60456558988235        0.00025565360831
C            5.69216514533351       -2.33644998107850       -0.00034122211138
C            7.79168894379513       -1.12306369425741       -0.00120074835466
C            7.33615401515772       -7.05471055146479        0.00115306110669
C            5.14678529264475       -6.02341749289662        0.00105036611307
C            2.94429108375183       -4.86223274518686        0.00068343762095
C            0.78036986000513       -3.67177284289048        0.00029977132452
C            7.18534102021346       -4.67117093187773        0.00011003789217
C            5.01285733758727       -3.56191560929123        0.00012495020743
C            2.87606146520708       -2.39511608944120        0.00018438161550
C            7.11718893722856       -2.30816839953119       -0.00070071054449
C            4.97368036465459       -1.12191505288223       -0.00035996185273
C            7.09260001294520        0.11692566451119       -0.00116587855237
C           -7.02700684032687       -7.40550142135907       -0.00185671216562
C           -4.90015154802331       -6.22814716536223       -0.00114421060533
C           -7.02961135972601       -4.99547467486872       -0.00048618461288
C           -2.75636843087915       -4.96921638610715       -0.00042103097841
C           -4.90554884034269       -3.76588834332149       -0.00017582604445
C           -7.05409976628713       -2.55737054908599        0.00041673095396
C           -0.64000470623463       -3.70001701195192        0.00002049461024
C           -2.79257575915236       -2.51432381946612       -0.00005728840343
C           -4.93756479792453       -1.31795069182612        0.00028005740907
C           -7.09260031727359       -0.11692565868812        0.00070136133384
C           -7.71989846261331       -6.22454900989713       -0.00109673666415
C           -5.60328885011730       -4.99766861977104       -0.00057512838081
C           -7.72020134093218       -3.78009943548369        0.00010733256242
C           -3.48096670777580       -3.74550763485767       -0.00015277760009
C           -5.62354763445651       -2.55114825516865        0.00022569139173
C           -7.75096429813549       -1.33354257748938        0.00075975508876
C            1.45580693526628       -2.43064936137603       -0.00000572605586
C           -7.11718898992375        2.30816853959141        0.00038859629709
C            1.32109027295365        7.35426153915625        0.00263373199024
C           -0.68695396973577       -1.24469722566706       -0.00010875547910
C            7.72020089945178        3.78009933667864       -0.00120471069554
C           -2.83004914612685       -0.05978122276769        0.00004846072208
C            5.60328861735233        4.99766837405920       -0.00004099595477
C           -4.97368048745145        1.12191513754963        0.00030073967490
C            3.45068144604447        6.20339673168495        0.00129597965309
C            3.55552963428620       -1.15628674366235       -0.00025841649239
C           -5.01285733823960        3.56191573485440       -0.00001535898561
C            1.41180458813069        0.02825908789587       -0.00018773959131
C           -7.18534095294842        4.67117116754589       -0.00035600043477
C           -0.73011488076874        1.21360008736370       -0.00004901668353
C            7.71989795517974        6.22454896016863       -0.00072692354345
C           -2.87606153330165        2.39511603083981        0.00007193905836
C            5.63580815163193        7.41040053953991        0.00041901825872
C            5.66322396076147        0.10577267340136       -0.00074533508958
C           -2.94429097151324        4.86223286809708       -0.00015003624591
C            3.51599818607236        1.29463987155075       -0.00031284966552
C           -5.14678493360623        6.02341777205170       -0.00082649111078
C            1.36832250961043        2.48777910707564        0.00002737037718
C           -7.33615349756298        7.05471081083450       -0.00150204443642
C           -0.78036999265131        3.67177270228657        0.00022360180395
C            7.75096392080122        1.33354261045828       -0.00145724924139
C           -0.84333854453670        6.12920720853444        0.00041045358400
C            5.62354733058928        2.55114814478788       -0.00060332026809
C           -2.98780396765758        7.26625921256428       -0.00083438845059
C            3.48096657369530        3.74550750168484        0.00013189894313
C            1.33222797498848        4.94462192695703        0.00068847367527
C           -1.36832278420043       -2.48777924727454        0.00020127205577
C            7.05409934310639        2.55737046835854       -0.00111396571806
C           -1.61587821296737        7.29757635712846       -0.00037129269711
C           -3.51599838996780       -1.29463996539270        0.00030210489420
C            4.90554859066698        3.76588817019177       -0.00010741692877
C           -5.66322415786637       -0.10577267000969        0.00050662710453
C            2.75636837141862        4.96921617573192        0.00071858490334
C           -7.79168921125745        1.12306374365074        0.00070305162132
C            0.60091733887739        6.15590743284872        0.00119398111133
C            0.73011457396981       -1.21360030803414        0.00030539009065
C           -1.41180483398174       -0.02825921750404        0.00037566498513
C            7.02961090883381        4.99547449393844       -0.00067149577085
C           -3.55552968824185        1.15628671421549        0.00035543367531
C            4.90015138388453        6.22814694294491        0.00061374047345
C           -5.69216509560983        2.33645010704752        0.00026016242036
C            2.69350068676711        7.37648638764927        0.00265979350692
C            2.83004896193277        0.05978107744868        0.00006173874609
C           -5.78106370808518        4.76586384094637       -0.00038122605582
C            0.68695367177592        1.24469708414197        0.00033401881877
C           -7.96202529906147        5.81641181868304       -0.00091802698575
C           -1.45580708001002        2.43064918620128        0.00034357812629
C            7.02700640960079        7.40550152955850       -0.00024745810454
C           -3.60793336094654        3.60456565197590        0.00002575638721
C            4.93756456634403        1.31795060326267       -0.00047054880321
C           -3.69708221404689        6.06144133944590       -0.00060400236765
C            2.79257554246441        2.51432366489681        0.00012552130415
C           -5.96278228130786        7.16254549358505       -0.00146421335025
C            0.64000457773994        3.70001687568236        0.00042613599450
C           -1.52240908153022        4.89074203864813        0.00023076130019
H           -3.18168138436505       -8.33800157603917       -0.00161445563224
H            1.13861941537483       -8.26431477336332        0.00232844945350
H            5.52881446912325       -8.14892613636412        0.00193051389255
H           -5.14131473650557       -8.36818526335823       -0.00252508861510
H           -0.80472154113131       -8.30067541035375       -0.00098359637806
H            3.51871147466785       -8.20506803930456        0.00261949187182
H            9.03653442858730       -5.73144167101880        0.00025747012630
H            8.87035383091761       -1.12352691771158       -0.00155652394465
H            7.94276719125796       -7.94847870693216        0.00145477901523
H           -7.55865173577539       -8.34663769991832       -0.00243069210419
H           -8.80033769542475       -6.22014657637152       -0.00101206660234
H           -8.80137059902081       -3.79485171951476        0.00025429472063
H           -8.83169347093697       -1.35542738508947        0.00097532342928
H            0.80472145288108        8.30067349752746        0.00383060858239
H            8.80137015937204        3.79485147299215       -0.00169161031678
H            8.80033718748616        6.22014633684432       -0.00120370793615
H            5.14131439693958        8.36818534334309        0.00068316514264
H           -7.94276666516167        7.94847886109203       -0.00200478483843
H            8.83169302338084        1.35542740752989       -0.00189101312199