130
 energy: -240.631834154475 gnorm: 0.000383734638 xtb: 6.7.1pre (5071a88)
C           -2.68724639049969       -7.37329195671498       -0.00108728112706
C            1.61140134149899       -7.29430227452715        0.00155102324226
C           -0.59913385919640       -6.15076720673533        0.00005292468607
C            5.94779854419572       -7.15863854132724        0.00137748944487
C            3.68906908368296       -6.05583724027652        0.00114367771525
C            1.51906081841862       -4.88560370629800        0.00049539062012
C           -5.62239633073076       -7.40566226866115       -0.00175745832592
C           -1.31596311868779       -7.35111339450646       -0.00061739546841
C           -3.44217702390817       -6.19829300265295       -0.00084599629335
C            2.98220872089712       -7.26269544761013        0.00179717000901
C            0.84189262774392       -6.12392179446085        0.00067990087800
C           -1.32851193230662       -4.93957123524280       -0.00003122385277
C            7.94866092370616       -5.81290409909417        0.00047612469695
C            5.77188622500465       -4.76033307133395        0.00039969207153
C            3.60217060889149       -3.60028339886875        0.00025519243825
C            5.68581260974299       -2.33351697613695       -0.00032407678784
C            7.78403271569233       -1.12176411028447       -0.00108819285964
C            7.32154791121197       -7.05138160814089        0.00111907308177
C            5.13632435773139       -6.01692062103053        0.00101374383362
C            2.93871047605629       -4.85684596154486        0.00062751769553
C            0.77911113851111       -3.66750645639398        0.00020839517882
C            7.17532018160516       -4.66568540444227        0.00012335240380
C            5.00506982299323       -3.55757961700385        0.00009832971708
C            2.87125919919845       -2.39185617103881        0.00003185015772
C            7.10978658094133       -2.30696571698391       -0.00064050322009
C            4.96702143812540       -1.12106088815514       -0.00042577370435
C            7.08380416897973        0.11596222490829       -0.00107143694127
C           -7.01362267526724       -7.40130610535704       -0.00178484377582
C           -4.88928927448950       -6.22183223668995       -0.00107413484476
C           -7.01856899106185       -4.99048974234683       -0.00050673363718
C           -2.75029635699720       -4.96408864278742       -0.00033827886844
C           -4.89646852295770       -3.76118517777033       -0.00013131536847
C           -7.04485848207089       -2.55385658392616        0.00033723551183
C           -0.63836106838461       -3.69579569369280        0.00015680967790
C           -2.78718217889861       -2.51085726924639        0.00010835024960
C           -4.92960700962641       -1.31630556903603        0.00033454814010
C           -7.08380774635958       -0.11595892194242        0.00060177921280
C           -7.70759987755822       -6.21991434296373       -0.00109627863807
C           -5.59286741614177       -4.99233689894416       -0.00054536668138
C           -7.71089237468763       -3.77633576626188        0.00004110319931
C           -3.47412431742150       -3.74130186575747       -0.00014365075978
C           -5.61499269021514       -2.54781372616881        0.00019903505783
C           -7.74324085380545       -1.33218138975420        0.00063300137304
C            1.45334169066723       -2.42731726789310        0.00013460662666
C           -7.10978649672510        2.30697093373313        0.00031822526877
C            1.31596622002084        7.35111209824399        0.00245309367543
C           -0.68580028418008       -1.24302692394442        0.00016881391584
C            7.71088449483574        3.77633059534906       -0.00115538676694
C           -2.82545008674766       -0.05931749484905        0.00028494213127
C            5.59286541825716        4.99233117089519       -0.00007033757118
C           -4.96702173297377        1.12106375092116        0.00035894669022
C            3.44217855066774        6.19829191678141        0.00120968451123
C            3.55029618414546       -1.15516764593062       -0.00016670035986
C           -5.00506851549805        3.55758395622934        0.00000099732066
C            1.40964680597479        0.02810191618097        0.00004032950199
C           -7.17531864066965        4.66568748880555       -0.00037198120390
C           -0.72899054555071        1.21202895530709        0.00021007946746
C            7.70759923527057        6.21990215068606       -0.00071457182426
C           -2.87125906202889        2.39185855499923        0.00022821391363
C            5.62240207467686        7.40565042254682        0.00040839326893
C            5.65552003091663        0.10572627410740       -0.00068442364076
C           -2.93870897727093        4.85684903615534       -0.00009238908510
C            3.50993650297352        1.29302472185356       -0.00022951690089
C           -5.13632272276241        6.01692434462739       -0.00077728743462
C            1.36543515475117        2.48442273346157        0.00013252042397
C           -7.32154769494097        7.05138248182218       -0.00140646288700
C           -0.77911090612718        3.66750816981500        0.00032506684986
C            7.74323476808318        1.33218449702958       -0.00133873826885
C           -0.84189080164706        6.12392379044318        0.00042393194838
C            5.61498812034049        2.54781294945600       -0.00058594365309
C           -2.98220610416590        7.26269842708834       -0.00080165365437
C            3.47412263016132        3.74130203704413        0.00012427833143
C            1.32851236483788        4.93957160937170        0.00066622709820
C           -1.36543615689042       -2.48442184662060        0.00010888973188
C            7.04485165571157        2.55385502205967       -0.00104804816875
C           -1.61139877207435        7.29430503437235       -0.00029367896592
C           -3.50993869864901       -1.29302383297753        0.00022288967807
C            4.89646463763589        3.76118309845537       -0.00015885272699
C           -5.65552128600258       -0.10572268056413        0.00044301238762
C            2.75029630341422        4.96408887689631        0.00063459052083
C           -7.78403421354294        1.12176919662102        0.00058882289281
C            0.59913533490334        6.15076772729016        0.00113565406372
C            0.72898980898210       -1.21202780914376        0.00005818875618
C           -1.40964765492726       -0.02810059449626        0.00016334752970
C            7.01856502005704        4.99048232720187       -0.00065715709964
C           -3.55029647913749        1.15516956981371        0.00027131759481
C            4.88929000740297        6.22182600299293        0.00057438424542
C           -5.68581162795909        2.33352200088375        0.00023385174770
C            2.68724931065198        7.37329098791490        0.00250538990133
C            2.82544860022857        0.05931870559916       -0.00017514823450
C           -5.77188455024123        4.76033638628426       -0.00035633539575
C            0.68579941667313        1.24302799640927        0.00006834968522
C           -7.94866053520841        5.81290548431570       -0.00088762403810
C           -1.45334179038049        2.42731900386042        0.00021851279903
C            7.01362675686266        7.40129541831591       -0.00022655408250
C           -3.60216911597478        3.60028678872005        0.00003279086473
C            4.92960373040505        1.31630651544683       -0.00053363874075
C           -3.68906735908352        6.05584091181607       -0.00055264427290
C            2.78718035355517        2.51085772904185       -0.00004060054874
C           -5.94779793087207        7.15864048308613       -0.00133868883530
C            0.63836079449400        3.69579684629984        0.00030031102491
C           -1.51905952710070        4.88560594896105        0.00023229676368
H           -3.17651677409517       -8.33356707257894       -0.00161458784947
H            1.13156750748912       -8.25921380001461        0.00212119881246
H            5.50837616019899       -8.14241953489779        0.00185435677483
H           -5.12352827049025       -8.36095353871206       -0.00231348456763
H           -0.79721237755255       -8.29562012872547       -0.00086482645362
H            3.51420222561500       -8.20024225975761        0.00249658801580
H            9.02317251205147       -5.72581591724790        0.00025580371474
H            8.86261165220413       -1.11949102261008       -0.00137507587481
H            7.92626199478934       -7.94588842350804        0.00141198901157
H           -7.54361259721299       -8.34284685943598       -0.00232665193307
H           -8.78770549418658       -6.21162854833733       -0.00105372705780
H           -8.79164234849606       -3.78922512867122        0.00013199108250
H           -8.82350688365179       -1.35314987608131        0.00077541394330
H            0.79721533405584        8.29561856958307        0.00355488358331
H            8.79163522959823        3.78921933020011       -0.00158457081090
H            8.78770527732940        6.21161419892535       -0.00117586853927
H            5.12353567087210        8.36094382565431        0.00069952142070
H           -7.92626204628565        7.94588894617869       -0.00186481168168
H            8.82350138157152        1.35315411546652       -0.00169610420556
H           -3.51419953283335        8.20024537390184       -0.00138189268405
H           -1.13156457589144        8.25921628455824       -0.00059069430584
H           -8.86261292731651        1.11949670299926        0.00069407706034
H            3.17651993535491        8.33356555190057        0.00360730441094
H           -9.02317210001366        5.72581654778318       -0.00090488687663
H            7.54361723629727        8.34283687732689       -0.00033565032346
H           -5.50837635867454        8.14242169500307       -0.00174483508641
O            7.82440910287690       -3.46995643352559       -0.00049677320349
O           -7.82440664538559        3.46995845263272        0.00010095771384
