      -----------------------------------------------------------      
     |                   =====================                   |     
     |                           x T B                           |     
     |                   =====================                   |     
     |                         S. Grimme                         |     
     |          Mulliken Center for Theoretical Chemistry        |     
     |                    University of Bonn                     |     
      -----------------------------------------------------------      

   * xtb version 6.7.1pre (5071a88) compiled by 'Marcel@Raven' on 2024-07-23

   xtb is free software: you can redistribute it and/or modify it under
   the terms of the GNU Lesser General Public License as published by
   the Free Software Foundation, either version 3 of the License, or
   (at your option) any later version.
   
   xtb is distributed in the hope that it will be useful,
   but WITHOUT ANY WARRANTY; without even the implied warranty of
   MERCHANTABILITY or FITNESS FOR A PARTICULAR PURPOSE.  See the
   GNU Lesser General Public License for more details.
   
   Cite this work as:
   * C. Bannwarth, E. Caldeweyher, S. Ehlert, A. Hansen, P. Pracht,
     J. Seibert, S. Spicher, S. Grimme, WIREs Comput. Mol. Sci., 2020, 11,
     e01493. DOI: 10.1002/wcms.1493
   
   for GFN2-xTB:
   * C. Bannwarth, S. Ehlert and S. Grimme., J. Chem. Theory Comput., 2019,
     15, 1652-1671. DOI: 10.1021/acs.jctc.8b01176
   for GFN1-xTB:
   * S. Grimme, C. Bannwarth, P. Shushkov, J. Chem. Theory Comput., 2017,
     13, 1989-2009. DOI: 10.1021/acs.jctc.7b00118
   for GFN0-xTB:
   * P. Pracht, E. Caldeweyher, S. Ehlert, S. Grimme, ChemRxiv, 2019, preprint.
     DOI: 10.26434/chemrxiv.8326202.v1
   for GFN-FF:
   * S. Spicher and S. Grimme, Angew. Chem. Int. Ed., 2020, 59, 15665-15673.
     DOI: 10.1002/anie.202004239
   
   for ALPB and GBSA implicit solvation:
   * S. Ehlert, M. Stahn, S. Spicher, S. Grimme, J. Chem. Theory Comput.,
     2021, 17, 4250-4261. DOI: 10.1021/acs.jctc.1c00471
   
   for ddCOSMO and CPCM-X implicit solvation:
   * M. Stahn, S. Ehlert, S. Grimme, J. Phys. Chem. A,
     2023, XX, XXXX-XXXX. DOI: 10.1021/acs.jpca.3c04382
   
   for DFT-D4:
   * E. Caldeweyher, C. Bannwarth and S. Grimme, J. Chem. Phys., 2017,
     147, 034112. DOI: 10.1063/1.4993215
   * E. Caldeweyher, S. Ehlert, A. Hansen, H. Neugebauer, S. Spicher,
     C. Bannwarth and S. Grimme, J. Chem. Phys., 2019, 150, 154122.
     DOI: 10.1063/1.5090222
   * E. Caldeweyher, J.-M. Mewes, S. Ehlert and S. Grimme, Phys. Chem. Chem. Phys.
     2020, 22, 8499-8512. DOI: 10.1039/D0CP00502A
   
   for sTDA-xTB:
   * S. Grimme and C. Bannwarth, J. Chem. Phys., 2016, 145, 054103.
     DOI: 10.1063/1.4959605
   
   in the mass-spec context:
   * V. Asgeirsson, C. Bauer and S. Grimme, Chem. Sci., 2017, 8, 4879.
     DOI: 10.1039/c7sc00601b
   * J. Koopman and S. Grimme, ACS Omega 2019, 4, 12, 15120-15133.
     DOI: 10.1021/acsomega.9b02011
   
   for metadynamics refer to:
   * S. Grimme, J. Chem. Theory Comput., 2019, 155, 2847-2862
     DOI: 10.1021/acs.jctc.9b00143
   
   for SPH calculations refer to:
   * S. Spicher and S. Grimme, J. Chem. Theory Comput., 2021, 17, 1701-1714
     DOI: 10.1021/acs.jctc.0c01306
   
   for ONIOM refer to:
   * C. Plett, A. Katbashev, S. Ehlert, S. Grimme, M. Bursch,
     Phys. Chem. Chem. Phys., 2023, 25, 17860-17868. DOI: 10.1039/D3CP02178E
   
   for DIPRO refer to:
   * J. Kohn, N. Gildemeister, S. Grimme, D. Fazzi, A. Hansen,
     J. Chem. Phys., 2023, just accepted.
   
   for PTB refer to:
   * S. Grimme, M. Mueller, A. Hansen, J. Chem. Phys., 2023, 158, 124111.
     DOI: 10.1063/5.0137838
   
   with help from (in alphabetical order)
   P. Atkinson, C. Bannwarth, F. Bohle, G. Brandenburg, E. Caldeweyher
   M. Checinski, S. Dohm, S. Ehlert, S. Ehrlich, I. Gerasimov, C. Hölzer
   A. Katbashev, J. Kohn, J. Koopman, C. Lavigne, S. Lehtola, F. März, M. Müller,
   F. Musil, H. Neugebauer, J. Pisarek, C. Plett, P. Pracht, F. Pultar,
   J. Seibert, P. Shushkov, S. Spicher, M. Stahn, M. Steiner, T. Strunk,
   J. Stückrath, T. Rose, and J. Unsleber
   
 * started run on 2025/12/08 at 00:34:24.858     
   ID    Z sym.   atoms
    1    6 C      1-52
    2    1 H      53-70
    3    8 O      71, 72

           -------------------------------------------------
          |                Calculation Setup                |
           -------------------------------------------------

          program call               : xtb "C:\Users\LENOVO GAMING\Documents\GitHub\molecular-conductivity-sim\results\1nm-2Odoped-3percent\xtbopt.xyz" --sp
          coordinate file            : C:\Users\LENOVO GAMING\Documents\GitHub\molecular-conductivity-sim\results\1nm-2Odoped-3percent\xtbopt.xyz
          omp threads                :                    16


           -------------------------------------------------
          |                 G F N 2 - x T B                 |
           -------------------------------------------------

        Reference                      10.1021/acs.jctc.8b01176
      * Hamiltonian:
        H0-scaling (s, p, d)           1.850000    2.230000    2.230000
        zeta-weighting                 0.500000
      * Dispersion:
        s8                             2.700000
        a1                             0.520000
        a2                             5.000000
        s9                             5.000000
      * Repulsion:
        kExp                           1.500000    1.000000
        rExp                           1.000000
      * Coulomb:
        alpha                          2.000000
        third order                    shell-resolved
        anisotropic                    true
        a3                             3.000000
        a5                             4.000000
        cn-shift                       1.200000
        cn-exp                         4.000000
        max-rad                        5.000000

q/qsh data taken from xtbrestart
CAMM data taken from xtbrestart

          ...................................................
          :                      SETUP                      :
          :.................................................:
          :  # basis functions                 234          :
          :  # atomic orbitals                 234          :
          :  # shells                          126          :
          :  # electrons                       238          :
          :  max. iterations                   250          :
          :  Hamiltonian                  GFN2-xTB          :
          :  restarted?                       true          :
          :  GBSA solvation                  false          :
          :  PC potential                    false          :
          :  electronic temp.          300.0000000     K    :
          :  accuracy                    1.0000000          :
          :  -> integral cutoff          0.2500000E+02      :
          :  -> integral neglect         0.1000000E-07      :
          :  -> SCF convergence          0.1000000E-05 Eh   :
          :  -> wf. convergence          0.1000000E-03 e    :
          :  Broyden damping             0.4000000          :
          :  net charge                          0          :
          :  unpaired electrons                  0          :
          ...................................................

 iter      E             dE          RMSdq      gap      omega  full diag
   1   -131.3820185 -0.131382E+03  0.374E-06    1.12       0.0  T
   2   -131.3820185  0.852651E-13  0.305E-06    1.12    3868.4  T
   3   -131.3820185 -0.653699E-12  0.124E-06    1.12    9495.7  T

   *** convergence criteria satisfied after 3 iterations ***

         #    Occupation            Energy/Eh            Energy/eV
      -------------------------------------------------------------
         1        2.0000           -0.7417662             -20.1845
       ...           ...                  ...                  ...
       113        2.0000           -0.3941119             -10.7243
       114        2.0000           -0.3932873             -10.7019
       115        2.0000           -0.3926586             -10.6848
       116        2.0000           -0.3817758             -10.3886
       117        2.0000           -0.3679870             -10.0134
       118        2.0000           -0.3561301              -9.6908
       119        2.0000           -0.3396472              -9.2423 (HOMO)
       120                         -0.2984452              -8.1211 (LUMO)
       121                         -0.2735818              -7.4445
       122                         -0.2656837              -7.2296
       123                         -0.2546707              -6.9299
       124                         -0.2421599              -6.5895
       ...                                ...                  ...
       234                          0.7673480              20.8806
      -------------------------------------------------------------
                  HL-Gap            0.0412020 Eh            1.1212 eV
             Fermi-level           -0.3190462 Eh           -8.6817 eV

 SCC (total)                   0 d,  0 h,  0 min,  0.084 sec
 SCC setup                      ...        0 min,  0.001 sec (  1.190%)
 Dispersion                     ...        0 min,  0.003 sec (  3.571%)
 classical contributions        ...        0 min,  0.000 sec (  0.000%)
 integral evaluation            ...        0 min,  0.008 sec (  9.524%)
 iterations                     ...        0 min,  0.050 sec ( 59.524%)
 molecular gradient             ...        0 min,  0.020 sec ( 23.810%)
 printout                       ...        0 min,  0.002 sec (  2.381%)

         :::::::::::::::::::::::::::::::::::::::::::::::::::::
         ::                     SUMMARY                     ::
         :::::::::::::::::::::::::::::::::::::::::::::::::::::
         :: total energy            -128.978135213747 Eh    ::
         :: gradient norm              0.000236651270 Eh/a0 ::
         :: HOMO-LUMO gap              1.121163714661 eV    ::
         ::.................................................::
         :: SCC energy              -131.384080678692 Eh    ::
         :: -> isotropic ES            0.023835090119 Eh    ::
         :: -> anisotropic ES          0.008895092608 Eh    ::
         :: -> anisotropic XC          0.045721254587 Eh    ::
         :: -> dispersion             -0.134592199656 Eh    ::
         :: repulsion energy           2.405945464945 Eh    ::
         :: add. restraining           0.000000000000 Eh    ::
         :: total charge              -0.000000000000 e     ::
         :::::::::::::::::::::::::::::::::::::::::::::::::::::

           -------------------------------------------------
          |                Property Printout                |
           -------------------------------------------------

    * Orbital Energies and Occupations

         #    Occupation            Energy/Eh            Energy/eV
      -------------------------------------------------------------
         1        2.0000           -0.7417662             -20.1845
       ...           ...                  ...                  ...
       107        2.0000           -0.4110868             -11.1862
       108        2.0000           -0.4107821             -11.1780
       109        2.0000           -0.4081995             -11.1077
       110        2.0000           -0.4063163             -11.0564
       111        2.0000           -0.4035074             -10.9800
       112        2.0000           -0.3992801             -10.8650
       113        2.0000           -0.3941119             -10.7243
       114        2.0000           -0.3932873             -10.7019
       115        2.0000           -0.3926586             -10.6848
       116        2.0000           -0.3817758             -10.3886
       117        2.0000           -0.3679870             -10.0134
       118        2.0000           -0.3561301              -9.6908
       119        2.0000           -0.3396472              -9.2423 (HOMO)
       120                         -0.2984452              -8.1211 (LUMO)
       121                         -0.2735818              -7.4445
       122                         -0.2656837              -7.2296
       123                         -0.2546707              -6.9299
       124                         -0.2421599              -6.5895
       125                         -0.2368690              -6.4455
       126                         -0.2364802              -6.4350
       127                         -0.2319407              -6.3114
       128                         -0.2288073              -6.2262
       129                         -0.2201830              -5.9915
       130                         -0.2113338              -5.7507
       ...                                ...                  ...
       234                          0.7673480              20.8806
      -------------------------------------------------------------
                  HL-Gap            0.0412020 Eh            1.1212 eV
             Fermi-level           -0.3190462 Eh           -8.6817 eV

     #   Z          covCN         q      C6AA      α(0)
     1   6 C        2.921    -0.040    28.996     8.830
     2   6 C        2.921    -0.039    28.975     8.827
     3   6 C        2.918    -0.036    28.907     8.817
     4   6 C        2.914    -0.030    28.746     8.792
     5   6 C        2.976     0.007    27.866     8.659
     6   6 C        2.984     0.013    27.714     8.635
     7   6 C        2.814     0.101    25.742     8.313
     8   6 C        2.916    -0.037    28.919     8.818
     9   6 C        2.919    -0.037    28.922     8.819
    10   6 C        2.983     0.014    27.696     8.633
    11   6 C        2.881     0.130    25.152     8.222
    12   6 C        2.995    -0.017    28.417     8.744
    13   6 C        2.978     0.004    27.933     8.669
    14   6 C        2.977     0.005    27.896     8.664
    15   6 C        2.989     0.002    27.981     8.677
    16   6 C        2.990    -0.003    28.082     8.693
    17   6 C        2.915    -0.059    29.474     8.903
    18   6 C        2.978     0.012    27.749     8.641
    19   6 C        2.920    -0.046    29.137     8.852
    20   6 C        2.996    -0.004    28.102     8.696
    21   6 C        2.981     0.012    27.731     8.638
    22   6 C        2.988    -0.002    28.060     8.689
    23   6 C        2.989    -0.001    28.038     8.686
    24   6 C        2.987     0.002    27.985     8.678
    25   6 C        2.916    -0.074    29.849     8.959
    26   6 C        2.975     0.006    27.893     8.663
    27   6 C        2.993    -0.015    28.379     8.739
    28   6 C        2.913    -0.030    28.758     8.794
    29   6 C        2.990    -0.004    28.125     8.699
    30   6 C        2.989     0.001    27.986     8.678
    31   6 C        2.904    -0.068    29.683     8.933
    32   6 C        2.872     0.135    25.039     8.203
    33   6 C        2.921    -0.039    28.965     8.826
    34   6 C        2.996     0.006    27.870     8.660
    35   6 C        2.991     0.002    27.973     8.676
    36   6 C        2.977     0.006    27.884     8.662
    37   6 C        2.980     0.001    28.009     8.681
    38   6 C        2.992    -0.009    28.224     8.715
    39   6 C        2.880     0.140    24.944     8.188
    40   6 C        2.914    -0.080    30.004     8.982
    41   6 C        2.978     0.006    27.890     8.663
    42   6 C        2.919    -0.036    28.900     8.816
    43   6 C        2.989     0.002    27.968     8.675
    44   6 C        2.988    -0.002    28.066     8.690
    45   6 C        2.992    -0.001    28.050     8.688
    46   6 C        2.918    -0.030    28.744     8.792
    47   6 C        2.924    -0.052    29.290     8.875
    48   6 C        2.991    -0.001    28.045     8.687
    49   6 C        2.921    -0.038    28.948     8.823
    50   6 C        2.990     0.000    28.009     8.681
    51   6 C        2.985     0.001    28.009     8.681
    52   6 C        2.994    -0.001    28.040     8.686
    53   1 H        0.926     0.032     2.551     2.498
    54   1 H        0.926     0.035     2.523     2.484
    55   1 H        0.926     0.048     2.342     2.393
    56   1 H        0.926     0.038     2.477     2.461
    57   1 H        0.926     0.045     2.380     2.412
    58   1 H        0.926     0.028     2.609     2.526
    59   1 H        0.926     0.031     2.577     2.510
    60   1 H        0.926     0.034     2.529     2.487
    61   1 H        0.926     0.039     2.461     2.453
    62   1 H        0.926     0.031     2.568     2.506
    63   1 H        0.926     0.034     2.527     2.486
    64   1 H        0.926     0.030     2.586     2.515
    65   1 H        0.926     0.053     2.277     2.360
    66   1 H        0.926     0.032     2.559     2.501
    67   1 H        0.926     0.045     2.380     2.412
    68   1 H        0.926     0.043     2.407     2.426
    69   1 H        0.926     0.031     2.569     2.506
    70   1 H        0.926     0.030     2.581     2.512
    71   8 O        1.709    -0.209    17.471     5.643
    72   8 O        1.710    -0.231    17.821     5.700

 Mol. C6AA /au·bohr⁶  :      97665.215213
 Mol. C8AA /au·bohr⁸  :    2622330.945494
 Mol. α(0) /au        :        508.200211


Wiberg/Mayer (AO) data.
largest (>0.10) Wiberg bond orders for each atom

 ---------------------------------------------------------------------------
     #   Z sym  total        # sym  WBO       # sym  WBO       # sym  WBO
 ---------------------------------------------------------------------------
     1   6 C    3.941 --     4 C    1.419     5 C    1.378    62 H    0.962
     2   6 C    3.942 --     4 C    1.465     6 C    1.329    53 H    0.969
     3   6 C    3.969 --     8 C    1.537    14 C    1.303    63 H    0.961
     4   6 C    3.981 --     2 C    1.465     1 C    1.419    64 H    0.971
     5   6 C    3.980 --     1 C    1.378    20 C    1.263    14 C    1.144
     6   6 C    3.984 --     2 C    1.329    20 C    1.249    25 C    1.234
     7   6 C    3.899 --    31 C    1.694    71 O    1.111    65 H    0.959
     8   6 C    3.947 --     3 C    1.537    37 C    1.289    66 H    0.963
     9   6 C    3.972 --    42 C    1.496    36 C    1.338    54 H    0.961
    10   6 C    3.927 --    38 C    1.360    37 C    1.220    31 C    1.150
    11   6 C    3.905 --    40 C    1.554    38 C    1.161    71 O    1.022
    12   6 C    3.980 --    41 C    1.293    39 C    1.278    34 C    1.172
    13   6 C    3.970 --    42 C    1.335    35 C    1.289    41 C    1.141
    14   6 C    3.944 --    43 C    1.306     3 C    1.303     5 C    1.144
    15   6 C    3.976 --    37 C    1.255    44 C    1.248    43 C    1.247
    16   6 C    3.973 --    45 C    1.274    44 C    1.256    38 C    1.222
    17   6 C    3.967 --    46 C    1.400    39 C    1.399    55 H    0.968
    18   6 C    3.987 --    47 C    1.435    40 C    1.199    45 C    1.189
    19   6 C    3.971 --    46 C    1.476    41 C    1.344    56 H    0.963
    20   6 C    3.981 --     5 C    1.263     6 C    1.249    48 C    1.237
    21   6 C    3.985 --    49 C    1.298    47 C    1.284    52 C    1.235
    22   6 C    3.969 --    50 C    1.294    48 C    1.243    43 C    1.204
    23   6 C    3.972 --    51 C    1.300    44 C    1.240    50 C    1.208
    24   6 C    3.979 --    45 C    1.276    52 C    1.246    51 C    1.233
    25   6 C    3.950 --    32 C    1.513     6 C    1.234    57 H    0.966
    26   6 C    3.983 --    33 C    1.395    52 C    1.261    36 C    1.133
    27   6 C    3.962 --    48 C    1.272    34 C    1.270    32 C    1.189
    28   6 C    3.982 --    49 C    1.492    33 C    1.395    58 H    0.970
    29   6 C    3.976 --    34 C    1.296    50 C    1.245    35 C    1.206
    30   6 C    3.982 --    36 C    1.293    35 C    1.259    51 C    1.204
    31   6 C    3.972 --     7 C    1.694    10 C    1.150    67 H    0.961
    32   6 C    3.923 --    25 C    1.513    27 C    1.189    72 O    1.042
    33   6 C    3.928 --    28 C    1.395    26 C    1.395    59 H    0.962
    34   6 C    3.961 --    29 C    1.296    27 C    1.270    12 C    1.172
    35   6 C    3.981 --    13 C    1.289    30 C    1.259    29 C    1.206
    36   6 C    3.959 --     9 C    1.338    30 C    1.293    26 C    1.133
    37   6 C    3.973 --     8 C    1.289    15 C    1.255    10 C    1.220
    38   6 C    3.979 --    10 C    1.360    16 C    1.222    11 C    1.161
    39   6 C    3.921 --    17 C    1.399    12 C    1.278    72 O    1.056
    40   6 C    3.963 --    11 C    1.554    18 C    1.199    68 H    0.965
    41   6 C    3.975 --    19 C    1.344    12 C    1.293    13 C    1.141
    42   6 C    3.963 --     9 C    1.496    13 C    1.335    60 H    0.962
    43   6 C    3.985 --    14 C    1.306    15 C    1.247    22 C    1.204
    44   6 C    3.979 --    16 C    1.256    15 C    1.248    23 C    1.240
    45   6 C    3.965 --    24 C    1.276    16 C    1.274    18 C    1.189
    46   6 C    3.976 --    19 C    1.476    17 C    1.400    61 H    0.970
    47   6 C    3.905 --    18 C    1.435    21 C    1.284    69 H    0.966
    48   6 C    3.977 --    27 C    1.272    22 C    1.243    20 C    1.237
    49   6 C    3.928 --    28 C    1.492    21 C    1.298    70 H    0.969
    50   6 C    3.972 --    22 C    1.294    29 C    1.245    23 C    1.208
    51   6 C    3.955 --    23 C    1.300    24 C    1.233    30 C    1.204
    52   6 C    3.973 --    26 C    1.261    24 C    1.246    21 C    1.235
    53   1 H    0.998 --     2 C    0.969
    54   1 H    0.998 --     9 C    0.961
    55   1 H    0.997 --    17 C    0.968
    56   1 H    0.998 --    19 C    0.963
    57   1 H    0.997 --    25 C    0.966
    58   1 H    0.998 --    28 C    0.970
    59   1 H    0.999 --    33 C    0.962
    60   1 H    0.998 --    42 C    0.962
    61   1 H    0.997 --    46 C    0.970
    62   1 H    0.999 --     1 C    0.962
    63   1 H    0.998 --     3 C    0.961
    64   1 H    0.998 --     4 C    0.971
    65   1 H    0.996 --     7 C    0.959
    66   1 H    0.998 --     8 C    0.963
    67   1 H    0.997 --    31 C    0.961
    68   1 H    0.997 --    40 C    0.965
    69   1 H    0.998 --    47 C    0.966
    70   1 H    0.998 --    49 C    0.969
    71   8 O    2.376 --     7 C    1.111    11 C    1.022
    72   8 O    2.349 --    39 C    1.056    32 C    1.042
 ---------------------------------------------------------------------------

Topologies differ in total number of bonds
Writing topology from bond orders to xtbtopo.mol

molecular dipole:
                 x           y           z       tot (Debye)
 q only:        0.164       0.284      -0.000
   full:        0.175       0.396      -0.000       1.101
molecular quadrupole (traceless):
                xx          xy          yy          xz          yz          zz
 q only:       -8.676       5.933      18.315      -0.001      -0.000      -9.639
  q+dip:        3.170       7.176      30.838      -0.001      -0.000     -34.008
   full:       -7.298       7.626      21.584      -0.001      -0.000     -14.286


           -------------------------------------------------
          | TOTAL ENERGY             -128.978135213747 Eh   |
          | GRADIENT NORM               0.000236651270 Eh/α |
          | HOMO-LUMO GAP               1.121163714661 eV   |
           -------------------------------------------------

------------------------------------------------------------------------
 * finished run on 2025/12/08 at 00:34:24.989     
------------------------------------------------------------------------
 total:
 * wall-time:     0 d,  0 h,  0 min,  0.127 sec
 *  cpu-time:     0 d,  0 h,  0 min,  1.562 sec
 * ratio c/w:    12.303 speedup
 SCF:
 * wall-time:     0 d,  0 h,  0 min,  0.084 sec
 *  cpu-time:     0 d,  0 h,  0 min,  1.328 sec
 * ratio c/w:    15.811 speedup

normal termination of xtb
