      -----------------------------------------------------------      
     |                   =====================                   |     
     |                           x T B                           |     
     |                   =====================                   |     
     |                         S. Grimme                         |     
     |          Mulliken Center for Theoretical Chemistry        |     
     |                    University of Bonn                     |     
      -----------------------------------------------------------      

   * xtb version 6.7.1pre (5071a88) compiled by 'Marcel@Raven' on 2024-07-23

   xtb is free software: you can redistribute it and/or modify it under
   the terms of the GNU Lesser General Public License as published by
   the Free Software Foundation, either version 3 of the License, or
   (at your option) any later version.
   
   xtb is distributed in the hope that it will be useful,
   but WITHOUT ANY WARRANTY; without even the implied warranty of
   MERCHANTABILITY or FITNESS FOR A PARTICULAR PURPOSE.  See the
   GNU Lesser General Public License for more details.
   
   Cite this work as:
   * C. Bannwarth, E. Caldeweyher, S. Ehlert, A. Hansen, P. Pracht,
     J. Seibert, S. Spicher, S. Grimme, WIREs Comput. Mol. Sci., 2020, 11,
     e01493. DOI: 10.1002/wcms.1493
   
   for GFN2-xTB:
   * C. Bannwarth, S. Ehlert and S. Grimme., J. Chem. Theory Comput., 2019,
     15, 1652-1671. DOI: 10.1021/acs.jctc.8b01176
   for GFN1-xTB:
   * S. Grimme, C. Bannwarth, P. Shushkov, J. Chem. Theory Comput., 2017,
     13, 1989-2009. DOI: 10.1021/acs.jctc.7b00118
   for GFN0-xTB:
   * P. Pracht, E. Caldeweyher, S. Ehlert, S. Grimme, ChemRxiv, 2019, preprint.
     DOI: 10.26434/chemrxiv.8326202.v1
   for GFN-FF:
   * S. Spicher and S. Grimme, Angew. Chem. Int. Ed., 2020, 59, 15665-15673.
     DOI: 10.1002/anie.202004239
   
   for ALPB and GBSA implicit solvation:
   * S. Ehlert, M. Stahn, S. Spicher, S. Grimme, J. Chem. Theory Comput.,
     2021, 17, 4250-4261. DOI: 10.1021/acs.jctc.1c00471
   
   for ddCOSMO and CPCM-X implicit solvation:
   * M. Stahn, S. Ehlert, S. Grimme, J. Phys. Chem. A,
     2023, XX, XXXX-XXXX. DOI: 10.1021/acs.jpca.3c04382
   
   for DFT-D4:
   * E. Caldeweyher, C. Bannwarth and S. Grimme, J. Chem. Phys., 2017,
     147, 034112. DOI: 10.1063/1.4993215
   * E. Caldeweyher, S. Ehlert, A. Hansen, H. Neugebauer, S. Spicher,
     C. Bannwarth and S. Grimme, J. Chem. Phys., 2019, 150, 154122.
     DOI: 10.1063/1.5090222
   * E. Caldeweyher, J.-M. Mewes, S. Ehlert and S. Grimme, Phys. Chem. Chem. Phys.
     2020, 22, 8499-8512. DOI: 10.1039/D0CP00502A
   
   for sTDA-xTB:
   * S. Grimme and C. Bannwarth, J. Chem. Phys., 2016, 145, 054103.
     DOI: 10.1063/1.4959605
   
   in the mass-spec context:
   * V. Asgeirsson, C. Bauer and S. Grimme, Chem. Sci., 2017, 8, 4879.
     DOI: 10.1039/c7sc00601b
   * J. Koopman and S. Grimme, ACS Omega 2019, 4, 12, 15120-15133.
     DOI: 10.1021/acsomega.9b02011
   
   for metadynamics refer to:
   * S. Grimme, J. Chem. Theory Comput., 2019, 155, 2847-2862
     DOI: 10.1021/acs.jctc.9b00143
   
   for SPH calculations refer to:
   * S. Spicher and S. Grimme, J. Chem. Theory Comput., 2021, 17, 1701-1714
     DOI: 10.1021/acs.jctc.0c01306
   
   for ONIOM refer to:
   * C. Plett, A. Katbashev, S. Ehlert, S. Grimme, M. Bursch,
     Phys. Chem. Chem. Phys., 2023, 25, 17860-17868. DOI: 10.1039/D3CP02178E
   
   for DIPRO refer to:
   * J. Kohn, N. Gildemeister, S. Grimme, D. Fazzi, A. Hansen,
     J. Chem. Phys., 2023, just accepted.
   
   for PTB refer to:
   * S. Grimme, M. Mueller, A. Hansen, J. Chem. Phys., 2023, 158, 124111.
     DOI: 10.1063/5.0137838
   
   with help from (in alphabetical order)
   P. Atkinson, C. Bannwarth, F. Bohle, G. Brandenburg, E. Caldeweyher
   M. Checinski, S. Dohm, S. Ehlert, S. Ehrlich, I. Gerasimov, C. Hölzer
   A. Katbashev, J. Kohn, J. Koopman, C. Lavigne, S. Lehtola, F. März, M. Müller,
   F. Musil, H. Neugebauer, J. Pisarek, C. Plett, P. Pracht, F. Pultar,
   J. Seibert, P. Shushkov, S. Spicher, M. Stahn, M. Steiner, T. Strunk,
   J. Stückrath, T. Rose, and J. Unsleber
   
 * started run on 2025/12/08 at 00:34:23.237     
   ID    Z sym.   atoms
    1    6 C      1-52
    2    1 H      53-70
    3    8 O      71, 72

           -------------------------------------------------
          |                Calculation Setup                |
           -------------------------------------------------

          program call               : xtb "C:\Users\LENOVO GAMING\Documents\GitHub\molecular-conductivity-sim\dataset\1nm-2Odoped-3percent.xyz" --opt --parallel 4
          coordinate file            : C:\Users\LENOVO GAMING\Documents\GitHub\molecular-conductivity-sim\dataset\1nm-2Odoped-3percent.xyz
          omp threads                :                     4


           -------------------------------------------------
          |                 G F N 2 - x T B                 |
           -------------------------------------------------

        Reference                      10.1021/acs.jctc.8b01176
      * Hamiltonian:
        H0-scaling (s, p, d)           1.850000    2.230000    2.230000
        zeta-weighting                 0.500000
      * Dispersion:
        s8                             2.700000
        a1                             0.520000
        a2                             5.000000
        s9                             5.000000
      * Repulsion:
        kExp                           1.500000    1.000000
        rExp                           1.000000
      * Coulomb:
        alpha                          2.000000
        third order                    shell-resolved
        anisotropic                    true
        a3                             3.000000
        a5                             4.000000
        cn-shift                       1.200000
        cn-exp                         4.000000
        max-rad                        5.000000


          ...................................................
          :                      SETUP                      :
          :.................................................:
          :  # basis functions                 234          :
          :  # atomic orbitals                 234          :
          :  # shells                          126          :
          :  # electrons                       238          :
          :  max. iterations                   250          :
          :  Hamiltonian                  GFN2-xTB          :
          :  restarted?                      false          :
          :  GBSA solvation                  false          :
          :  PC potential                    false          :
          :  electronic temp.          300.0000000     K    :
          :  accuracy                    1.0000000          :
          :  -> integral cutoff          0.2500000E+02      :
          :  -> integral neglect         0.1000000E-07      :
          :  -> SCF convergence          0.1000000E-05 Eh   :
          :  -> wf. convergence          0.1000000E-03 e    :
          :  Broyden damping             0.4000000          :
          :  net charge                          0          :
          :  unpaired electrons                  0          :
          ...................................................

 iter      E             dE          RMSdq      gap      omega  full diag
   1   -131.1484508 -0.131148E+03  0.496E+00    1.16       0.0  T
   2   -131.1800929 -0.316421E-01  0.313E+00    1.12       1.0  T
   3   -130.9953057  0.184787E+00  0.190E+00    1.32       1.0  T
   4   -131.2218770 -0.226571E+00  0.384E-01    1.10       1.0  T
   5   -131.2305253 -0.864834E-02  0.198E-01    1.15       1.0  T
   6   -131.2332054 -0.268008E-02  0.608E-02    1.13       1.0  T
   7   -131.2333500 -0.144570E-03  0.288E-02    1.13       1.0  T
   8   -131.2333693 -0.193022E-04  0.135E-02    1.13       1.0  T
   9   -131.2333785 -0.918553E-05  0.533E-03    1.13       2.2  T
  10   -131.2333797 -0.122644E-05  0.169E-03    1.13       7.0  T
  11   -131.2333799 -0.142570E-06  0.770E-04    1.13      15.3  T
  12   -131.2333799 -0.243599E-07  0.405E-04    1.13      29.1  T

   *** convergence criteria satisfied after 12 iterations ***

         #    Occupation            Energy/Eh            Energy/eV
      -------------------------------------------------------------
         1        2.0000           -0.7363145             -20.0361
       ...           ...                  ...                  ...
       113        2.0000           -0.3955722             -10.7641
       114        2.0000           -0.3943968             -10.7321
       115        2.0000           -0.3914272             -10.6513
       116        2.0000           -0.3809541             -10.3663
       117        2.0000           -0.3676514             -10.0043
       118        2.0000           -0.3564598              -9.6998
       119        2.0000           -0.3403289              -9.2608 (HOMO)
       120                         -0.2988555              -8.1323 (LUMO)
       121                         -0.2749017              -7.4805
       122                         -0.2670711              -7.2674
       123                         -0.2561203              -6.9694
       124                         -0.2439422              -6.6380
       ...                                ...                  ...
       234                          0.7353773              20.0106
      -------------------------------------------------------------
                  HL-Gap            0.0414734 Eh            1.1285 eV
             Fermi-level           -0.3195922 Eh           -8.6965 eV

 SCC (total)                   0 d,  0 h,  0 min,  0.251 sec
 SCC setup                      ...        0 min,  0.001 sec (  0.398%)
 Dispersion                     ...        0 min,  0.002 sec (  0.797%)
 classical contributions        ...        0 min,  0.001 sec (  0.398%)
 integral evaluation            ...        0 min,  0.013 sec (  5.179%)
 iterations                     ...        0 min,  0.179 sec ( 71.315%)
 molecular gradient             ...        0 min,  0.053 sec ( 21.116%)
 printout                       ...        0 min,  0.002 sec (  0.797%)

         :::::::::::::::::::::::::::::::::::::::::::::::::::::
         ::                     SUMMARY                     ::
         :::::::::::::::::::::::::::::::::::::::::::::::::::::
         :: total energy            -128.970200862815 Eh    ::
         :: gradient norm              0.041411370745 Eh/a0 ::
         :: HOMO-LUMO gap              1.128548723484 eV    ::
         ::.................................................::
         :: SCC energy              -131.235432435200 Eh    ::
         :: -> isotropic ES            0.025009112279 Eh    ::
         :: -> anisotropic ES          0.008552983059 Eh    ::
         :: -> anisotropic XC          0.049405254253 Eh    ::
         :: -> dispersion             -0.133000699969 Eh    ::
         :: repulsion energy           2.265231572385 Eh    ::
         :: add. restraining           0.000000000000 Eh    ::
         :: total charge              -0.000000000000 e     ::
         :::::::::::::::::::::::::::::::::::::::::::::::::::::

      ----------------------------------------------------------- 
     |                   =====================                   |
     |                        A N C O P T                        |
     |                   =====================                   |
     |               Approximate Normal Coordinate               |
     |                Rational Function Optimizer                |
      ----------------------------------------------------------- 
      ----------------------------------------------------------- 
     |                   =====================                   |
     |                        A N C O P T                        |
     |                   =====================                   |
     |               Approximate Normal Coordinate               |
     |                Rational Function Optimizer                |
      ----------------------------------------------------------- 

          ...................................................
          :                      SETUP                      :
          :.................................................:
          :   optimization level            normal          :
          :   max. optcycles                   216          :
          :   ANC micro-cycles                  20          :
          :   degrees of freedom               210          :
          :.................................................:
          :   RF solver                   davidson          :
          :   write xtbopt.log                true          :
          :   linear?                        false          :
          :   energy convergence         0.5000000E-05 Eh   :
          :   grad. convergence          0.1000000E-02 Eh/α :
          :   maxmium RF displ.          1.0000000          :
          :   Hlow (freq-cutoff)         0.1000000E-01      :
          :   Hmax (freq-cutoff)         5.0000000          :
          :   S6 in model hess.         20.0000000          :
          ...................................................

generating ANC from exact Hessian ...
Using Lindh-Hessian (1995)
 Shifting diagonal of input Hessian by   9.670048499613006E-003
 Lowest  eigenvalues of input Hessian
    0.000000    0.000000    0.000000    0.000000    0.000000    0.000000
    0.010000    0.010312    0.010755    0.011058    0.011439    0.012932
    0.013694    0.014478    0.015209    0.016278    0.017098    0.018008
 Highest eigenvalues
    2.040288    2.054011    2.081906    2.122245    2.141288    2.157474
 

........................................................................
.............................. CYCLE    1 ..............................
........................................................................

 iter      E             dE          RMSdq      gap      omega  full diag
   1   -131.2333799 -0.131233E+03  0.160E-04    1.13       0.0  T
   2   -131.2333799 -0.265629E-09  0.123E-04    1.13      95.4  T
   3   -131.2333799 -0.102389E-08  0.631E-05    1.13     186.8  T
     SCC iter.                  ...        0 min,  0.042 sec
     gradient                   ...        0 min,  0.045 sec
 * total energy  :  -128.9702009 Eh     change       -0.3243628E-08 Eh
   gradient norm :     0.0414161 Eh/α   predicted     0.0000000E+00 (-100.00%)
   displ. norm   :     0.3630397 α      lambda       -0.9562725E-02
   maximum displ.:     0.2992241 α      in ANC's #33, #47, #16, ...

........................................................................
.............................. CYCLE    2 ..............................
........................................................................

 iter      E             dE          RMSdq      gap      omega  full diag
   1   -131.3277915 -0.131328E+03  0.129E-01    1.13       0.0  T
   2   -131.3278185 -0.269416E-04  0.779E-02    1.13       1.0  T
   3   -131.3277172  0.101283E-03  0.567E-02    1.13       1.0  T
   4   -131.3278445 -0.127309E-03  0.145E-02    1.13       1.0  T
   5   -131.3278605 -0.159821E-04  0.538E-03    1.13       2.2  T
   6   -131.3278627 -0.223194E-05  0.129E-03    1.13       9.1  T
   7   -131.3278628 -0.603447E-07  0.668E-04    1.13      17.7  T
   8   -131.3278628 -0.121476E-07  0.279E-04    1.13      42.2  T
     SCC iter.                  ...        0 min,  0.123 sec
     gradient                   ...        0 min,  0.046 sec
 * total energy  :  -128.9768118 Eh     change       -0.6610978E-02 Eh
   gradient norm :     0.0180786 Eh/α   predicted    -0.5411650E-02 ( -18.14%)
   displ. norm   :     0.2461597 α      lambda       -0.2398622E-02
   maximum displ.:     0.2039563 α      in ANC's #33, #16, #35, ...

........................................................................
.............................. CYCLE    3 ..............................
........................................................................

 iter      E             dE          RMSdq      gap      omega  full diag
   1   -131.3810215 -0.131381E+03  0.835E-02    1.13       0.0  T
   2   -131.3810422 -0.207520E-04  0.525E-02    1.12       1.0  T
   3   -131.3810209  0.212961E-04  0.380E-02    1.13       1.0  T
   4   -131.3810647 -0.437522E-04  0.130E-02    1.12       1.0  T
   5   -131.3810772 -0.124745E-04  0.458E-03    1.13       2.6  T
   6   -131.3810788 -0.166929E-05  0.103E-03    1.13      11.5  T
   7   -131.3810789 -0.624848E-07  0.445E-04    1.13      26.5  T
   8   -131.3810789 -0.354243E-08  0.219E-04    1.13      53.7  T
     SCC iter.                  ...        0 min,  0.115 sec
     gradient                   ...        0 min,  0.047 sec
 * total energy  :  -128.9780980 Eh     change       -0.1286110E-02 Eh
   gradient norm :     0.0051450 Eh/α   predicted    -0.1272176E-02 (  -1.08%)
   displ. norm   :     0.0313362 α      lambda       -0.4876792E-04
   maximum displ.:     0.0201021 α      in ANC's #16, #33, #27, ...

........................................................................
.............................. CYCLE    4 ..............................
........................................................................

 iter      E             dE          RMSdq      gap      omega  full diag
   1   -131.3832977 -0.131383E+03  0.126E-02    1.12       0.0  T
   2   -131.3832985 -0.745651E-06  0.846E-03    1.12       1.4  T
   3   -131.3832987 -0.221945E-06  0.551E-03    1.12       2.1  T
   4   -131.3832994 -0.703806E-06  0.240E-03    1.12       4.9  T
   5   -131.3832998 -0.384865E-06  0.830E-04    1.12      14.2  T
   6   -131.3832999 -0.548180E-07  0.194E-04    1.12      60.6  T
     SCC iter.                  ...        0 min,  0.093 sec
     gradient                   ...        0 min,  0.050 sec
 * total energy  :  -128.9781291 Eh     change       -0.3111993E-04 Eh
   gradient norm :     0.0022318 Eh/α   predicted    -0.2446608E-04 ( -21.38%)
   displ. norm   :     0.0121333 α      lambda       -0.9373766E-05
   maximum displ.:     0.0076535 α      in ANC's #16, #27, #12, ...

........................................................................
.............................. CYCLE    5 ..............................
........................................................................

 iter      E             dE          RMSdq      gap      omega  full diag
   1   -131.3826415 -0.131383E+03  0.671E-03    1.12       0.0  T
   2   -131.3826417 -0.177208E-06  0.423E-03    1.12       2.8  T
   3   -131.3826416  0.610784E-07  0.293E-03    1.12       4.0  T
   4   -131.3826419 -0.252054E-06  0.100E-03    1.12      11.8  T
   5   -131.3826419 -0.643211E-07  0.393E-04    1.12      30.0  T
   6   -131.3826420 -0.131982E-07  0.803E-05    1.12     146.7  T
     SCC iter.                  ...        0 min,  0.086 sec
     gradient                   ...        0 min,  0.043 sec
 * total energy  :  -128.9781346 Eh     change       -0.5553627E-05 Eh
   gradient norm :     0.0006919 Eh/α   predicted    -0.4769554E-05 ( -14.12%)
   displ. norm   :     0.0044832 α      lambda       -0.7510480E-06
   maximum displ.:     0.0023987 α      in ANC's #33, #47, #46, ...

........................................................................
.............................. CYCLE    6 ..............................
........................................................................

 iter      E             dE          RMSdq      gap      omega  full diag
   1   -131.3820185 -0.131382E+03  0.302E-03    1.12       0.0  T
   2   -131.3820185 -0.216043E-07  0.183E-03    1.12       6.4  T
   3   -131.3820185  0.180939E-07  0.128E-03    1.12       9.2  T
   4   -131.3820185 -0.570371E-07  0.105E-04    1.12     112.1  T
   5   -131.3820185 -0.432976E-09  0.556E-05    1.12     212.1  T
     SCC iter.                  ...        0 min,  0.077 sec
     gradient                   ...        0 min,  0.043 sec
 * total energy  :  -128.9781352 Eh     change       -0.5861734E-06 Eh
   gradient norm :     0.0002372 Eh/α   predicted    -0.4457296E-06 ( -23.96%)
   displ. norm   :     0.0016649 α      lambda       -0.8158622E-07
   maximum displ.:     0.0011384 α      in ANC's #16, #27, #12, ...

   *** GEOMETRY OPTIMIZATION CONVERGED AFTER 6 ITERATIONS ***

------------------------------------------------------------------------
 total energy gain   :        -0.0079344 Eh       -4.9789 kcal/mol
 total RMSD          :         0.0741128 a0        0.0392 Å
 total power (kW/mol):        -3.4719392 (step)  -17.9738 (real)
------------------------------------------------------------------------

 ANCopt (total)                0 d,  0 h,  0 min,  1.159 sec
 optimizer setup                ...        0 min,  0.001 sec (  0.086%)
 model hessian                  ...        0 min,  0.046 sec (  3.969%)
 ANC generation                 ...        0 min,  0.007 sec (  0.604%)
 coordinate transformation      ...        0 min,  0.001 sec (  0.086%)
 single point calculation       ...        0 min,  0.919 sec ( 79.293%)
 optimization log               ...        0 min,  0.181 sec ( 15.617%)
 hessian update                 ...        0 min,  0.001 sec (  0.086%)
 rational function              ...        0 min,  0.001 sec (  0.086%)

================
 final structure:
================
72
 xtb: 6.7.1pre (5071a88)
C           -3.53810206847876        4.91119176928869        0.00021395152748
C           -5.61488387939821        3.70202080711629        0.00019665459440
C           -0.58958422603891        4.88312221250151       -0.00021397682349
C           -4.92359267510681        4.89297953669506        0.00028584737118
C           -2.79810026815232        3.72872666760443        0.00005212374937
C           -4.92335088463665        2.48577330727684        0.00008027989917
C            5.08765286600065        4.65400501471002       -0.00003599684141
C            0.77590532486429        4.86206332329648       -0.00025284195728
C            0.58193884786309       -4.89522460486670       -0.00003792146313
C            2.91519540268008        3.61039081728691       -0.00009399260310
C            5.00616867403750        2.32563614168050        0.00002991976926
C           -3.58744831095519       -2.37628059564782       -0.00003018660093
C           -1.50065629792078       -3.66414326153049       -0.00003623399498
C           -1.35191175299626        3.70198456591183       -0.00006414961871
C            0.75805729687091        2.43896031870179       -0.00007775701695
C            2.85046326482608        1.15940333977703       -0.00001161105532
C           -5.76007271465044       -3.43991275280361        0.00002651674427
C            4.96321398018897       -0.09395776368547        0.00008450962879
C           -3.75409419901599       -4.77612900973523        0.00001571137222
C           -3.50398559950417        2.50032950958739        0.00002685570739
C            4.92396821665114       -2.52615903238164        0.00009456330483
C           -1.38470597783316        1.24290181983317       -0.00003300416946
C            0.71659346248200       -0.02501059253135       -0.00002353491251
C            2.81068410267597       -1.28653413863765        0.00002525494792
C           -5.61603622849176        1.24856623834744        0.00004079642740
C            2.79432639528704       -3.75139504333045        0.00001988888109
C           -3.51120072925459        0.05600588956936       -0.00003345886854
C            4.91216046196074       -4.93527784941853        0.00007162726858
C           -1.42582262160661       -1.20602203845931       -0.00003836946723
C            0.66322412466503       -2.48830787747177       -0.00001837441043
C            3.75290384542153        4.78372990951532       -0.00009426577639
C           -4.93377903096438        0.06752823808813       -0.00001111793506
C            3.52309664723510       -4.93757867654836        0.00002894999912
C           -2.82497822249445       -1.17032827373779       -0.00004294954940
C           -0.75555777742864       -2.46242208896445       -0.00003330267124
C            1.34673108344671       -3.72326788690409       -0.00001381778439
C            1.49372711779476        3.65245756511155       -0.00013843433407
C            3.57369662370963        2.38071028761651       -0.00002541251742
C           -4.99122939456924       -2.28986543034685       -0.00001202308736
C            5.67017468047274        1.14161171281055        0.00009025179366
C           -2.94764154976084       -3.63080576337282       -0.00002136500955
C           -0.78937213400724       -4.86855324724176       -0.00004803488579
C           -0.66268128058782        2.47206946779888       -0.00005529860140
C            1.43792022478261        1.19444798559135       -0.00003693607437
C            3.53393437081850       -0.07393130456398        0.00003360182967
C           -5.12810329543254       -4.67578881643690        0.00004227230312
C            5.62132497943958       -1.30559008282228        0.00012080094953
C           -2.80043115866501        1.27113460175996       -0.00002516019915
C            5.60867999955001       -3.75279968210885        0.00010840794640
C           -0.70429507553805        0.01088671941546       -0.00003426268779
C            1.39115681255993       -1.25952722826275       -0.00000675096382
C            3.50203765039087       -2.52350887996616        0.00004757188896
H           -6.69475211474019        3.69378409513532        0.00023615450551
H            1.06796378014121       -5.85722395568747       -0.00004528832265
H           -6.83488441987682       -3.35679914735830        0.00004792540034
H           -3.30979251250898       -5.75766907459860        0.00003109086202
H           -6.69466186251086        1.24348043022497        0.00006850804889
H            5.44205364011433       -5.87696457601377        0.00007840410965
H            3.02057624851729       -5.89101878196681        0.00000262745686
H           -1.31807175261811       -5.80797812755552       -0.00006605055335
H           -5.72877477582616       -5.57301904493847        0.00007902065519
H           -3.04407161124071        5.86908703235523        0.00030564408221
H           -1.08356450106903        5.84105429896447       -0.00031880442577
H           -5.46427835059519        5.82847090419691        0.00041408818335
H            5.77123488006039        5.49050252674404       -0.00002784938740
H            1.30655712967400        5.80076751049771       -0.00037910705512
H            3.32634093325295        5.77017173889557       -0.00012871603426
H            6.74854726507231        1.13293847571397        0.00013383650624
H            6.70167542509823       -1.32497873062124        0.00016275517854
H            6.68888203678323       -3.74824744477269        0.00014579020934
O            5.74355390008845        3.48342343025043        0.00002124780801
O           -5.64456744100300       -1.09710240458115       -0.00002309325072
 
 Bond Distances (Angstroems)
 ---------------------------
C1-C4=1.3856         C1-C5=1.3949         C1-H62=1.0778        C2-C4=1.3770         C2-C6=1.3991         C2-H53=1.0799        
C3-C8=1.3657         C3-C14=1.4058        C3-H63=1.0778        C4-C1=1.3856         C4-C2=1.3770         C4-H64=1.0805        
C5-C1=1.3949         C5-C14=1.4464        C5-C20=1.4168        C6-C2=1.3991         C6-C20=1.4194        C6-C25=1.4179        
C7-C31=1.3410        C7-H65=1.0803        C7-O71=1.3418        C8-C3=1.3657         C8-C37=1.4066        C8-H66=1.0783        
C9-C36=1.3994        C9-C42=1.3716        C9-H54=1.0778        C10-C31=1.4417       C10-C37=1.4221       C10-C38=1.3949       
C11-C38=1.4335       C11-C40=1.3575       C11-O71=1.3727       C12-C34=1.4268       C12-C39=1.4064       C12-C41=1.4083       
C13-C35=1.4140       C13-C41=1.4474       C13-C42=1.3988       C14-C3=1.4058        C14-C5=1.4464        C14-C43=1.4099       
C15-C37=1.4191       C15-C43=1.4211       C15-C44=1.4181       C16-C38=1.4194       C16-C44=1.4130       C16-C45=1.4101       
C17-C39=1.3834       C17-C46=1.3881       C17-H55=1.0780       C18-C40=1.4235       C18-C45=1.4294       C18-C47=1.3788       
C19-C41=1.4008       C19-C46=1.3777       C19-H56=1.0774       C20-C5=1.4168        C20-C6=1.4194        C20-C48=1.4163       
C21-C47=1.4057       C21-C49=1.4048       C21-C52=1.4219       C22-C43=1.4255       C22-C48=1.4160       C22-C50=1.4074       
C23-C44=1.4168       C23-C50=1.4213       C23-C51=1.4068       C24-C45=1.4119       C24-C51=1.4198       C24-C52=1.4171       
C25-C6=1.4179        C25-C32=1.3639       C25-H57=1.0786       C26-C33=1.3922       C26-C36=1.4479       C26-C52=1.4172       
C27-C32=1.4226       C27-C34=1.4053       C27-C48=1.4077       C28-C33=1.3891       C28-C49=1.3724       C28-H58=1.0805       
C29-C34=1.3996       C29-C35=1.4240       C29-C50=1.4147       C30-C35=1.4190       C30-C36=1.4115       C30-C51=1.4282       
C31-C7=1.3410        C31-C10=1.4417       C31-H67=1.0747       C32-C25=1.3639       C32-C27=1.4226       C32-O72=1.3644       
C33-C26=1.3922       C33-C28=1.3891       C33-H59=1.0778       C34-C12=1.4268       C34-C27=1.4053       C34-C29=1.3996       
C35-C13=1.4140       C35-C29=1.4240       C35-C30=1.4190       C36-C9=1.3994        C36-C26=1.4479       C36-C30=1.4115       
C37-C8=1.4066        C37-C10=1.4221       C37-C15=1.4191       C38-C10=1.3949       C38-C11=1.4335       C38-C16=1.4194       
C39-C12=1.4064       C39-C17=1.3834       C39-O72=1.3600       C40-C11=1.3575       C40-C18=1.4235       C40-H68=1.0784       
C41-C12=1.4083       C41-C13=1.4474       C41-C19=1.4008       C42-C9=1.3716        C42-C13=1.3988       C42-H60=1.0780       
C43-C14=1.4099       C43-C15=1.4211       C43-C22=1.4255       C44-C15=1.4181       C44-C16=1.4130       C44-C23=1.4168       
C45-C16=1.4101       C45-C18=1.4294       C45-C24=1.4119       C46-C17=1.3881       C46-C19=1.3777       C46-H61=1.0797       
C47-C18=1.3788       C47-C21=1.4057       C47-H69=1.0805       C48-C20=1.4163       C48-C22=1.4160       C48-C27=1.4077       
C49-C21=1.4048       C49-C28=1.3724       C49-H70=1.0802       C50-C22=1.4074       C50-C23=1.4213       C50-C29=1.4147       
C51-C23=1.4068       C51-C24=1.4198       C51-C30=1.4282       C52-C21=1.4219       C52-C24=1.4171       C52-C26=1.4172       
H53-C2=1.0799        H54-C9=1.0778        H55-C17=1.0780       H56-C19=1.0774       H57-C25=1.0786       H58-C28=1.0805       
H59-C33=1.0778       H60-C42=1.0780       H61-C46=1.0797       H62-C1=1.0778        H63-C3=1.0778        H64-C4=1.0805        
H65-C7=1.0803        H66-C8=1.0783        H67-C31=1.0747       H68-C40=1.0784       H69-C47=1.0805       H70-C49=1.0802       
O71-C7=1.3418        O71-C11=1.3727       O72-C32=1.3644       O72-C39=1.3600       
 C  H  Rav=1.0787 sigma=0.0015  Rmin=1.0747  Rmax=1.0805    18
 C  C  Rav=1.4074 sigma=0.0211  Rmin=1.3410  Rmax=1.4479    67
 O  C  Rav=1.3597 sigma=0.0113  Rmin=1.3418  Rmax=1.3727     4
 
 selected bond angles (degree)
 --------------------
C5-C1-C4=121.29                H62-C1-C4=118.04               H62-C1-C5=120.68               C6-C2-C4=120.25                
H53-C2-C4=120.57               H53-C2-C6=119.18               C14-C3-C8=121.96               H63-C3-C8=118.16               
H63-C3-C14=119.88              C2-C4-C1=120.89                H64-C4-C1=119.27               H64-C4-C2=119.84               
C14-C5-C1=123.10               C20-C5-C1=118.08               C20-C5-C14=118.82              C20-C6-C2=119.03               
C25-C6-C2=121.13               C25-C6-C20=119.83              H65-C7-C31=123.70              O71-C7-C31=124.81              
O71-C7-H65=111.48              C37-C8-C3=121.57               H66-C8-C3=118.60               H66-C8-C37=119.83              
C42-C9-C36=122.01              H54-C9-C36=120.07              H54-C9-C42=117.92              C37-C10-C31=123.83             
C38-C10-C31=116.31             C38-C10-C37=119.86             
 
 selected dihedral angles (degree)
 ---------------------------------
C2-C4-C1-C5=  0.00            C2-C4-C1-H62=180.00           H64-C4-C1-C5=180.00           H64-C4-C1-H62=  0.00          
C1-C4-C2-C6=  0.00            C1-C4-C2-H53=180.00           H64-C4-C2-C6=180.00           H64-C4-C2-H53=  0.00          
C14-C5-C1-C4=180.00           C14-C5-C1-H62=  0.00          C20-C5-C1-C4=  0.00           C20-C5-C1-H62=180.00          
C20-C6-C2-C4=  0.00           C20-C6-C2-H53=180.00          C25-C6-C2-C4=180.00           C25-C6-C2-H53=  0.00          
C37-C8-C3-C14=  0.00          C37-C8-C3-H63=180.00          H66-C8-C3-C14=180.00          H66-C8-C3-H63=  0.00          
           -------------------------------------------------
          |                Final Singlepoint                |
           -------------------------------------------------

          ...................................................
          :                      SETUP                      :
          :.................................................:
          :  # basis functions                 234          :
          :  # atomic orbitals                 234          :
          :  # shells                          126          :
          :  # electrons                       238          :
          :  max. iterations                   250          :
          :  Hamiltonian                  GFN2-xTB          :
          :  restarted?                      false          :
          :  GBSA solvation                  false          :
          :  PC potential                    false          :
          :  electronic temp.          300.0000000     K    :
          :  accuracy                    1.0000000          :
          :  -> integral cutoff          0.2500000E+02      :
          :  -> integral neglect         0.1000000E-07      :
          :  -> SCF convergence          0.1000000E-05 Eh   :
          :  -> wf. convergence          0.1000000E-03 e    :
          :  Broyden damping             0.4000000          :
          :  net charge                          0          :
          :  unpaired electrons                  0          :
          ...................................................

 iter      E             dE          RMSdq      gap      omega  full diag
   1   -131.3820185 -0.131382E+03  0.195E-05    1.12       0.0  T
   2   -131.3820185  0.175930E-10  0.222E-05    1.12     531.7  T
   3   -131.3820185 -0.370903E-10  0.768E-06    1.12    1535.2  T

   *** convergence criteria satisfied after 3 iterations ***

         #    Occupation            Energy/Eh            Energy/eV
      -------------------------------------------------------------
         1        2.0000           -0.7417662             -20.1845
       ...           ...                  ...                  ...
       113        2.0000           -0.3941119             -10.7243
       114        2.0000           -0.3932873             -10.7019
       115        2.0000           -0.3926586             -10.6848
       116        2.0000           -0.3817758             -10.3886
       117        2.0000           -0.3679870             -10.0134
       118        2.0000           -0.3561301              -9.6908
       119        2.0000           -0.3396472              -9.2423 (HOMO)
       120                         -0.2984452              -8.1211 (LUMO)
       121                         -0.2735818              -7.4445
       122                         -0.2656837              -7.2296
       123                         -0.2546707              -6.9299
       124                         -0.2421599              -6.5895
       ...                                ...                  ...
       234                          0.7673480              20.8806
      -------------------------------------------------------------
                  HL-Gap            0.0412020 Eh            1.1212 eV
             Fermi-level           -0.3190462 Eh           -8.6817 eV

 SCC (total)                   0 d,  0 h,  0 min,  0.112 sec
 SCC setup                      ...        0 min,  0.001 sec (  0.893%)
 Dispersion                     ...        0 min,  0.002 sec (  1.786%)
 classical contributions        ...        0 min,  0.000 sec (  0.000%)
 integral evaluation            ...        0 min,  0.015 sec ( 13.393%)
 iterations                     ...        0 min,  0.042 sec ( 37.500%)
 molecular gradient             ...        0 min,  0.050 sec ( 44.643%)
 printout                       ...        0 min,  0.002 sec (  1.786%)

         :::::::::::::::::::::::::::::::::::::::::::::::::::::
         ::                     SUMMARY                     ::
         :::::::::::::::::::::::::::::::::::::::::::::::::::::
         :: total energy            -128.978135213746 Eh    ::
         :: gradient norm              0.000236654302 Eh/a0 ::
         :: HOMO-LUMO gap              1.121163437302 eV    ::
         ::.................................................::
         :: SCC energy              -131.384080678691 Eh    ::
         :: -> isotropic ES            0.023835053333 Eh    ::
         :: -> anisotropic ES          0.008895088159 Eh    ::
         :: -> anisotropic XC          0.045721254042 Eh    ::
         :: -> dispersion             -0.134592200353 Eh    ::
         :: repulsion energy           2.405945464945 Eh    ::
         :: add. restraining           0.000000000000 Eh    ::
         :: total charge              -0.000000000000 e     ::
         :::::::::::::::::::::::::::::::::::::::::::::::::::::

           -------------------------------------------------
          |                Property Printout                |
           -------------------------------------------------

    * Orbital Energies and Occupations

         #    Occupation            Energy/Eh            Energy/eV
      -------------------------------------------------------------
         1        2.0000           -0.7417662             -20.1845
       ...           ...                  ...                  ...
       107        2.0000           -0.4110868             -11.1862
       108        2.0000           -0.4107821             -11.1779
       109        2.0000           -0.4081995             -11.1077
       110        2.0000           -0.4063164             -11.0564
       111        2.0000           -0.4035074             -10.9800
       112        2.0000           -0.3992801             -10.8650
       113        2.0000           -0.3941119             -10.7243
       114        2.0000           -0.3932873             -10.7019
       115        2.0000           -0.3926586             -10.6848
       116        2.0000           -0.3817758             -10.3886
       117        2.0000           -0.3679870             -10.0134
       118        2.0000           -0.3561301              -9.6908
       119        2.0000           -0.3396472              -9.2423 (HOMO)
       120                         -0.2984452              -8.1211 (LUMO)
       121                         -0.2735818              -7.4445
       122                         -0.2656837              -7.2296
       123                         -0.2546707              -6.9299
       124                         -0.2421599              -6.5895
       125                         -0.2368690              -6.4455
       126                         -0.2364802              -6.4350
       127                         -0.2319407              -6.3114
       128                         -0.2288073              -6.2262
       129                         -0.2201830              -5.9915
       130                         -0.2113338              -5.7507
       ...                                ...                  ...
       234                          0.7673480              20.8806
      -------------------------------------------------------------
                  HL-Gap            0.0412020 Eh            1.1212 eV
             Fermi-level           -0.3190462 Eh           -8.6817 eV

     #   Z          covCN         q      C6AA      α(0)
     1   6 C        2.921    -0.040    28.996     8.830
     2   6 C        2.921    -0.039    28.975     8.827
     3   6 C        2.918    -0.036    28.907     8.817
     4   6 C        2.914    -0.030    28.746     8.792
     5   6 C        2.976     0.007    27.866     8.659
     6   6 C        2.984     0.013    27.714     8.635
     7   6 C        2.814     0.101    25.742     8.313
     8   6 C        2.916    -0.037    28.919     8.818
     9   6 C        2.919    -0.037    28.922     8.819
    10   6 C        2.983     0.014    27.696     8.633
    11   6 C        2.881     0.130    25.152     8.222
    12   6 C        2.995    -0.017    28.417     8.744
    13   6 C        2.978     0.004    27.933     8.669
    14   6 C        2.977     0.005    27.896     8.664
    15   6 C        2.989     0.002    27.981     8.677
    16   6 C        2.990    -0.003    28.082     8.693
    17   6 C        2.915    -0.059    29.474     8.903
    18   6 C        2.978     0.012    27.749     8.641
    19   6 C        2.920    -0.046    29.137     8.852
    20   6 C        2.996    -0.004    28.102     8.696
    21   6 C        2.981     0.012    27.731     8.638
    22   6 C        2.988    -0.002    28.060     8.689
    23   6 C        2.989    -0.001    28.038     8.686
    24   6 C        2.987     0.002    27.985     8.678
    25   6 C        2.916    -0.074    29.849     8.959
    26   6 C        2.975     0.006    27.893     8.663
    27   6 C        2.993    -0.015    28.379     8.739
    28   6 C        2.913    -0.030    28.758     8.794
    29   6 C        2.990    -0.004    28.125     8.699
    30   6 C        2.989     0.001    27.986     8.678
    31   6 C        2.904    -0.068    29.683     8.933
    32   6 C        2.872     0.135    25.039     8.203
    33   6 C        2.921    -0.039    28.965     8.826
    34   6 C        2.996     0.006    27.870     8.660
    35   6 C        2.991     0.002    27.973     8.676
    36   6 C        2.977     0.006    27.884     8.662
    37   6 C        2.980     0.001    28.009     8.681
    38   6 C        2.992    -0.009    28.224     8.715
    39   6 C        2.880     0.140    24.944     8.188
    40   6 C        2.914    -0.080    30.004     8.982
    41   6 C        2.978     0.006    27.890     8.663
    42   6 C        2.919    -0.036    28.900     8.816
    43   6 C        2.989     0.002    27.968     8.675
    44   6 C        2.988    -0.002    28.066     8.690
    45   6 C        2.992    -0.001    28.050     8.688
    46   6 C        2.918    -0.030    28.744     8.792
    47   6 C        2.924    -0.052    29.290     8.875
    48   6 C        2.991    -0.001    28.045     8.687
    49   6 C        2.921    -0.038    28.948     8.823
    50   6 C        2.990     0.000    28.009     8.681
    51   6 C        2.985     0.001    28.009     8.681
    52   6 C        2.994    -0.001    28.040     8.686
    53   1 H        0.926     0.032     2.551     2.498
    54   1 H        0.926     0.035     2.523     2.484
    55   1 H        0.926     0.048     2.342     2.393
    56   1 H        0.926     0.038     2.477     2.461
    57   1 H        0.926     0.045     2.380     2.412
    58   1 H        0.926     0.028     2.609     2.526
    59   1 H        0.926     0.031     2.577     2.510
    60   1 H        0.926     0.034     2.529     2.487
    61   1 H        0.926     0.039     2.461     2.453
    62   1 H        0.926     0.031     2.568     2.506
    63   1 H        0.926     0.034     2.527     2.486
    64   1 H        0.926     0.030     2.586     2.515
    65   1 H        0.926     0.053     2.277     2.360
    66   1 H        0.926     0.032     2.559     2.501
    67   1 H        0.926     0.045     2.380     2.412
    68   1 H        0.926     0.043     2.407     2.426
    69   1 H        0.926     0.031     2.569     2.506
    70   1 H        0.926     0.030     2.581     2.512
    71   8 O        1.709    -0.209    17.471     5.643
    72   8 O        1.710    -0.231    17.821     5.700

 Mol. C6AA /au·bohr⁶  :      97665.214970
 Mol. C8AA /au·bohr⁸  :    2622330.942864
 Mol. α(0) /au        :        508.200211


Wiberg/Mayer (AO) data.
largest (>0.10) Wiberg bond orders for each atom

 ---------------------------------------------------------------------------
     #   Z sym  total        # sym  WBO       # sym  WBO       # sym  WBO
 ---------------------------------------------------------------------------
     1   6 C    3.941 --     4 C    1.419     5 C    1.378    62 H    0.962
     2   6 C    3.942 --     4 C    1.465     6 C    1.329    53 H    0.969
     3   6 C    3.969 --     8 C    1.537    14 C    1.303    63 H    0.961
     4   6 C    3.981 --     2 C    1.465     1 C    1.419    64 H    0.971
     5   6 C    3.980 --     1 C    1.378    20 C    1.263    14 C    1.144
     6   6 C    3.984 --     2 C    1.329    20 C    1.249    25 C    1.234
     7   6 C    3.899 --    31 C    1.694    71 O    1.111    65 H    0.959
     8   6 C    3.947 --     3 C    1.537    37 C    1.289    66 H    0.963
     9   6 C    3.972 --    42 C    1.496    36 C    1.338    54 H    0.961
    10   6 C    3.927 --    38 C    1.360    37 C    1.220    31 C    1.150
    11   6 C    3.905 --    40 C    1.554    38 C    1.161    71 O    1.022
    12   6 C    3.980 --    41 C    1.293    39 C    1.278    34 C    1.172
    13   6 C    3.970 --    42 C    1.335    35 C    1.289    41 C    1.141
    14   6 C    3.944 --    43 C    1.306     3 C    1.303     5 C    1.144
    15   6 C    3.976 --    37 C    1.255    44 C    1.248    43 C    1.247
    16   6 C    3.973 --    45 C    1.274    44 C    1.256    38 C    1.222
    17   6 C    3.967 --    46 C    1.400    39 C    1.399    55 H    0.968
    18   6 C    3.987 --    47 C    1.435    40 C    1.199    45 C    1.189
    19   6 C    3.971 --    46 C    1.476    41 C    1.344    56 H    0.963
    20   6 C    3.981 --     5 C    1.263     6 C    1.249    48 C    1.237
    21   6 C    3.985 --    49 C    1.298    47 C    1.284    52 C    1.235
    22   6 C    3.969 --    50 C    1.294    48 C    1.243    43 C    1.204
    23   6 C    3.972 --    51 C    1.300    44 C    1.240    50 C    1.208
    24   6 C    3.979 --    45 C    1.276    52 C    1.246    51 C    1.233
    25   6 C    3.950 --    32 C    1.513     6 C    1.234    57 H    0.966
    26   6 C    3.983 --    33 C    1.395    52 C    1.261    36 C    1.133
    27   6 C    3.962 --    48 C    1.272    34 C    1.270    32 C    1.189
    28   6 C    3.982 --    49 C    1.492    33 C    1.395    58 H    0.970
    29   6 C    3.976 --    34 C    1.296    50 C    1.245    35 C    1.206
    30   6 C    3.982 --    36 C    1.293    35 C    1.259    51 C    1.204
    31   6 C    3.972 --     7 C    1.694    10 C    1.150    67 H    0.961
    32   6 C    3.923 --    25 C    1.513    27 C    1.189    72 O    1.042
    33   6 C    3.928 --    28 C    1.395    26 C    1.395    59 H    0.962
    34   6 C    3.961 --    29 C    1.296    27 C    1.270    12 C    1.172
    35   6 C    3.981 --    13 C    1.289    30 C    1.259    29 C    1.206
    36   6 C    3.959 --     9 C    1.338    30 C    1.293    26 C    1.133
    37   6 C    3.973 --     8 C    1.289    15 C    1.255    10 C    1.220
    38   6 C    3.979 --    10 C    1.360    16 C    1.222    11 C    1.161
    39   6 C    3.921 --    17 C    1.399    12 C    1.278    72 O    1.056
    40   6 C    3.963 --    11 C    1.554    18 C    1.199    68 H    0.965
    41   6 C    3.975 --    19 C    1.344    12 C    1.293    13 C    1.141
    42   6 C    3.963 --     9 C    1.496    13 C    1.335    60 H    0.962
    43   6 C    3.985 --    14 C    1.306    15 C    1.247    22 C    1.204
    44   6 C    3.979 --    16 C    1.256    15 C    1.248    23 C    1.240
    45   6 C    3.965 --    24 C    1.276    16 C    1.274    18 C    1.189
    46   6 C    3.976 --    19 C    1.476    17 C    1.400    61 H    0.970
    47   6 C    3.905 --    18 C    1.435    21 C    1.284    69 H    0.966
    48   6 C    3.977 --    27 C    1.272    22 C    1.243    20 C    1.237
    49   6 C    3.928 --    28 C    1.492    21 C    1.298    70 H    0.969
    50   6 C    3.972 --    22 C    1.294    29 C    1.245    23 C    1.208
    51   6 C    3.955 --    23 C    1.300    24 C    1.233    30 C    1.204
    52   6 C    3.973 --    26 C    1.261    24 C    1.246    21 C    1.235
    53   1 H    0.998 --     2 C    0.969
    54   1 H    0.998 --     9 C    0.961
    55   1 H    0.997 --    17 C    0.968
    56   1 H    0.998 --    19 C    0.963
    57   1 H    0.997 --    25 C    0.966
    58   1 H    0.998 --    28 C    0.970
    59   1 H    0.999 --    33 C    0.962
    60   1 H    0.998 --    42 C    0.962
    61   1 H    0.997 --    46 C    0.970
    62   1 H    0.999 --     1 C    0.962
    63   1 H    0.998 --     3 C    0.961
    64   1 H    0.998 --     4 C    0.971
    65   1 H    0.996 --     7 C    0.959
    66   1 H    0.998 --     8 C    0.963
    67   1 H    0.997 --    31 C    0.961
    68   1 H    0.997 --    40 C    0.965
    69   1 H    0.998 --    47 C    0.966
    70   1 H    0.998 --    49 C    0.969
    71   8 O    2.376 --     7 C    1.111    11 C    1.022
    72   8 O    2.349 --    39 C    1.056    32 C    1.042
 ---------------------------------------------------------------------------

Topologies differ in total number of bonds
Writing topology from bond orders to xtbtopo.mol

molecular dipole:
                 x           y           z       tot (Debye)
 q only:        0.164       0.284      -0.000
   full:        0.175       0.396      -0.000       1.101
molecular quadrupole (traceless):
                xx          xy          yy          xz          yz          zz
 q only:       -8.676       5.933      18.315      -0.001      -0.000      -9.639
  q+dip:        3.170       7.176      30.838      -0.001      -0.000     -34.008
   full:       -7.298       7.626      21.584      -0.001      -0.000     -14.286

           -------------------------------------------------
          |                Geometry Summary                 |
           -------------------------------------------------

      molecular mass/u    :      674.7000101
   center of mass at/Å    :        0.0003003       0.0036908       0.0000035
  moments of inertia/u·Å² :        0.6875199E+04   0.9330652E+04   0.1620585E+05
rotational constants/cm⁻¹ :        0.2451948E-02   0.1806694E-02   0.1040219E-02

 * 85 selected distances

     #   Z          #   Z                                           value/Å
     1   6 C        4   6 C                                       1.3856104
     2   6 C        4   6 C                                       1.3770500
     1   6 C        5   6 C                                       1.3949289
     2   6 C        6   6 C                                       1.3990984
     3   6 C        8   6 C                                       1.3656521
     3   6 C       14   6 C                                       1.4057844
     5   6 C       20   6 C                                       1.4167689
     6   6 C       20   6 C                                       1.4194401
     6   6 C       25   6 C                                       1.4179191
     7   6 C       31   6 C                                       1.3410383
    25   6 C       32   6 C                                       1.3639377
    27   6 C       32   6 C                                       1.4226251
    26   6 C       33   6 C                                       1.3921703
    28   6 C       33   6 C                                       1.3890658
    12   6 C       34   6 C                                       1.4267733
    27   6 C       34   6 C                                       1.4052748
    29   6 C       34   6 C                                       1.3996109
    13   6 C       35   6 C                                       1.4139682
    29   6 C       35   6 C                                       1.4240072
    30   6 C       35   6 C                                       1.4190182
     9   6 C       36   6 C                                       1.3994249
    30   6 C       36   6 C                                       1.4114915
     8   6 C       37   6 C                                       1.4065613
    10   6 C       37   6 C                                       1.4220907
    15   6 C       37   6 C                                       1.4190793
    10   6 C       38   6 C                                       1.3948973
    11   6 C       38   6 C                                       1.4335305 (max)
    16   6 C       38   6 C                                       1.4193863
    12   6 C       39   6 C                                       1.4064385
    17   6 C       39   6 C                                       1.3833760
    11   6 C       40   6 C                                       1.3575044
    18   6 C       40   6 C                                       1.4235258
    12   6 C       41   6 C                                       1.4082565
    19   6 C       41   6 C                                       1.4007611
     9   6 C       42   6 C                                       1.3715705
    13   6 C       42   6 C                                       1.3987598
    14   6 C       43   6 C                                       1.4098688
    15   6 C       43   6 C                                       1.4211244
    22   6 C       43   6 C                                       1.4255431
    15   6 C       44   6 C                                       1.4181061
    16   6 C       44   6 C                                       1.4129778
    23   6 C       44   6 C                                       1.4168246
    16   6 C       45   6 C                                       1.4100523
    18   6 C       45   6 C                                       1.4294200
    24   6 C       45   6 C                                       1.4119125
    17   6 C       46   6 C                                       1.3880833
    19   6 C       46   6 C                                       1.3776681
    18   6 C       47   6 C                                       1.3788268
    21   6 C       47   6 C                                       1.4057366
    20   6 C       48   6 C                                       1.4163013
    22   6 C       48   6 C                                       1.4160068
    27   6 C       48   6 C                                       1.4077399
    21   6 C       49   6 C                                       1.4048053
    28   6 C       49   6 C                                       1.3723682
    22   6 C       50   6 C                                       1.4074163
    23   6 C       50   6 C                                       1.4213421
    29   6 C       50   6 C                                       1.4147329
    23   6 C       51   6 C                                       1.4067933
    24   6 C       51   6 C                                       1.4197843
    30   6 C       51   6 C                                       1.4282116
    21   6 C       52   6 C                                       1.4219332
    24   6 C       52   6 C                                       1.4170662
    26   6 C       52   6 C                                       1.4172368
     2   6 C       53   1 H                                       1.0798997
     9   6 C       54   1 H                                       1.0778048
    17   6 C       55   1 H                                       1.0780205
    19   6 C       56   1 H                                       1.0774159
    25   6 C       57   1 H                                       1.0786377
    28   6 C       58   1 H                                       1.0805373
    33   6 C       59   1 H                                       1.0777639
    42   6 C       60   1 H                                       1.0779808
    46   6 C       61   1 H                                       1.0797354
     1   6 C       62   1 H                                       1.0777892
     3   6 C       63   1 H                                       1.0777990
     4   6 C       64   1 H                                       1.0805024
     7   6 C       65   1 H                                       1.0802836
     8   6 C       66   1 H                                       1.0783122
    31   6 C       67   1 H                                       1.0747203 (min)
    40   6 C       68   1 H                                       1.0784076
    47   6 C       69   1 H                                       1.0805245
    49   6 C       70   1 H                                       1.0802117
     7   6 C       71   8 O                                       1.3418151
    11   6 C       71   8 O                                       1.3726648
    32   6 C       72   8 O                                       1.3643992
    39   6 C       72   8 O                                       1.3599759

 * 3 distinct bonds (by element types)

   Z      Z             #   av. dist./Å        max./Å        min./Å
   1 H    6 C          18     1.0786859     1.0805373     1.0747203
   6 C    6 C          63     1.4049886     1.4335305     1.3410383
   6 C    8 O           4     1.3597138     1.3726648     1.3418151


optimized geometry written to: xtbopt.xyz


           -------------------------------------------------
          | TOTAL ENERGY             -128.978135213746 Eh   |
          | GRADIENT NORM               0.000236654302 Eh/α |
          | HOMO-LUMO GAP               1.121163437302 eV   |
           -------------------------------------------------

------------------------------------------------------------------------
 * finished run on 2025/12/08 at 00:34:24.832     
------------------------------------------------------------------------
 total:
 * wall-time:     0 d,  0 h,  0 min,  1.592 sec
 *  cpu-time:     0 d,  0 h,  0 min,  5.938 sec
 * ratio c/w:     3.730 speedup
 SCF:
 * wall-time:     0 d,  0 h,  0 min,  0.252 sec
 *  cpu-time:     0 d,  0 h,  0 min,  1.062 sec
 * ratio c/w:     4.216 speedup
 ANC optimizer:
 * wall-time:     0 d,  0 h,  0 min,  1.275 sec
 *  cpu-time:     0 d,  0 h,  0 min,  4.688 sec
 * ratio c/w:     3.676 speedup

normal termination of xtb
