72
 energy: -128.978135213746 gnorm: 0.000236654302 xtb: 6.7.1pre (5071a88)
C           -3.53810206847876        4.91119176928869        0.00021395152748
C           -5.61488387939821        3.70202080711629        0.00019665459440
C           -0.58958422603891        4.88312221250151       -0.00021397682349
C           -4.92359267510681        4.89297953669506        0.00028584737118
C           -2.79810026815232        3.72872666760443        0.00005212374937
C           -4.92335088463665        2.48577330727684        0.00008027989917
C            5.08765286600065        4.65400501471002       -0.00003599684141
C            0.77590532486429        4.86206332329648       -0.00025284195728
C            0.58193884786309       -4.89522460486670       -0.00003792146313
C            2.91519540268008        3.61039081728691       -0.00009399260310
C            5.00616867403750        2.32563614168050        0.00002991976926
C           -3.58744831095519       -2.37628059564782       -0.00003018660093
C           -1.50065629792078       -3.66414326153049       -0.00003623399498
C           -1.35191175299626        3.70198456591183       -0.00006414961871
C            0.75805729687091        2.43896031870179       -0.00007775701695
C            2.85046326482608        1.15940333977703       -0.00001161105532
C           -5.76007271465044       -3.43991275280361        0.00002651674427
C            4.96321398018897       -0.09395776368547        0.00008450962879
C           -3.75409419901599       -4.77612900973523        0.00001571137222
C           -3.50398559950417        2.50032950958739        0.00002685570739
C            4.92396821665114       -2.52615903238164        0.00009456330483
C           -1.38470597783316        1.24290181983317       -0.00003300416946
C            0.71659346248200       -0.02501059253135       -0.00002353491251
C            2.81068410267597       -1.28653413863765        0.00002525494792
C           -5.61603622849176        1.24856623834744        0.00004079642740
C            2.79432639528704       -3.75139504333045        0.00001988888109
C           -3.51120072925459        0.05600588956936       -0.00003345886854
C            4.91216046196074       -4.93527784941853        0.00007162726858
C           -1.42582262160661       -1.20602203845931       -0.00003836946723
C            0.66322412466503       -2.48830787747177       -0.00001837441043
C            3.75290384542153        4.78372990951532       -0.00009426577639
C           -4.93377903096438        0.06752823808813       -0.00001111793506
C            3.52309664723510       -4.93757867654836        0.00002894999912
C           -2.82497822249445       -1.17032827373779       -0.00004294954940
C           -0.75555777742864       -2.46242208896445       -0.00003330267124
C            1.34673108344671       -3.72326788690409       -0.00001381778439
C            1.49372711779476        3.65245756511155       -0.00013843433407
C            3.57369662370963        2.38071028761651       -0.00002541251742
C           -4.99122939456924       -2.28986543034685       -0.00001202308736
C            5.67017468047274        1.14161171281055        0.00009025179366
C           -2.94764154976084       -3.63080576337282       -0.00002136500955
C           -0.78937213400724       -4.86855324724176       -0.00004803488579
C           -0.66268128058782        2.47206946779888       -0.00005529860140
C            1.43792022478261        1.19444798559135       -0.00003693607437
C            3.53393437081850       -0.07393130456398        0.00003360182967
C           -5.12810329543254       -4.67578881643690        0.00004227230312
C            5.62132497943958       -1.30559008282228        0.00012080094953
C           -2.80043115866501        1.27113460175996       -0.00002516019915
C            5.60867999955001       -3.75279968210885        0.00010840794640
C           -0.70429507553805        0.01088671941546       -0.00003426268779
C            1.39115681255993       -1.25952722826275       -0.00000675096382
C            3.50203765039087       -2.52350887996616        0.00004757188896
H           -6.69475211474019        3.69378409513532        0.00023615450551
H            1.06796378014121       -5.85722395568747       -0.00004528832265
H           -6.83488441987682       -3.35679914735830        0.00004792540034
H           -3.30979251250898       -5.75766907459860        0.00003109086202
H           -6.69466186251086        1.24348043022497        0.00006850804889
H            5.44205364011433       -5.87696457601377        0.00007840410965
H            3.02057624851729       -5.89101878196681        0.00000262745686
H           -1.31807175261811       -5.80797812755552       -0.00006605055335
H           -5.72877477582616       -5.57301904493847        0.00007902065519
H           -3.04407161124071        5.86908703235523        0.00030564408221
H           -1.08356450106903        5.84105429896447       -0.00031880442577
H           -5.46427835059519        5.82847090419691        0.00041408818335
H            5.77123488006039        5.49050252674404       -0.00002784938740
H            1.30655712967400        5.80076751049771       -0.00037910705512
H            3.32634093325295        5.77017173889557       -0.00012871603426
H            6.74854726507231        1.13293847571397        0.00013383650624
H            6.70167542509823       -1.32497873062124        0.00016275517854
H            6.68888203678323       -3.74824744477269        0.00014579020934
O            5.74355390008845        3.48342343025043        0.00002124780801
O           -5.64456744100300       -1.09710240458115       -0.00002309325072
