72
 energy: -128.970200866059 gnorm: 0.041416141185 xtb: 6.7.1pre (5071a88)
C           -3.56139600000000        4.94614700000000        0.00029300000000
C           -5.65615000000000        3.72585700000000        0.00018300000000
C           -0.58898300000000        4.91642000000000       -0.00026500000000
C           -4.95781700000000        4.92660500000000        0.00034100000000
C           -2.81890800000000        3.75393200000000        0.00010400000000
C           -4.96274600000000        2.50087000000000        0.00008100000000
C            5.11743500000000        4.69869600000000       -0.00004800000000
C            0.78559700000000        4.89463700000000       -0.00032100000000
C            0.58375700000000       -4.93099700000000       -0.00004900000000
C            2.94110500000000        3.63539600000000       -0.00012500000000
C            5.03524900000000        2.33543200000000        0.00004300000000
C           -3.61298800000000       -2.39177200000000       -0.00006000000000
C           -1.51254500000000       -3.69235800000000       -0.00011700000000
C           -1.35739000000000        3.72706000000000       -0.00004400000000
C            0.76601400000000        2.45450700000000       -0.00004500000000
C            2.86946900000000        1.16689500000000        0.00001400000000
C           -5.80621600000000       -3.45511200000000        0.00003500000000
C            5.00558700000000       -0.09149600000000        0.00013500000000
C           -3.78706300000000       -4.81176100000000       -0.00000400000000
C           -3.53019100000000        2.51658200000000        0.00005800000000
C            4.96400500000000       -2.54166800000000        0.00009500000000
C           -1.39514900000000        1.24933200000000        0.00001000000000
C            0.72121200000000       -0.02719900000000       -0.00002000000000
C            2.83154800000000       -1.29422200000000        0.00005600000000
C           -5.65872400000000        1.24994400000000        0.00001400000000
C            2.81606800000000       -3.77873700000000       -0.00001900000000
C           -3.53304600000000        0.05391800000000       -0.00008800000000
C            4.94839700000000       -4.96923600000000        0.00007800000000
C           -1.44183600000000       -1.21393200000000       -0.00008000000000
C            0.66562600000000       -2.50759400000000       -0.00006800000000
C            3.77885500000000        4.81993600000000       -0.00007400000000
C           -4.96209000000000        0.07596300000000       -0.00008400000000
C            3.54788700000000       -4.97368700000000        0.00003300000000
C           -2.84751800000000       -1.17799200000000       -0.00007000000000
C           -0.76470200000000       -2.48126200000000       -0.00012100000000
C            1.35306500000000       -3.75049600000000       -0.00004200000000
C            1.50745500000000        3.67596000000000       -0.00017800000000
C            3.59562000000000        2.40041800000000       -0.00003400000000
C           -5.02130000000000       -2.31408100000000       -0.00011800000000
C            5.71494600000000        1.15732300000000        0.00014900000000
C           -2.97475000000000       -3.65709200000000       -0.00006200000000
C           -0.79669200000000       -4.90462600000000       -0.00006400000000
C           -0.66622800000000        2.48819400000000        0.00000000000000
C            1.44903300000000        1.19926300000000       -0.00001500000000
C            3.56014900000000       -0.07365700000000        0.00009500000000
C           -5.17113700000000       -4.70518800000000        0.00009200000000
C            5.66445800000000       -1.30927900000000        0.00014400000000
C           -2.82058300000000        1.27736900000000       -0.00000400000000
C            5.65110700000000       -3.77732700000000        0.00011000000000
C           -0.71242400000000        0.00943900000000       -0.00002800000000
C            1.40115000000000       -1.26752400000000       -0.00001900000000
C            3.52941000000000       -2.54133900000000        0.00003600000000
H           -6.74273200000000        3.72076000000000        0.00018500000000
H            1.07212700000000       -5.89803600000000       -0.00003900000000
H           -6.88726700000000       -3.36510700000000        0.00013900000000
H           -3.34135000000000       -5.79920300000000       -0.00000300000000
H           -6.74396600000000        1.23520100000000        0.00007200000000
H            5.48266300000000       -5.91526500000000        0.00005600000000
H            3.03950400000000       -5.93051900000000        0.00003500000000
H           -1.32621600000000       -5.85028800000000        0.00000400000000
H           -5.77741300000000       -5.60612000000000        0.00024600000000
H           -3.06114000000000        5.90729000000000        0.00042700000000
H           -1.08346200000000        5.88034800000000       -0.00044200000000
H           -5.50208500000000        5.86685200000000        0.00047200000000
H            5.81640800000000        5.52547900000000       -0.00011500000000
H            1.31611600000000        5.83965800000000       -0.00049500000000
H            3.35988700000000        5.81691300000000       -0.00004100000000
H            6.80019200000000        1.16050600000000        0.00020400000000
H            6.75155000000000       -1.32833500000000        0.00019600000000
H            6.73790300000000       -3.77570300000000        0.00011800000000
O            5.76925000000000        3.50467700000000        0.00000600000000
O           -5.67231600000000       -1.10257400000000       -0.00008400000000
72
 energy: -128.976811844039 gnorm: 0.018078609418 xtb: 6.7.1pre (5071a88)
C           -3.55175870148951        4.92327368099525        0.00028029923967
C           -5.63224241157896        3.71163080118068        0.00019159760594
C           -0.58969409245736        4.89378173900679       -0.00025847967847
C           -4.93958670528475        4.90467023915076        0.00032679904062
C           -2.80927062341607        3.73845289135943        0.00009095896327
C           -4.94056018885740        2.49296899044298        0.00007626967386
C            5.10177112968945        4.67346532148261       -0.00005917032638
C            0.77861114504341        4.87238180682820       -0.00030642619082
C            0.58287767578092       -4.90774017702719       -0.00005099463043
C            2.92699593300428        3.62056029732092       -0.00009089009523
C            5.01797568732964        2.32881701132095        0.00004272538114
C           -3.59852243206287       -2.38344321432727       -0.00007533292096
C           -1.50626932221030       -3.67599379275692       -0.00008037388935
C           -1.35566526204532        3.71124301543116       -0.00004619790957
C            0.76144045943437        2.44532219357494       -0.00005957190770
C            2.85871226507632        1.16210207822643        0.00000861092315
C           -5.78178245615740       -3.44517836532357        0.00005038718726
C            4.98187505577872       -0.09343471312053        0.00012571360466
C           -3.77371063612455       -4.78836552061152        0.00000058857378
C           -3.51628074840984        2.50702622839890        0.00004296445454
C            4.94162412027045       -2.53276990308002        0.00009868211379
C           -1.38909753000121        1.24550062121737       -0.00000847400190
C            0.71915177947843       -0.02676158528703       -0.00001673340416
C            2.82115876515657       -1.28978409906459        0.00003431185427
C           -5.63391154263112        1.25000841488765        0.00001477140409
C            2.80628980261911       -3.76244134181883        0.00000778286616
C           -3.51967314399052        0.05515945766582       -0.00006956948821
C            4.93006610581857       -4.94645673253641        0.00006322188978
C           -1.43227490168779       -1.21002784450765       -0.00007519759841
C            0.66518100887550       -2.49701887757768       -0.00005620028454
C            3.76621568544801        4.79765450889389       -0.00008620462311
C           -4.94493149039026        0.07300434025865       -0.00006012152375
C            3.53831417732986       -4.95022721073309        0.00003042423689
C           -2.83447876695348       -1.17411610562728       -0.00008267998272
C           -0.75894751187351       -2.47118060619538       -0.00008401222217
C            1.35103458769449       -3.73416990083381       -0.00004319302986
C            1.49951195368890        3.66125081221052       -0.00014566077870
C            3.58254822153995        2.38926269136545       -0.00001588304007
C           -5.00414250598315       -2.30153948780839       -0.00005225472274
C            5.68891089087492        1.14848299936684        0.00013681053367
C           -2.96098391774248       -3.64227711939412       -0.00006913650145
C           -0.79153965929793       -4.88146817327413       -0.00005442575137
C           -0.66445329650230        2.47892228209527       -0.00002323637518
C            1.44298320743055        1.19591880096807       -0.00001696396760
C            3.54595963969391       -0.07374384354803        0.00006263439195
C           -5.14990348155410       -4.68529150577385        0.00008435874531
C            5.63887287465101       -1.30709726617476        0.00014669967336
C           -2.80901200588771        1.27420300422772       -0.00001938070864
C            5.62727215525522       -3.76186297916528        0.00009723957531
C           -0.70761555020027        0.00980731117918       -0.00003540259982
C            1.39673691174585       -1.26321454689372       -0.00001611542860
C            3.51527574086134       -2.53104792564140        0.00004563647455
H           -6.71445447130459        3.70815023606988        0.00019479749629
H            1.06815796202226       -5.87239475334414       -0.00003288477066
H           -6.85839813377108       -3.36086048466789        0.00011012466999
H           -3.33314481383001       -5.77341242621535        0.00000801724315
H           -6.71457344779886        1.24038803059972        0.00005692714977
H            5.46308981200518       -5.88899505369540        0.00007142906233
H            3.03691211325599       -5.90618930152049        0.00002000639039
H           -1.31907714342351       -5.82407517265941       -0.00002665406803
H           -5.75415514650102       -5.58303069836833        0.00019784104828
H           -3.05793904862131        5.88318213463976        0.00041512785412
H           -1.08197562012844        5.85482798678613       -0.00041622167259
H           -5.48277894875967        5.84130891123360        0.00046616135384
H            5.79636076448137        5.50145062825611       -0.00007387032956
H            1.30797407345789        5.81409885081636       -0.00048643480555
H            3.34623152028188        5.78959133557614       -0.00007698425979
H            6.76947167513739        1.14729652091744        0.00019415134390
H            6.72184923773168       -1.32738202811172        0.00018900154043
H            6.70979979930696       -3.76179577855463        0.00012701312408
O            5.75534352978060        3.49126789478667       -0.00000251819726
O           -5.65646680810231       -1.09865053349844       -0.00006223499825
72
 energy: -128.978097953805 gnorm: 0.005144989012 xtb: 6.7.1pre (5071a88)
C           -3.54041691422429        4.91063508134017        0.00026346265823
C           -5.61645566764922        3.70205556845150        0.00019272116057
C           -0.59047527765445        4.88185568974193       -0.00024484951460
C           -4.92538193897152        4.89260408245671        0.00031654598767
C           -2.80021433501392        3.72856061296248        0.00007656433713
C           -4.92515710600203        2.48640396254634        0.00007356967874
C            5.08967495561206        4.65600707263547       -0.00004382734786
C            0.77509331856000        4.86089543257721       -0.00029082175288
C            0.58260359044479       -4.89488470677957       -0.00004003646984
C            2.91646268517847        3.61100474968642       -0.00008765223943
C            5.00641416459558        2.32527111015980        0.00003917068085
C           -3.58845363864577       -2.37714191737948       -0.00006587327223
C           -1.50142695760416       -3.66523467975415       -0.00006701769388
C           -1.35312178131114        3.70156178114517       -0.00005422405752
C            0.75835058429713        2.43929996102972       -0.00006493238278
C            2.85088603955184        1.15928643759714        0.00000411209449
C           -5.76390926048164       -3.43879710570378        0.00004450442762
C            4.96506470675790       -0.09397429164795        0.00010978163444
C           -3.75868461395171       -4.77547536719093        0.00001232355074
C           -3.50569022537469        2.50039195603399        0.00003391720746
C            4.92592117054993       -2.52625990450891        0.00009803786176
C           -1.38492049329938        1.24274953085193       -0.00002452135695
C            0.71695107623435       -0.02577593904555       -0.00002046962009
C            2.81232248534854       -1.28657592757697        0.00002865482790
C           -5.61744621699104        1.24877169496429        0.00002345295058
C            2.79674455030365       -3.75184831538169        0.00001195250279
C           -3.51113608671750        0.05571316155314       -0.00005324750980
C            4.91512277053501       -4.93421357490631        0.00007095353229
C           -1.42610802450071       -1.20681235476693       -0.00006422090757
C            0.66382112639487       -2.48935235090446       -0.00003673216859
C            3.75512126025460        4.78383089373161       -0.00008434898221
C           -4.93383693534786        0.06916703307937       -0.00003186340084
C            3.52641455193629       -4.93713552178791        0.00002634100528
C           -2.82565928829879       -1.17101041703899       -0.00007653174116
C           -0.75557960114268       -2.46366643389586       -0.00006474176961
C            1.34803602796637       -3.72375542735462       -0.00002483218145
C            1.49400207396030        3.65254720674935       -0.00014032875669
C            3.57367665048761        2.38165990801900       -0.00001453168686
C           -4.99234630473275       -2.29141508909329       -0.00003167922609
C            5.67141222832720        1.14246358623082        0.00012029964770
C           -2.94965507623861       -3.63199931433233       -0.00004842304210
C           -0.78902806518825       -4.86849709246909       -0.00005650353905
C           -0.66288197234151        2.47238817680983       -0.00004013600588
C            1.43832231553119        1.19404529813603       -0.00002221680456
C            3.53528430767589       -0.07369064066950        0.00004972862120
C           -5.13224262824262       -4.67457044676610        0.00007146929516
C            5.62236446323598       -1.30509266394763        0.00013884891420
C           -2.80093865411964        1.27135992359552       -0.00002752217012
C            5.61110803278421       -3.75201997449960        0.00010504625120
C           -0.70458572271089        0.01032779925367       -0.00003823016501
C            1.39223439205345       -1.25993789157886       -0.00001299403073
C            3.50402799774141       -2.52398070018511        0.00004571298820
H           -6.69639965950995        3.69672590702182        0.00021140256411
H            1.06822219312115       -5.85735447822703       -0.00003590905408
H           -6.83848120370137       -3.35648687548475        0.00009514752062
H           -3.31728801504196       -5.75839254929293        0.00002179137110
H           -6.69581715431787        1.24275786402326        0.00004773781617
H            5.44647975789535       -5.87521839808462        0.00006923961387
H            3.02567161122608       -5.89156845085726        0.00000642897497
H           -1.31712888082527       -5.80855550773571       -0.00005094087700
H           -5.73428180228016       -5.57106398396348        0.00014855892326
H           -3.04740278301540        5.86907747757097        0.00038831019922
H           -1.08369472277281        5.84037389026702       -0.00038742954718
H           -5.46712205232292        5.82761154434701        0.00045471156415
H            5.77883738570601        5.48747455456443       -0.00005524411164
H            1.30505395588779        5.80015135045211       -0.00045946080113
H            3.33169093491742        5.77188180841523       -0.00010686157050
H            6.74962580129744        1.13670676191893        0.00017313567883
H            6.70290014045113       -1.32543950102076        0.00018777825074
H            6.69141014606801       -3.75008440167239        0.00013136471352
O            5.74504895883693        3.48308892030363        0.00000334808500
O           -5.64572435118143       -1.09643059471856       -0.00005297133385
72
 energy: -128.978129073732 gnorm: 0.002231759481 xtb: 6.7.1pre (5071a88)
C           -3.53830162544542        4.91055257533760        0.00024874748599
C           -5.61492297514033        3.70156246040557        0.00019567235240
C           -0.59007431739033        4.88222179292532       -0.00023736196056
C           -4.92360768682994        4.89246758936585        0.00030876004090
C           -2.79854834930687        3.72819396480358        0.00006749135802
C           -4.92353442590269        2.48566739961099        0.00007589265117
C            5.08782986275394        4.65442060051747       -0.00004302739966
C            0.77546257570169        4.86125667127941       -0.00028052255920
C            0.58223028283014       -4.89475437382926       -0.00004044533053
C            2.91525155176371        3.61032804565752       -0.00008921122860
C            5.00560571176796        2.32532342492882        0.00003731340432
C           -3.58742704169290       -2.37636729940489       -0.00005341183308
C           -1.50074739078411       -3.66427259429911       -0.00005409221742
C           -1.35224351367226        3.70140353104566       -0.00005902773888
C            0.75807309118778        2.43888094578102       -0.00007031915189
C            2.85017215906398        1.15922552675372       -0.00000122443980
C           -5.76114455193854       -3.43898730300765        0.00004228045623
C            4.96331401587884       -0.09390623478830        0.00010259154375
C           -3.75520642742846       -4.77542043862216        0.00001358824618
C           -3.50425917305661        2.49999883018081        0.00003001315392
C            4.92414118287560       -2.52584625084838        0.00009777203448
C           -1.38458674909962        1.24266196406076       -0.00002960546297
C            0.71657197052725       -0.02532743376238       -0.00002147980690
C            2.81090976179666       -1.28636158174250        0.00002770857445
C           -5.61605608189308        1.24841060987995        0.00002670741097
C            2.79485641616389       -3.75120209430635        0.00001702597903
C           -3.51072389379414        0.05579967423386       -0.00004849429381
C            4.91276290040182       -4.93437640575415        0.00006717079033
C           -1.42570200700555       -1.20623982157150       -0.00005672286563
C            0.66333981452909       -2.48847060905892       -0.00003057803023
C            3.75318233389589        4.78323773938196       -0.00009026604202
C           -4.93321505082695        0.06808845027230       -0.00002802788467
C            3.52379935000371       -4.93698458031909        0.00002707017266
C           -2.82490795576650       -1.17051057543750       -0.00006622730400
C           -0.75544671603052       -2.46266646066470       -0.00005260138767
C            1.34704785845897       -3.72314799352941       -0.00002169873494
C            1.49354895706667        3.65223968907785       -0.00013970425975
C            3.57312628328008        2.38090315174511       -0.00001718767579
C           -4.99112384696900       -2.29014574499472       -0.00002243837587
C            5.66995458512598        1.14182813861350        0.00011155416175
C           -2.94794619491653       -3.63093493134124       -0.00003952484973
C           -0.78922286058026       -4.86819631286015       -0.00005334350614
C           -0.66263209054902        2.47189897143576       -0.00004698394604
C            1.43781661992211        1.19414664805869       -0.00002766259074
C            3.53397140259037       -0.07377283900577        0.00004399971261
C           -5.12907570029903       -4.67487586515448        0.00006233052376
C            5.62112674145304       -1.30511243071448        0.00013486197567
C           -2.80024635861479        1.27103927015235       -0.00002868640605
C            5.60914643842195       -3.75189548711547        0.00010450994964
C           -0.70436391561579        0.01062466225363       -0.00003855258700
C            1.39133646181709       -1.25954263526716       -0.00001040726983
C            3.50233400661775       -2.52342565257677        0.00004781607679
H           -6.69476826065283        3.69473851412238        0.00022088561678
H            1.06822720128856       -5.85684499734710       -0.00003726340422
H           -6.83578830053964       -3.35630854965745        0.00008113361121
H           -3.31211425286110       -5.75760043816355        0.00002848652453
H           -6.69450123469103        1.24291005328311        0.00005188165344
H            5.44340463258692       -5.87560762715077        0.00007326789806
H            3.02203342154004       -5.89084047172163        0.00000238112425
H           -1.31786516724400       -5.80776001961231       -0.00006155799036
H           -5.73032206253231       -5.57170413992881        0.00012294205856
H           -3.04459728495959        5.86860862898899        0.00036681474554
H           -1.08381890353839        5.84030364317816       -0.00036747078764
H           -5.46479628557849        5.82762417858932        0.00044635095523
H            5.77453492914884        5.48808056088548       -0.00004081579239
H            1.30593939108492        5.80009976795002       -0.00043625094498
H            3.32801525369922        5.77042046367428       -0.00011507571015
H            6.74820714554593        1.13460264067276        0.00016004892316
H            6.70149526714192       -1.32504840130075        0.00018104519198
H            6.68933493885799       -3.74855239039265        0.00013901607230
O            5.74365066494330        3.48290412913320        0.00000981731294
O           -5.64463152858697       -1.09666892298526       -0.00004367797389
72
 energy: -128.978134627359 gnorm: 0.000691867356 xtb: 6.7.1pre (5071a88)
C           -3.53786123764426        4.91099516390922        0.00023280799672
C           -5.61469747077264        3.70179701422981        0.00019664196263
C           -0.58971181778225        4.88290525598431       -0.00022698219402
C           -4.92333989782804        4.89282621767136        0.00029934738638
C           -2.79804081389199        3.72849223880496        0.00005936690628
C           -4.92323131822659        2.48563514930683        0.00007703429085
C            5.08741555964169        4.65408392302362       -0.00003750019257
C            0.77581381181717        4.86188447644038       -0.00026799590786
C            0.58198610215246       -4.89510939387735       -0.00003872058884
C            2.91505473950914        3.61031897887018       -0.00009238193589
C            5.00581263418558        2.32554817669068        0.00003360412439
C           -3.58730600983014       -2.37621818037704       -0.00004081707756
C           -1.50059190145812       -3.66410640694605       -0.00004501239633
C           -1.35189597571204        3.70178307940173       -0.00006274213512
C            0.75803037855018        2.43889358902480       -0.00007489473789
C            2.85024337843947        1.15932900697352       -0.00000636386149
C           -5.76013363285484       -3.43959480657989        0.00003482334224
C            4.96304241990715       -0.09391398479598        0.00009378498395
C           -3.75402041411266       -4.77590449993019        0.00001622066889
C           -3.50390759721637        2.50015526307896        0.00002704937064
C            4.92379415911653       -2.52599593140038        0.00009687665914
C           -1.38462025795852        1.24280398546631       -0.00003208908090
C            0.71652102839053       -0.02507194218388       -0.00002287298534
C            2.81056788896882       -1.28643936790901        0.00002700982575
C           -5.61590470888524        1.24842054468320        0.00003251662832
C            2.79425706585709       -3.75127186947487        0.00001820424071
C           -3.51096111269950        0.05591536458901       -0.00004198891597
C            4.91206600460207       -4.93500272082798        0.00007034124048
C           -1.42573006129052       -1.20603639767694       -0.00004734606952
C            0.66318706106211       -2.48826791324767       -0.00002358175219
C            3.75269755474379        4.78351443579216       -0.00009171547020
C           -4.93346913621843        0.06758652944717       -0.00002069574387
C            3.52299324857311       -4.93739463400096        0.00002713950370
C           -2.82486696920087       -1.17034303548853       -0.00005445820395
C           -0.75549934102948       -2.46239026575804       -0.00004226526500
C            1.34668589974064       -3.72319339776543       -0.00001652339719
C            1.49358045250619        3.65238475828509       -0.00014042924292
C            3.57337809739067        2.38071984321394       -0.00002135258277
C           -4.99100452663285       -2.28983631239783       -0.00001724343259
C            5.66990555590641        1.14164245700880        0.00010074227307
C           -2.94751691445343       -3.63074194719221       -0.00002895775266
C           -0.78937020179796       -4.86845262149440       -0.00005158838063
C           -0.66261384371151        2.47194914757275       -0.00005216376450
C            1.43780444417017        1.19434517014328       -0.00003275200891
C            3.53376731770574       -0.07387616724610        0.00003915737317
C           -5.12803428364367       -4.67553308276585        0.00005275787676
C            5.62111700637690       -1.30538990901852        0.00012849015450
C           -2.80027148010982        1.27105565481725       -0.00002860774203
C            5.60860310519827       -3.75243976566881        0.00010803787507
C           -0.70431481837760        0.01082219544531       -0.00003675289482
C            1.39109247482602       -1.25948234056876       -0.00000833999118
C            3.50190723108439       -2.52342503683141        0.00004807098991
H           -6.69454579386658        3.69397414824554        0.00023030802896
H            1.06805465425315       -5.85708758983145       -0.00004166980494
H           -6.83488865273238       -3.35661430323027        0.00006545180773
H           -3.30997962591759       -5.75761705184579        0.00003098186315
H           -6.69447798966094        1.24319500955677        0.00005879418204
H            5.44220154958958       -5.87651374106788        0.00007391595748
H            3.02064963938622       -5.89093211803318        0.00000095603009
H           -1.31815359182980       -5.80784728226438       -0.00006594233952
H           -5.72883332930921       -5.57264612026060        0.00009995700649
H           -3.04386178113924        5.86889734521894        0.00033885083482
H           -1.08364571001866        5.84084164873263       -0.00034522465992
H           -5.46417791468059        5.82818493117961        0.00043333812322
H            5.77216182451622        5.48954056878483       -0.00003360980596
H            1.30649569641532        5.80057626388369       -0.00040919044033
H            3.32647799373972        5.77017060405937       -0.00012284973073
H            6.74825021118160        1.13343921259087        0.00014676699374
H            6.70145619347203       -1.32497885213408        0.00017308758923
H            6.68878433291815       -3.74820953392173        0.00014274486315
O            5.74336253657190        3.48322625854903        0.00001662285279
O           -5.64445411997190       -1.09698008666250       -0.00003417932032
72
 energy: -128.978135213532 gnorm: 0.000237227381 xtb: 6.7.1pre (5071a88)
C           -3.53810206847876        4.91119176928869        0.00021395152748
C           -5.61488387939821        3.70202080711629        0.00019665459440
C           -0.58958422603891        4.88312221250151       -0.00021397682349
C           -4.92359267510681        4.89297953669506        0.00028584737118
C           -2.79810026815232        3.72872666760443        0.00005212374937
C           -4.92335088463665        2.48577330727684        0.00008027989917
C            5.08765286600065        4.65400501471002       -0.00003599684141
C            0.77590532486429        4.86206332329648       -0.00025284195728
C            0.58193884786309       -4.89522460486670       -0.00003792146313
C            2.91519540268008        3.61039081728691       -0.00009399260310
C            5.00616867403750        2.32563614168050        0.00002991976926
C           -3.58744831095519       -2.37628059564782       -0.00003018660093
C           -1.50065629792078       -3.66414326153049       -0.00003623399498
C           -1.35191175299626        3.70198456591183       -0.00006414961871
C            0.75805729687091        2.43896031870179       -0.00007775701695
C            2.85046326482608        1.15940333977703       -0.00001161105532
C           -5.76007271465044       -3.43991275280361        0.00002651674427
C            4.96321398018897       -0.09395776368547        0.00008450962879