      -----------------------------------------------------------      
     |                   =====================                   |     
     |                           x T B                           |     
     |                   =====================                   |     
     |                         S. Grimme                         |     
     |          Mulliken Center for Theoretical Chemistry        |     
     |                    University of Bonn                     |     
      -----------------------------------------------------------      

   * xtb version 6.7.1pre (5071a88) compiled by 'Marcel@Raven' on 2024-07-23

   xtb is free software: you can redistribute it and/or modify it under
   the terms of the GNU Lesser General Public License as published by
   the Free Software Foundation, either version 3 of the License, or
   (at your option) any later version.
   
   xtb is distributed in the hope that it will be useful,
   but WITHOUT ANY WARRANTY; without even the implied warranty of
   MERCHANTABILITY or FITNESS FOR A PARTICULAR PURPOSE.  See the
   GNU Lesser General Public License for more details.
   
   Cite this work as:
   * C. Bannwarth, E. Caldeweyher, S. Ehlert, A. Hansen, P. Pracht,
     J. Seibert, S. Spicher, S. Grimme, WIREs Comput. Mol. Sci., 2020, 11,
     e01493. DOI: 10.1002/wcms.1493
   
   for GFN2-xTB:
   * C. Bannwarth, S. Ehlert and S. Grimme., J. Chem. Theory Comput., 2019,
     15, 1652-1671. DOI: 10.1021/acs.jctc.8b01176
   for GFN1-xTB:
   * S. Grimme, C. Bannwarth, P. Shushkov, J. Chem. Theory Comput., 2017,
     13, 1989-2009. DOI: 10.1021/acs.jctc.7b00118
   for GFN0-xTB:
   * P. Pracht, E. Caldeweyher, S. Ehlert, S. Grimme, ChemRxiv, 2019, preprint.
     DOI: 10.26434/chemrxiv.8326202.v1
   for GFN-FF:
   * S. Spicher and S. Grimme, Angew. Chem. Int. Ed., 2020, 59, 15665-15673.
     DOI: 10.1002/anie.202004239
   
   for ALPB and GBSA implicit solvation:
   * S. Ehlert, M. Stahn, S. Spicher, S. Grimme, J. Chem. Theory Comput.,
     2021, 17, 4250-4261. DOI: 10.1021/acs.jctc.1c00471
   
   for ddCOSMO and CPCM-X implicit solvation:
   * M. Stahn, S. Ehlert, S. Grimme, J. Phys. Chem. A,
     2023, XX, XXXX-XXXX. DOI: 10.1021/acs.jpca.3c04382
   
   for DFT-D4:
   * E. Caldeweyher, C. Bannwarth and S. Grimme, J. Chem. Phys., 2017,
     147, 034112. DOI: 10.1063/1.4993215
   * E. Caldeweyher, S. Ehlert, A. Hansen, H. Neugebauer, S. Spicher,
     C. Bannwarth and S. Grimme, J. Chem. Phys., 2019, 150, 154122.
     DOI: 10.1063/1.5090222
   * E. Caldeweyher, J.-M. Mewes, S. Ehlert and S. Grimme, Phys. Chem. Chem. Phys.
     2020, 22, 8499-8512. DOI: 10.1039/D0CP00502A
   
   for sTDA-xTB:
   * S. Grimme and C. Bannwarth, J. Chem. Phys., 2016, 145, 054103.
     DOI: 10.1063/1.4959605
   
   in the mass-spec context:
   * V. Asgeirsson, C. Bauer and S. Grimme, Chem. Sci., 2017, 8, 4879.
     DOI: 10.1039/c7sc00601b
   * J. Koopman and S. Grimme, ACS Omega 2019, 4, 12, 15120-15133.
     DOI: 10.1021/acsomega.9b02011
   
   for metadynamics refer to:
   * S. Grimme, J. Chem. Theory Comput., 2019, 155, 2847-2862
     DOI: 10.1021/acs.jctc.9b00143
   
   for SPH calculations refer to:
   * S. Spicher and S. Grimme, J. Chem. Theory Comput., 2021, 17, 1701-1714
     DOI: 10.1021/acs.jctc.0c01306
   
   for ONIOM refer to:
   * C. Plett, A. Katbashev, S. Ehlert, S. Grimme, M. Bursch,
     Phys. Chem. Chem. Phys., 2023, 25, 17860-17868. DOI: 10.1039/D3CP02178E
   
   for DIPRO refer to:
   * J. Kohn, N. Gildemeister, S. Grimme, D. Fazzi, A. Hansen,
     J. Chem. Phys., 2023, just accepted.
   
   for PTB refer to:
   * S. Grimme, M. Mueller, A. Hansen, J. Chem. Phys., 2023, 158, 124111.
     DOI: 10.1063/5.0137838
   
   with help from (in alphabetical order)
   P. Atkinson, C. Bannwarth, F. Bohle, G. Brandenburg, E. Caldeweyher
   M. Checinski, S. Dohm, S. Ehlert, S. Ehrlich, I. Gerasimov, C. Hölzer
   A. Katbashev, J. Kohn, J. Koopman, C. Lavigne, S. Lehtola, F. März, M. Müller,
   F. Musil, H. Neugebauer, J. Pisarek, C. Plett, P. Pracht, F. Pultar,
   J. Seibert, P. Shushkov, S. Spicher, M. Stahn, M. Steiner, T. Strunk,
   J. Stückrath, T. Rose, and J. Unsleber
   
 * started run on 2025/12/08 at 00:34:18.015     
   ID    Z sym.   atoms
    1    6 C      1-98
    2    1 H      99-122
    3   16 S      123-128

           -------------------------------------------------
          |                Calculation Setup                |
           -------------------------------------------------

          program call               : xtb "C:\Users\LENOVO GAMING\Documents\GitHub\molecular-conductivity-sim\results\1.5nm-6Sdoped-5percent\xtbopt.xyz" --sp
          coordinate file            : C:\Users\LENOVO GAMING\Documents\GitHub\molecular-conductivity-sim\results\1.5nm-6Sdoped-5percent\xtbopt.xyz
          omp threads                :                    16


           -------------------------------------------------
          |                 G F N 2 - x T B                 |
           -------------------------------------------------

        Reference                      10.1021/acs.jctc.8b01176
      * Hamiltonian:
        H0-scaling (s, p, d)           1.850000    2.230000    2.230000
        zeta-weighting                 0.500000
      * Dispersion:
        s8                             2.700000
        a1                             0.520000
        a2                             5.000000
        s9                             5.000000
      * Repulsion:
        kExp                           1.500000    1.000000
        rExp                           1.000000
      * Coulomb:
        alpha                          2.000000
        third order                    shell-resolved
        anisotropic                    true
        a3                             3.000000
        a5                             4.000000
        cn-shift                       1.200000
        cn-exp                         4.000000
        max-rad                        5.000000

q/qsh data taken from xtbrestart
CAMM data taken from xtbrestart

          ...................................................
          :                      SETUP                      :
          :.................................................:
          :  # basis functions                 476          :
          :  # atomic orbitals                 470          :
          :  # shells                          238          :
          :  # electrons                       452          :
          :  max. iterations                   250          :
          :  Hamiltonian                  GFN2-xTB          :
          :  restarted?                       true          :
          :  GBSA solvation                  false          :
          :  PC potential                    false          :
          :  electronic temp.          300.0000000     K    :
          :  accuracy                    1.0000000          :
          :  -> integral cutoff          0.2500000E+02      :
          :  -> integral neglect         0.1000000E-07      :
          :  -> SCF convergence          0.1000000E-05 Eh   :
          :  -> wf. convergence          0.1000000E-03 e    :
          :  Broyden damping             0.4000000          :
          :  net charge                          0          :
          :  unpaired electrons                  0          :
          ...................................................

 iter      E             dE          RMSdq      gap      omega  full diag
   1   -246.6140726 -0.246614E+03  0.197E-05    0.61       0.0  T
   2   -246.6140726  0.851230E-09  0.657E-05    0.61     134.6  T
   3   -246.6140726 -0.918760E-09  0.538E-06    0.61    1644.1  T

   *** convergence criteria satisfied after 3 iterations ***

         #    Occupation            Energy/Eh            Energy/eV
      -------------------------------------------------------------
         1        2.0000           -0.7456896             -20.2912
       ...           ...                  ...                  ...
       220        2.0000           -0.3716978             -10.1144
       221        2.0000           -0.3638871              -9.9019
       222        2.0000           -0.3582581              -9.7487
       223        2.0000           -0.3532652              -9.6128
       224        2.0000           -0.3466572              -9.4330
       225        2.0000           -0.3415676              -9.2945
       226        2.0000           -0.3338147              -9.0836 (HOMO)
       227        0.0000           -0.3115447              -8.4776 (LUMO)
       228                         -0.3007678              -8.1843
       229                         -0.2936557              -7.9908
       230                         -0.2800443              -7.6204
       231                         -0.2749617              -7.4821
       ...                                ...                  ...
       470                          0.7753085              21.0972
      -------------------------------------------------------------
                  HL-Gap            0.0222700 Eh            0.6060 eV
             Fermi-level           -0.3226796 Eh           -8.7806 eV

 SCC (total)                   0 d,  0 h,  0 min,  0.303 sec
 SCC setup                      ...        0 min,  0.001 sec (  0.330%)
 Dispersion                     ...        0 min,  0.008 sec (  2.640%)
 classical contributions        ...        0 min,  0.000 sec (  0.000%)
 integral evaluation            ...        0 min,  0.031 sec ( 10.231%)
 iterations                     ...        0 min,  0.180 sec ( 59.406%)
 molecular gradient             ...        0 min,  0.080 sec ( 26.403%)
 printout                       ...        0 min,  0.003 sec (  0.990%)

         :::::::::::::::::::::::::::::::::::::::::::::::::::::
         ::                     SUMMARY                     ::
         :::::::::::::::::::::::::::::::::::::::::::::::::::::
         :: total energy            -242.194751920673 Eh    ::
         :: gradient norm              0.000214767258 Eh/a0 ::
         :: HOMO-LUMO gap              0.605997845078 eV    ::
         ::.................................................::
         :: SCC energy              -246.621014819065 Eh    ::
         :: -> isotropic ES            0.005870049790 Eh    ::
         :: -> anisotropic ES          0.007599529802 Eh    ::
         :: -> anisotropic XC          0.088367294783 Eh    ::
         :: -> dispersion             -0.302857591222 Eh    ::
         :: repulsion energy           4.426262898392 Eh    ::
         :: add. restraining           0.000000000000 Eh    ::
         :: total charge              -0.000000000000 e     ::
         :::::::::::::::::::::::::::::::::::::::::::::::::::::

           -------------------------------------------------
          |                Property Printout                |
           -------------------------------------------------

    * Orbital Energies and Occupations

         #    Occupation            Energy/Eh            Energy/eV
      -------------------------------------------------------------
         1        2.0000           -0.7456896             -20.2912
       ...           ...                  ...                  ...
       214        2.0000           -0.3931535             -10.6983
       215        2.0000           -0.3915909             -10.6557
       216        2.0000           -0.3911287             -10.6432
       217        2.0000           -0.3855302             -10.4908
       218        2.0000           -0.3837598             -10.4426
       219        2.0000           -0.3811225             -10.3709
       220        2.0000           -0.3716978             -10.1144
       221        2.0000           -0.3638871              -9.9019
       222        2.0000           -0.3582581              -9.7487
       223        2.0000           -0.3532652              -9.6128
       224        2.0000           -0.3466572              -9.4330
       225        2.0000           -0.3415676              -9.2945
       226        2.0000           -0.3338147              -9.0836 (HOMO)
       227        0.0000           -0.3115447              -8.4776 (LUMO)
       228                         -0.3007678              -8.1843
       229                         -0.2936557              -7.9908
       230                         -0.2800443              -7.6204
       231                         -0.2749617              -7.4821
       232                         -0.2670512              -7.2668
       233                         -0.2646168              -7.2006
       234                         -0.2617862              -7.1236
       235                         -0.2614406              -7.1142
       236                         -0.2590409              -7.0489
       237                         -0.2515876              -6.8460
       ...                                ...                  ...
       470                          0.7753085              21.0972
      -------------------------------------------------------------
                  HL-Gap            0.0222700 Eh            0.6060 eV
             Fermi-level           -0.3226796 Eh           -8.7806 eV

     #   Z          covCN         q      C6AA      α(0)
     1   6 C        2.923    -0.042    29.035     8.836
     2   6 C        3.001    -0.035    28.868     8.814
     3   6 C        2.986     0.000    28.019     8.683
     4   6 C        2.923    -0.043    29.060     8.840
     5   6 C        3.032    -0.001    28.016     8.682
     6   6 C        2.921    -0.034    28.850     8.808
     7   6 C        3.061    -0.005    28.097     8.693
     8   6 C        2.913    -0.040    28.996     8.830
     9   6 C        2.956     0.027    27.406     8.587
    10   6 C        2.982    -0.001    28.051     8.688
    11   6 C        3.018    -0.045    29.089     8.847
    12   6 C        3.003    -0.002    28.065     8.690
    13   6 C        3.003    -0.006    28.152     8.704
    14   6 C        3.002    -0.002    28.053     8.688
    15   6 C        3.020    -0.055    29.346     8.886
    16   6 C        2.916    -0.029    28.721     8.788
    17   6 C        2.990     0.005    27.892     8.663
    18   6 C        2.970     0.034    27.232     8.560
    19   6 C        3.147    -0.025    28.355     8.711
    20   6 C        2.970     0.048    26.923     8.511
    21   6 C        2.978     0.003    27.955     8.673
    22   6 C        2.981     0.001    27.989     8.678
    23   6 C        2.964     0.045    26.980     8.520
    24   6 C        2.991     0.000    28.010     8.682
    25   6 C        2.982     0.013    27.717     8.636
    26   6 C        2.890     0.000    28.021     8.679
    27   6 C        2.968     0.024    27.463     8.596
    28   6 C        2.958     0.042    27.060     8.532
    29   6 C        2.991     0.003    27.959     8.674
    30   6 C        2.971    -0.002    28.074     8.691
    31   6 C        2.968     0.040    27.103     8.539
    32   6 C        2.986     0.003    27.954     8.673
    33   6 C        2.989     0.000    28.011     8.682
    34   6 C        2.992     0.002    27.982     8.677
    35   6 C        2.990     0.013    27.706     8.634
    36   6 C        3.104    -0.043    28.923     8.812
    37   6 C        3.009     0.003    27.931     8.669
    38   6 C        2.983    -0.001    28.054     8.688
    39   6 C        2.999    -0.001    28.028     8.684
    40   6 C        3.040    -0.055    29.337     8.884
    41   6 C        2.985     0.006    27.872     8.660
    42   6 C        2.967     0.046    26.963     8.517
    43   6 C        2.917    -0.035    28.876     8.812
    44   6 C        2.992    -0.001    28.054     8.688
    45   6 C        2.929    -0.053    29.314     8.879
    46   6 C        2.987    -0.002    28.077     8.692
    47   6 C        3.003     0.003    27.952     8.673
    48   6 C        2.990     0.001    27.991     8.679
    49   6 C        3.046    -0.002    28.030     8.683
    50   6 C        2.991     0.002    27.972     8.676
    51   6 C        2.971     0.003    27.961     8.674
    52   6 C        2.992    -0.000    28.023     8.684
    53   6 C        2.973     0.046    26.958     8.517
    54   6 C        2.989     0.000    28.019     8.683
    55   6 C        2.956    -0.041    29.028     8.837
    56   6 C        2.985    -0.000    28.023     8.684
    57   6 C        2.993    -0.004    28.114     8.698
    58   6 C        2.988     0.002    27.973     8.676
    59   6 C        2.991     0.001    27.999     8.680
    60   6 C        2.987     0.006    27.873     8.660
    61   6 C        2.989    -0.000    28.026     8.684
    62   6 C        2.916    -0.029    28.723     8.788
    63   6 C        2.987    -0.000    28.026     8.684
    64   6 C        2.925    -0.050    29.244     8.868
    65   6 C        2.982     0.005    27.912     8.666
    66   6 C        2.993     0.001    28.004     8.681
    67   6 C        2.919    -0.038    28.938     8.822
    68   6 C        2.988    -0.004    28.125     8.699
    69   6 C        2.991     0.003    27.955     8.673
    70   6 C        2.997     0.002    27.977     8.676
    71   6 C        2.978     0.013    27.729     8.638
    72   6 C        2.919    -0.037    28.917     8.818
    73   6 C        2.990     0.002    27.977     8.677
    74   6 C        2.989    -0.001    28.043     8.687
    75   6 C        2.993    -0.006    28.150     8.703
    76   6 C        2.993     0.002    27.972     8.676
    77   6 C        3.039    -0.056    29.348     8.886
    78   6 C        2.981     0.006    27.884     8.662
    79   6 C        2.997     0.001    27.994     8.679
    80   6 C        2.991     0.001    27.993     8.679
    81   6 C        2.967     0.012    27.740     8.639
    82   6 C        2.988     0.001    27.992     8.679
    83   6 C        2.965     0.033    27.250     8.562
    84   6 C        2.998    -0.002    28.056     8.689
    85   6 C        2.922    -0.036    28.891     8.815
    86   6 C        2.990    -0.001    28.050     8.688
    87   6 C        3.004     0.001    27.998     8.680
    88   6 C        2.990     0.000    28.011     8.682
    89   6 C        3.025    -0.044    29.066     8.843
    90   6 C        2.987    -0.000    28.024     8.684
    91   6 C        2.888    -0.000    28.034     8.680
    92   6 C        2.983    -0.002    28.071     8.691
    93   6 C        2.989     0.001    27.989     8.678
    94   6 C        2.983     0.004    27.930     8.669
    95   6 C        2.989    -0.000    28.028     8.684
    96   6 C        2.925    -0.043    29.061     8.841
    97   6 C        2.988    -0.001    28.033     8.685
    98   6 C        2.990     0.002    27.973     8.676
    99   1 H        0.926     0.043     2.414     2.429
   100   1 H        0.926     0.036     2.502     2.473
   101   1 H        0.926     0.039     2.462     2.454
   102   1 H        0.926     0.035     2.520     2.482
   103   1 H        0.926     0.032     2.554     2.499
   104   1 H        0.926     0.041     2.432     2.439
   105   1 H        0.926     0.040     2.448     2.447
   106   1 H        0.926     0.037     2.496     2.470
   107   1 H        0.926     0.063     2.167     2.302
   108   1 H        0.926     0.057     2.238     2.340
   109   1 H        0.926     0.042     2.427     2.436
   110   1 H        0.926     0.037     2.494     2.469
   111   1 H        0.926     0.029     2.595     2.519
   112   1 H        0.925     0.042     2.422     2.434
   113   1 H        0.926     0.037     2.491     2.468
   114   1 H        0.926     0.032     2.557     2.501
   115   1 H        0.926     0.035     2.514     2.479
   116   1 H        0.926     0.035     2.515     2.480
   117   1 H        0.926     0.042     2.419     2.432
   118   1 H        0.926     0.045     2.382     2.413
   119   1 H        0.926     0.041     2.429     2.437
   120   1 H        0.926     0.050     2.321     2.382
   121   1 H        0.926     0.039     2.463     2.454
   122   1 H        0.926     0.037     2.492     2.469
   123  16 S        2.230    -0.104   145.383    20.294
   124  16 S        2.100    -0.071   144.017    20.198
   125  16 S        2.207    -0.106   145.491    20.301
   126  16 S        2.391    -0.133   146.625    20.380
   127  16 S        2.127    -0.040   142.701    20.106
   128  16 S        2.277    -0.069   143.918    20.191

 Mol. C6AA /au·bohr⁶  :     395986.627165
 Mol. C8AA /au·bohr⁸  :   11762904.808215
 Mol. α(0) /au        :       1032.653229


Wiberg/Mayer (AO) data.
largest (>0.10) Wiberg bond orders for each atom

 ---------------------------------------------------------------------------
     #   Z sym  total        # sym  WBO       # sym  WBO       # sym  WBO
 ---------------------------------------------------------------------------
     1   6 C    3.960 --     6 C    1.645     7 C    1.196    99 H    0.950
     2   6 C    3.965 --     8 C    1.650     9 C    1.206   100 H    0.949
     3   6 C    3.964 --     9 C    1.405     6 C    1.188    10 C    1.152
     4   6 C    3.977 --    16 C    1.481    17 C    1.333   101 H    0.962
     5   6 C    3.966 --    18 C    1.450    17 C    1.161     8 C    1.152
     6   6 C    3.967 --     1 C    1.645     3 C    1.188   102 H    0.962
     7   6 C    3.974 --    27 C    1.388     1 C    1.196    29 C    1.180
     8   6 C    3.898 --     2 C    1.650     5 C    1.152   103 H    0.962
     9   6 C    3.795 --     3 C    1.405     2 C    1.206   126 S    1.008
    10   6 C    3.926 --    29 C    1.373    32 C    1.173     3 C    1.152
    11   6 C    3.974 --    20 C    1.424    16 C    1.392   104 H    0.967
    12   6 C    3.979 --    20 C    1.291    17 C    1.262    21 C    1.195
    13   6 C    3.965 --    21 C    1.298    18 C    1.224    22 C    1.196
    14   6 C    3.953 --    24 C    1.272    21 C    1.228    23 C    1.228
    15   6 C    3.945 --    23 C    1.501    25 C    1.259   105 H    0.964
    16   6 C    3.977 --     4 C    1.481    11 C    1.392   106 H    0.969
    17   6 C    3.974 --     4 C    1.333    12 C    1.262     5 C    1.161
    18   6 C    3.912 --     5 C    1.450    13 C    1.224   126 S    1.004
    19   6 C    3.892 --    32 C    1.348    41 C    1.316   122 H    0.959
    20   6 C    3.954 --    11 C    1.424    12 C    1.291   125 S    1.061
    21   6 C    3.957 --    13 C    1.298    14 C    1.228    12 C    1.195
    22   6 C    3.931 --    50 C    1.321    13 C    1.196    41 C    1.185
    23   6 C    3.942 --    15 C    1.501    14 C    1.228   125 S    1.054
    24   6 C    3.972 --    14 C    1.272    57 C    1.255    50 C    1.213
    25   6 C    3.973 --    64 C    1.324    15 C    1.259    57 C    1.224
    26   6 C    3.892 --    36 C    1.670   127 S    1.148   107 H    0.960
    27   6 C    3.854 --     7 C    1.388    37 C    1.232   127 S    1.033
    28   6 C    3.835 --    37 C    1.378    36 C    1.205   128 S    1.109
    29   6 C    3.967 --    10 C    1.373    38 C    1.194     7 C    1.180
    30   6 C    3.936 --    38 C    1.323    39 C    1.244    37 C    1.142
    31   6 C    3.934 --    40 C    1.497    39 C    1.232   128 S    1.042
    32   6 C    3.963 --    19 C    1.348    70 C    1.239    10 C    1.173
    33   6 C    3.965 --    73 C    1.272    70 C    1.242    38 C    1.228
    34   6 C    3.972 --    39 C    1.254    75 C    1.245    73 C    1.244
    35   6 C    3.968 --    77 C    1.282    40 C    1.266    75 C    1.250
    36   6 C    3.977 --    26 C    1.670    28 C    1.205   108 H    0.953
    37   6 C    3.979 --    28 C    1.378    27 C    1.232    30 C    1.142
    38   6 C    3.965 --    30 C    1.323    33 C    1.228    29 C    1.194
    39   6 C    3.945 --    34 C    1.254    30 C    1.244    31 C    1.232
    40   6 C    3.950 --    31 C    1.497    35 C    1.266   109 H    0.963
    41   6 C    3.957 --    19 C    1.316    79 C    1.257    22 C    1.185
    42   6 C    3.940 --    77 C    1.481    84 C    1.239   123 S    1.060
    43   6 C    3.971 --    85 C    1.571    78 C    1.271   110 H    0.959
    44   6 C    3.975 --    70 C    1.258    79 C    1.247    80 C    1.238
    45   6 C    3.972 --    81 C    1.523    71 C    1.226   111 H    0.965
    46   6 C    3.960 --    80 C    1.271    82 C    1.239    73 C    1.229
    47   6 C    3.972 --    83 C    1.386    74 C    1.215    81 C    1.152
    48   6 C    3.973 --    84 C    1.263    75 C    1.245    82 C    1.236
    49   6 C    3.968 --    85 C    1.262    83 C    1.254    76 C    1.254
    50   6 C    3.973 --    22 C    1.321    86 C    1.216    24 C    1.213
    51   6 C    3.950 --    92 C    1.313    84 C    1.231    87 C    1.182
    52   6 C    3.961 --    86 C    1.266    88 C    1.243    79 C    1.236
    53   6 C    3.952 --    89 C    1.426    87 C    1.292   123 S    1.057
    54   6 C    3.964 --    90 C    1.269    88 C    1.239    80 C    1.237
    55   6 C    3.980 --    91 C    1.741    81 C    1.141   112 H    0.956
    56   6 C    3.961 --    82 C    1.271    90 C    1.238    92 C    1.233
    57   6 C    3.962 --    93 C    1.256    24 C    1.255    25 C    1.224
    58   6 C    3.983 --    94 C    1.307    98 C    1.248    92 C    1.199
    59   6 C    3.961 --    95 C    1.274    86 C    1.253    93 C    1.219
    60   6 C    3.973 --    96 C    1.337    87 C    1.275    94 C    1.156
    61   6 C    3.963 --    88 C    1.263    97 C    1.243    95 C    1.240
    62   6 C    3.976 --    96 C    1.481    89 C    1.392   113 H    0.969
    63   6 C    3.962 --    97 C    1.281    90 C    1.236    98 C    1.225
    64   6 C    3.894 --    71 C    1.392    25 C    1.324   114 H    0.966
    65   6 C    3.959 --    72 C    1.295    98 C    1.280    78 C    1.185
    66   6 C    3.961 --    93 C    1.278    74 C    1.256    71 C    1.200
    67   6 C    3.965 --    72 C    1.540    94 C    1.296   115 H    0.960
    68   6 C    3.978 --    74 C    1.266    76 C    1.252    95 C    1.229
    69   6 C    3.980 --    78 C    1.297    76 C    1.239    97 C    1.218
    70   6 C    3.959 --    44 C    1.258    33 C    1.242    32 C    1.239
    71   6 C    3.972 --    64 C    1.392    45 C    1.226    66 C    1.200
    72   6 C    3.962 --    67 C    1.540    65 C    1.295   116 H    0.959
    73   6 C    3.970 --    33 C    1.272    34 C    1.244    46 C    1.229
    74   6 C    3.965 --    68 C    1.266    66 C    1.256    47 C    1.215
    75   6 C    3.975 --    35 C    1.250    48 C    1.245    34 C    1.245
    76   6 C    3.976 --    49 C    1.254    68 C    1.252    69 C    1.239
    77   6 C    3.955 --    42 C    1.481    35 C    1.282   117 H    0.964
    78   6 C    3.948 --    69 C    1.297    43 C    1.271    65 C    1.185
    79   6 C    3.960 --    41 C    1.257    44 C    1.247    52 C    1.236
    80   6 C    3.962 --    46 C    1.271    44 C    1.238    54 C    1.237
    81   6 C    3.972 --    45 C    1.523    47 C    1.152    55 C    1.141
    82   6 C    3.967 --    56 C    1.271    46 C    1.239    48 C    1.236
    83   6 C    3.896 --    47 C    1.386    49 C    1.254   124 S    1.055
    84   6 C    3.954 --    48 C    1.263    42 C    1.239    51 C    1.231
    85   6 C    3.953 --    43 C    1.571    49 C    1.262   118 H    0.955
    86   6 C    3.954 --    52 C    1.266    59 C    1.253    50 C    1.216
    87   6 C    3.976 --    53 C    1.292    60 C    1.275    51 C    1.182
    88   6 C    3.963 --    61 C    1.263    52 C    1.243    54 C    1.239
    89   6 C    3.973 --    53 C    1.426    62 C    1.392   119 H    0.967
    90   6 C    3.957 --    54 C    1.269    56 C    1.238    63 C    1.236
    91   6 C    3.941 --    55 C    1.741   124 S    1.110   120 H    0.962
    92   6 C    3.974 --    51 C    1.313    56 C    1.233    58 C    1.199
    93   6 C    3.974 --    66 C    1.278    57 C    1.256    59 C    1.219
    94   6 C    3.964 --    58 C    1.307    67 C    1.296    60 C    1.156
    95   6 C    3.962 --    59 C    1.274    61 C    1.240    68 C    1.229
    96   6 C    3.978 --    62 C    1.481    60 C    1.337   121 H    0.960
    97   6 C    3.960 --    63 C    1.281    61 C    1.243    69 C    1.218
    98   6 C    3.976 --    65 C    1.280    58 C    1.248    63 C    1.225
    99   1 H    0.996 --     1 C    0.950
   100   1 H    0.993 --     2 C    0.949
   101   1 H    0.997 --     4 C    0.962
   102   1 H    0.997 --     6 C    0.962
   103   1 H    0.998 --     8 C    0.962
   104   1 H    0.997 --    11 C    0.967
   105   1 H    0.997 --    15 C    0.964
   106   1 H    0.997 --    16 C    0.969
   107   1 H    0.995 --    26 C    0.960
   108   1 H    0.996 --    36 C    0.953
   109   1 H    0.997 --    40 C    0.963
   110   1 H    0.998 --    43 C    0.959
   111   1 H    0.998 --    45 C    0.965
   112   1 H    0.997 --    55 C    0.956
   113   1 H    0.997 --    62 C    0.969
   114   1 H    0.998 --    64 C    0.966
   115   1 H    0.998 --    67 C    0.960
   116   1 H    0.997 --    72 C    0.959
   117   1 H    0.997 --    77 C    0.964
   118   1 H    0.997 --    85 C    0.955
   119   1 H    0.997 --    89 C    0.967
   120   1 H    0.996 --    91 C    0.962
   121   1 H    0.997 --    96 C    0.960
   122   1 H    0.997 --    19 C    0.959
   123  16 S    2.434 --    42 C    1.060    53 C    1.057
   124  16 S    2.486 --    91 C    1.110    83 C    1.055
   125  16 S    2.436 --    20 C    1.061    23 C    1.054
   126  16 S    2.398 --     9 C    1.008    18 C    1.004
   127  16 S    2.504 --    26 C    1.148    27 C    1.033
   128  16 S    2.459 --    28 C    1.109    31 C    1.042
 ---------------------------------------------------------------------------

Topologies differ in total number of bonds
Writing topology from bond orders to xtbtopo.mol

molecular dipole:
                 x           y           z       tot (Debye)
 q only:       -0.904       0.193       0.254
   full:       -0.780      -0.009       0.336       2.159
molecular quadrupole (traceless):
                xx          xy          yy          xz          yz          zz
 q only:       13.367      35.109      17.244       0.694      -7.685     -30.610
  q+dip:       32.556      35.776      33.294       2.009     -10.991     -65.850
   full:       16.452      37.285      17.080       1.587      -9.763     -33.532


           -------------------------------------------------
          | TOTAL ENERGY             -242.194751920673 Eh   |
          | GRADIENT NORM               0.000214767258 Eh/α |
          | HOMO-LUMO GAP               0.605997845078 eV   |
           -------------------------------------------------

------------------------------------------------------------------------
 * finished run on 2025/12/08 at 00:34:18.409     
------------------------------------------------------------------------
 total:
 * wall-time:     0 d,  0 h,  0 min,  0.391 sec
 *  cpu-time:     0 d,  0 h,  0 min,  4.891 sec
 * ratio c/w:    12.508 speedup
 SCF:
 * wall-time:     0 d,  0 h,  0 min,  0.307 sec
 *  cpu-time:     0 d,  0 h,  0 min,  3.859 sec
 * ratio c/w:    12.571 speedup

normal termination of xtb
