      -----------------------------------------------------------      
     |                   =====================                   |     
     |                           x T B                           |     
     |                   =====================                   |     
     |                         S. Grimme                         |     
     |          Mulliken Center for Theoretical Chemistry        |     
     |                    University of Bonn                     |     
      -----------------------------------------------------------      

   * xtb version 6.7.1pre (5071a88) compiled by 'Marcel@Raven' on 2024-07-23

   xtb is free software: you can redistribute it and/or modify it under
   the terms of the GNU Lesser General Public License as published by
   the Free Software Foundation, either version 3 of the License, or
   (at your option) any later version.
   
   xtb is distributed in the hope that it will be useful,
   but WITHOUT ANY WARRANTY; without even the implied warranty of
   MERCHANTABILITY or FITNESS FOR A PARTICULAR PURPOSE.  See the
   GNU Lesser General Public License for more details.
   
   Cite this work as:
   * C. Bannwarth, E. Caldeweyher, S. Ehlert, A. Hansen, P. Pracht,
     J. Seibert, S. Spicher, S. Grimme, WIREs Comput. Mol. Sci., 2020, 11,
     e01493. DOI: 10.1002/wcms.1493
   
   for GFN2-xTB:
   * C. Bannwarth, S. Ehlert and S. Grimme., J. Chem. Theory Comput., 2019,
     15, 1652-1671. DOI: 10.1021/acs.jctc.8b01176
   for GFN1-xTB:
   * S. Grimme, C. Bannwarth, P. Shushkov, J. Chem. Theory Comput., 2017,
     13, 1989-2009. DOI: 10.1021/acs.jctc.7b00118
   for GFN0-xTB:
   * P. Pracht, E. Caldeweyher, S. Ehlert, S. Grimme, ChemRxiv, 2019, preprint.
     DOI: 10.26434/chemrxiv.8326202.v1
   for GFN-FF:
   * S. Spicher and S. Grimme, Angew. Chem. Int. Ed., 2020, 59, 15665-15673.
     DOI: 10.1002/anie.202004239
   
   for ALPB and GBSA implicit solvation:
   * S. Ehlert, M. Stahn, S. Spicher, S. Grimme, J. Chem. Theory Comput.,
     2021, 17, 4250-4261. DOI: 10.1021/acs.jctc.1c00471
   
   for ddCOSMO and CPCM-X implicit solvation:
   * M. Stahn, S. Ehlert, S. Grimme, J. Phys. Chem. A,
     2023, XX, XXXX-XXXX. DOI: 10.1021/acs.jpca.3c04382
   
   for DFT-D4:
   * E. Caldeweyher, C. Bannwarth and S. Grimme, J. Chem. Phys., 2017,
     147, 034112. DOI: 10.1063/1.4993215
   * E. Caldeweyher, S. Ehlert, A. Hansen, H. Neugebauer, S. Spicher,
     C. Bannwarth and S. Grimme, J. Chem. Phys., 2019, 150, 154122.
     DOI: 10.1063/1.5090222
   * E. Caldeweyher, J.-M. Mewes, S. Ehlert and S. Grimme, Phys. Chem. Chem. Phys.
     2020, 22, 8499-8512. DOI: 10.1039/D0CP00502A
   
   for sTDA-xTB:
   * S. Grimme and C. Bannwarth, J. Chem. Phys., 2016, 145, 054103.
     DOI: 10.1063/1.4959605
   
   in the mass-spec context:
   * V. Asgeirsson, C. Bauer and S. Grimme, Chem. Sci., 2017, 8, 4879.
     DOI: 10.1039/c7sc00601b
   * J. Koopman and S. Grimme, ACS Omega 2019, 4, 12, 15120-15133.
     DOI: 10.1021/acsomega.9b02011
   
   for metadynamics refer to:
   * S. Grimme, J. Chem. Theory Comput., 2019, 155, 2847-2862
     DOI: 10.1021/acs.jctc.9b00143
   
   for SPH calculations refer to:
   * S. Spicher and S. Grimme, J. Chem. Theory Comput., 2021, 17, 1701-1714
     DOI: 10.1021/acs.jctc.0c01306
   
   for ONIOM refer to:
   * C. Plett, A. Katbashev, S. Ehlert, S. Grimme, M. Bursch,
     Phys. Chem. Chem. Phys., 2023, 25, 17860-17868. DOI: 10.1039/D3CP02178E
   
   for DIPRO refer to:
   * J. Kohn, N. Gildemeister, S. Grimme, D. Fazzi, A. Hansen,
     J. Chem. Phys., 2023, just accepted.
   
   for PTB refer to:
   * S. Grimme, M. Mueller, A. Hansen, J. Chem. Phys., 2023, 158, 124111.
     DOI: 10.1063/5.0137838
   
   with help from (in alphabetical order)
   P. Atkinson, C. Bannwarth, F. Bohle, G. Brandenburg, E. Caldeweyher
   M. Checinski, S. Dohm, S. Ehlert, S. Ehrlich, I. Gerasimov, C. Hölzer
   A. Katbashev, J. Kohn, J. Koopman, C. Lavigne, S. Lehtola, F. März, M. Müller,
   F. Musil, H. Neugebauer, J. Pisarek, C. Plett, P. Pracht, F. Pultar,
   J. Seibert, P. Shushkov, S. Spicher, M. Stahn, M. Steiner, T. Strunk,
   J. Stückrath, T. Rose, and J. Unsleber
   
 * started run on 2025/12/08 at 00:33:59.600     
   ID    Z sym.   atoms
    1    6 C      1-98
    2    1 H      99-122
    3   16 S      123-128

           -------------------------------------------------
          |                Calculation Setup                |
           -------------------------------------------------

          program call               : xtb "C:\Users\LENOVO GAMING\Documents\GitHub\molecular-conductivity-sim\dataset\1.5nm-6Sdoped-5percent.xyz" --opt --parallel 4
          coordinate file            : C:\Users\LENOVO GAMING\Documents\GitHub\molecular-conductivity-sim\dataset\1.5nm-6Sdoped-5percent.xyz
          omp threads                :                     4


           -------------------------------------------------
          |                 G F N 2 - x T B                 |
           -------------------------------------------------

        Reference                      10.1021/acs.jctc.8b01176
      * Hamiltonian:
        H0-scaling (s, p, d)           1.850000    2.230000    2.230000
        zeta-weighting                 0.500000
      * Dispersion:
        s8                             2.700000
        a1                             0.520000
        a2                             5.000000
        s9                             5.000000
      * Repulsion:
        kExp                           1.500000    1.000000
        rExp                           1.000000
      * Coulomb:
        alpha                          2.000000
        third order                    shell-resolved
        anisotropic                    true
        a3                             3.000000
        a5                             4.000000
        cn-shift                       1.200000
        cn-exp                         4.000000
        max-rad                        5.000000


          ...................................................
          :                      SETUP                      :
          :.................................................:
          :  # basis functions                 476          :
          :  # atomic orbitals                 470          :
          :  # shells                          238          :
          :  # electrons                       452          :
          :  max. iterations                   250          :
          :  Hamiltonian                  GFN2-xTB          :
          :  restarted?                      false          :
          :  GBSA solvation                  false          :
          :  PC potential                    false          :
          :  electronic temp.          300.0000000     K    :
          :  accuracy                    1.0000000          :
          :  -> integral cutoff          0.2500000E+02      :
          :  -> integral neglect         0.1000000E-07      :
          :  -> SCF convergence          0.1000000E-05 Eh   :
          :  -> wf. convergence          0.1000000E-03 e    :
          :  Broyden damping             0.4000000          :
          :  net charge                          0          :
          :  unpaired electrons                  0          :
          ...................................................

 iter      E             dE          RMSdq      gap      omega  full diag
   1   -246.1558283 -0.246156E+03  0.508E+00    0.85       0.0  T
   2   -245.8151113  0.340717E+00  0.343E+00    0.62       1.0  T
   3   -240.1564250  0.565869E+01  0.423E+00    0.06       1.0  T
   4   -245.2846315 -0.512821E+01  0.169E+00    0.22       1.0  T
   5   -246.1473548 -0.862723E+00  0.103E+00    0.89       1.0  T
   6   -246.2555594 -0.108205E+00  0.624E-01    0.83       1.0  T
   7   -246.2830341 -0.274747E-01  0.414E-01    0.74       1.0  T
   8   -246.3026065 -0.195723E-01  0.150E-01    0.64       1.0  T
   9   -246.3047357 -0.212925E-02  0.613E-02    0.61       1.0  T
  10   -246.3048584 -0.122684E-03  0.381E-02    0.61       1.0  T
  11   -246.3049551 -0.967401E-04  0.225E-02    0.61       1.0  T
  12   -246.3049999 -0.447248E-04  0.996E-03    0.61       1.0  T
  13   -246.3050107 -0.107896E-04  0.433E-03    0.61       2.0  T
  14   -246.3050121 -0.144527E-05  0.204E-03    0.61       4.3  T
  15   -246.3050122 -0.102044E-06  0.119E-03    0.61       7.4  T
  16   -246.3050123 -0.132097E-06  0.619E-04    0.61      14.3  T
  17   -246.3050124 -0.447201E-07  0.395E-04    0.61      22.4  T

   *** convergence criteria satisfied after 17 iterations ***

         #    Occupation            Energy/Eh            Energy/eV
      -------------------------------------------------------------
         1        2.0000           -0.7450377             -20.2735
       ...           ...                  ...                  ...
       220        2.0000           -0.3708852             -10.0923
       221        2.0000           -0.3638022              -9.8996
       222        2.0000           -0.3588941              -9.7660
       223        2.0000           -0.3543790              -9.6431
       224        2.0000           -0.3487201              -9.4892
       225        2.0000           -0.3425516              -9.3213
       226        2.0000           -0.3339477              -9.0872 (HOMO)
       227        0.0000           -0.3115693              -8.4782 (LUMO)
       228                         -0.3015566              -8.2058
       229                         -0.2946963              -8.0191
       230                         -0.2813109              -7.6549
       231                         -0.2765344              -7.5249
       ...                                ...                  ...
       470                          0.7407595              20.1571
      -------------------------------------------------------------
                  HL-Gap            0.0223784 Eh            0.6089 eV
             Fermi-level           -0.3227585 Eh           -8.7827 eV

 SCC (total)                   0 d,  0 h,  0 min,  1.435 sec
 SCC setup                      ...        0 min,  0.003 sec (  0.209%)
 Dispersion                     ...        0 min,  0.007 sec (  0.488%)
 classical contributions        ...        0 min,  0.000 sec (  0.000%)
 integral evaluation            ...        0 min,  0.049 sec (  3.415%)
 iterations                     ...        0 min,  1.192 sec ( 83.066%)
 molecular gradient             ...        0 min,  0.178 sec ( 12.404%)
 printout                       ...        0 min,  0.006 sec (  0.418%)

         :::::::::::::::::::::::::::::::::::::::::::::::::::::
         ::                     SUMMARY                     ::
         :::::::::::::::::::::::::::::::::::::::::::::::::::::
         :: total energy            -242.174034259973 Eh    ::
         :: gradient norm              0.050186246138 Eh/a0 ::
         :: HOMO-LUMO gap              0.608948085324 eV    ::
         ::.................................................::
         :: SCC energy              -246.311816420698 Eh    ::
         :: -> isotropic ES            0.005654596225 Eh    ::
         :: -> anisotropic ES          0.008232539731 Eh    ::
         :: -> anisotropic XC          0.094005411826 Eh    ::
         :: -> dispersion             -0.298243708311 Eh    ::
         :: repulsion energy           4.137782160725 Eh    ::
         :: add. restraining           0.000000000000 Eh    ::
         :: total charge               0.000000001401 e     ::
         :::::::::::::::::::::::::::::::::::::::::::::::::::::

      ----------------------------------------------------------- 
     |                   =====================                   |
     |                        A N C O P T                        |
     |                   =====================                   |
     |               Approximate Normal Coordinate               |
     |                Rational Function Optimizer                |
      ----------------------------------------------------------- 
      ----------------------------------------------------------- 
     |                   =====================                   |
     |                        A N C O P T                        |
     |                   =====================                   |
     |               Approximate Normal Coordinate               |
     |                Rational Function Optimizer                |
      ----------------------------------------------------------- 

          ...................................................
          :                      SETUP                      :
          :.................................................:
          :   optimization level            normal          :
          :   max. optcycles                   384          :
          :   ANC micro-cycles                  20          :
          :   degrees of freedom               378          :
          :.................................................:
          :   RF solver                   davidson          :
          :   write xtbopt.log                true          :
          :   linear?                        false          :
          :   energy convergence         0.5000000E-05 Eh   :
          :   grad. convergence          0.1000000E-02 Eh/α :
          :   maxmium RF displ.          1.0000000          :
          :   Hlow (freq-cutoff)         0.1000000E-01      :
          :   Hmax (freq-cutoff)         5.0000000          :
          :   S6 in model hess.         20.0000000          :
          ...................................................

generating ANC from exact Hessian ...
Using Lindh-Hessian (1995)
 Shifting diagonal of input Hessian by   9.876005106308278E-003
 Lowest  eigenvalues of input Hessian
    0.000000    0.000000    0.000000    0.000000    0.000000    0.000000
    0.010000    0.010155    0.010236    0.010419    0.010477    0.011186
    0.011344    0.011532    0.011691    0.012095    0.012755    0.013294
 Highest eigenvalues
    2.059043    2.063944    2.080299    2.100352    2.123955    2.127289
 

........................................................................
.............................. CYCLE    1 ..............................
........................................................................

 iter      E             dE          RMSdq      gap      omega  full diag
   1   -246.3050124 -0.246305E+03  0.242E-04    0.61       0.0  T
   2   -246.3050124  0.928543E-08  0.278E-04    0.61      31.8  T
   3   -246.3050124 -0.370048E-08  0.220E-04    0.61      40.2  T
     SCC iter.                  ...        0 min,  0.213 sec
     gradient                   ...        0 min,  0.185 sec
 * total energy  :  -242.1740343 Eh     change       -0.6815526E-10 Eh
   gradient norm :     0.0501860 Eh/α   predicted     0.0000000E+00 (-100.00%)
   displ. norm   :     0.5267399 α      lambda       -0.1898606E-01
   maximum displ.:     0.3012913 α      in ANC's #44, #49, #40, ...

........................................................................
.............................. CYCLE    2 ..............................
........................................................................

 iter      E             dE          RMSdq      gap      omega  full diag
   1   -246.4500961 -0.246450E+03  0.146E-01    0.61       0.0  T
   2   -246.4488098  0.128628E-02  0.119E-01    0.64       1.0  T
   3   -246.4429715  0.583831E-02  0.193E-01    0.58       1.0  T
   4   -246.4496535 -0.668204E-02  0.648E-02    0.63       1.0  T
   5   -246.4503817 -0.728134E-03  0.169E-02    0.62       1.0  T
   6   -246.4504134 -0.316998E-04  0.792E-03    0.61       1.1  T
   7   -246.4504201 -0.675652E-05  0.240E-03    0.61       3.7  T
   8   -246.4504205 -0.337718E-06  0.132E-03    0.61       6.7  T
   9   -246.4504206 -0.187150E-06  0.546E-04    0.61      16.2  T
  10   -246.4504207 -0.310703E-07  0.261E-04    0.61      33.9  T
     SCC iter.                  ...        0 min,  0.738 sec
     gradient                   ...        0 min,  0.195 sec
 * total energy  :  -242.1878508 Eh     change       -0.1381658E-01 Eh
   gradient norm :     0.0234328 Eh/α   predicted    -0.1212703E-01 ( -12.23%)
   displ. norm   :     0.5397674 α      lambda       -0.9036384E-02
   maximum displ.:     0.2942146 α      in ANC's #44, #49, #40, ...

........................................................................
.............................. CYCLE    3 ..............................
........................................................................

 iter      E             dE          RMSdq      gap      omega  full diag
   1   -246.5744080 -0.246574E+03  0.123E-01    0.60       0.0  T
   2   -246.5736469  0.761113E-03  0.976E-02    0.62       1.0  T
   3   -246.5678698  0.577710E-02  0.180E-01    0.57       1.0  T
   4   -246.5740412 -0.617135E-02  0.522E-02    0.61       1.0  T
   5   -246.5744922 -0.451046E-03  0.140E-02    0.61       1.0  T
   6   -246.5745180 -0.257771E-04  0.585E-03    0.60       1.5  T
   7   -246.5745219 -0.388569E-05  0.188E-03    0.60       4.7  T
   8   -246.5745223 -0.447113E-06  0.852E-04    0.60      10.4  T
   9   -246.5745224 -0.517672E-07  0.406E-04    0.60      21.8  T
     SCC iter.                  ...        0 min,  0.709 sec
     gradient                   ...        0 min,  0.193 sec
 * total energy  :  -242.1932720 Eh     change       -0.5421179E-02 Eh
   gradient norm :     0.0125451 Eh/α   predicted    -0.5834562E-02 (   7.63%)
   displ. norm   :     0.2871772 α      lambda       -0.1884287E-02
   maximum displ.:     0.1750784 α      in ANC's #44, #40, #49, ...

........................................................................
.............................. CYCLE    4 ..............................
........................................................................

 iter      E             dE          RMSdq      gap      omega  full diag
   1   -246.6153188 -0.246615E+03  0.773E-02    0.60       0.0  T
   2   -246.6152711  0.477035E-04  0.454E-02    0.60       1.0  T
   3   -246.6132822  0.198898E-02  0.990E-02    0.58       1.0  T
   4   -246.6152289 -0.194671E-02  0.283E-02    0.61       1.0  T
   5   -246.6153657 -0.136876E-03  0.742E-03    0.60       1.2  T
   6   -246.6153704 -0.468249E-05  0.335E-03    0.60       2.6  T
   7   -246.6153715 -0.108333E-05  0.147E-03    0.60       6.0  T
   8   -246.6153717 -0.160627E-06  0.761E-04    0.60      11.6  T
   9   -246.6153717 -0.658727E-07  0.321E-04    0.60      27.5  T
     SCC iter.                  ...        0 min,  0.680 sec
     gradient                   ...        0 min,  0.196 sec
 * total energy  :  -242.1940999 Eh     change       -0.8278771E-03 Eh
   gradient norm :     0.0076136 Eh/α   predicted    -0.1019844E-02 (  23.19%)
   displ. norm   :     0.1222509 α      lambda       -0.3896572E-03
   maximum displ.:     0.0487924 α      in ANC's #11, #18, #6, ...

........................................................................
.............................. CYCLE    5 ..............................
........................................................................

 iter      E             dE          RMSdq      gap      omega  full diag
   1   -246.6176268 -0.246618E+03  0.339E-02    0.60       0.0  T
   2   -246.6176168  0.100435E-04  0.204E-02    0.60       1.0  T
   3   -246.6172693  0.347474E-03  0.419E-02    0.61       1.0  T
   4   -246.6176099 -0.340565E-03  0.126E-02    0.59       1.0  T
   5   -246.6176384 -0.285384E-04  0.308E-03    0.60       2.9  T
   6   -246.6176392 -0.777076E-06  0.158E-03    0.60       5.6  T
   7   -246.6176395 -0.373022E-06  0.497E-04    0.60      17.8  T
   8   -246.6176396 -0.169885E-07  0.287E-04    0.60      30.8  T
     SCC iter.                  ...        0 min,  0.617 sec
     gradient                   ...        0 min,  0.188 sec
 * total energy  :  -242.1943252 Eh     change       -0.2253102E-03 Eh
   gradient norm :     0.0037511 Eh/α   predicted    -0.1977409E-03 ( -12.24%)
   displ. norm   :     0.0989464 α      lambda       -0.1130508E-03
   maximum displ.:     0.0510817 α      in ANC's #11, #8, #6, ...

........................................................................
.............................. CYCLE    6 ..............................
........................................................................

 iter      E             dE          RMSdq      gap      omega  full diag
   1   -246.6141798 -0.246614E+03  0.203E-02    0.60       0.0  T
   2   -246.6141682  0.116200E-04  0.141E-02    0.59       1.0  T
   3   -246.6139667  0.201553E-03  0.320E-02    0.61       1.0  T
   4   -246.6141788 -0.212149E-03  0.421E-03    0.60       2.1  T
   5   -246.6141816 -0.282297E-05  0.932E-04    0.60       9.5  T
   6   -246.6141817 -0.732335E-07  0.421E-04    0.60      21.0  T
   7   -246.6141817 -0.227766E-07  0.171E-04    0.60      51.6  T
     SCC iter.                  ...        0 min,  0.520 sec
     gradient                   ...        0 min,  0.201 sec
 * total energy  :  -242.1944146 Eh     change       -0.8937565E-04 Eh
   gradient norm :     0.0018791 Eh/α   predicted    -0.5708001E-04 ( -36.13%)
   displ. norm   :     0.3045750 α      lambda       -0.1511488E-03
   maximum displ.:     0.1600484 α      in ANC's #11, #8, #6, ...

........................................................................
.............................. CYCLE    7 ..............................
........................................................................

 iter      E             dE          RMSdq      gap      omega  full diag
   1   -246.6088142 -0.246609E+03  0.589E-02    0.60       0.0  T
   2   -246.6088005  0.136419E-04  0.349E-02    0.59       1.0  T
   3   -246.6078585  0.941994E-03  0.668E-02    0.62       1.0  T
   4   -246.6087930 -0.934489E-03  0.123E-02    0.60       1.0  T
   5   -246.6088195 -0.264560E-04  0.284E-03    0.60       3.1  T
   6   -246.6088200 -0.537172E-06  0.120E-03    0.60       7.4  T
   7   -246.6088202 -0.187501E-06  0.431E-04    0.60      20.5  T
   8   -246.6088202 -0.175371E-07  0.211E-04    0.60      41.9  T
     SCC iter.                  ...        0 min,  0.588 sec
     gradient                   ...        0 min,  0.179 sec
 * total energy  :  -242.1945215 Eh     change       -0.1069621E-03 Eh
   gradient norm :     0.0044891 Eh/α   predicted    -0.7869461E-04 ( -26.43%)
   displ. norm   :     0.0496590 α      lambda       -0.4082206E-04
   maximum displ.:     0.0196295 α      in ANC's #11, #4, #6, ...

........................................................................
.............................. CYCLE    8 ..............................
........................................................................

 iter      E             dE          RMSdq      gap      omega  full diag
   1   -246.6107631 -0.246611E+03  0.965E-03    0.60       0.0  T
   2   -246.6107583  0.474776E-05  0.747E-03    0.60       1.2  T
   3   -246.6107187  0.396384E-04  0.147E-02    0.60       1.0  T
   4   -246.6107632 -0.444766E-04  0.174E-03    0.60       5.1  T
   5   -246.6107636 -0.441767E-06  0.608E-04    0.60      14.5  T
   6   -246.6107637 -0.483629E-07  0.271E-04    0.60      32.6  T
     SCC iter.                  ...        0 min,  0.417 sec
     gradient                   ...        0 min,  0.179 sec
 * total energy  :  -242.1945569 Eh     change       -0.3537321E-04 Eh
   gradient norm :     0.0031673 Eh/α   predicted    -0.2046466E-04 ( -42.15%)
   displ. norm   :     0.1877072 α      lambda       -0.1013335E-03
   maximum displ.:     0.0753942 α      in ANC's #4, #11, #6, ...

........................................................................
.............................. CYCLE    9 ..............................
........................................................................

 iter      E             dE          RMSdq      gap      omega  full diag
   1   -246.6141280 -0.246614E+03  0.333E-02    0.60       0.0  T
   2   -246.6140981  0.298865E-04  0.229E-02    0.61       1.0  T
   3   -246.6134834  0.614662E-03  0.552E-02    0.59       1.0  T
   4   -246.6141284 -0.644993E-03  0.495E-03    0.61       1.8  T
   5   -246.6141313 -0.285239E-05  0.215E-03    0.60       4.1  T
   6   -246.6141319 -0.625754E-06  0.858E-04    0.60      10.3  T
   7   -246.6141320 -0.900568E-07  0.279E-04    0.60      31.7  T
     SCC iter.                  ...        0 min,  0.501 sec
     gradient                   ...        0 min,  0.177 sec
 * total energy  :  -242.1946182 Eh     change       -0.6129437E-04 Eh
   gradient norm :     0.0013706 Eh/α   predicted    -0.5245596E-04 ( -14.42%)
   displ. norm   :     0.1423000 α      lambda       -0.2052636E-04
   maximum displ.:     0.0669318 α      in ANC's #4, #6, #11, ...

........................................................................
.............................. CYCLE   10 ..............................
........................................................................

 iter      E             dE          RMSdq      gap      omega  full diag
   1   -246.6145416 -0.246615E+03  0.225E-02    0.61       0.0  T
   2   -246.6145407  0.882874E-06  0.131E-02    0.61       1.0  T
   3   -246.6144429  0.978138E-04  0.211E-02    0.60       1.0  T
   4   -246.6145405 -0.975477E-04  0.347E-03    0.61       2.5  T
   5   -246.6145421 -0.160255E-05  0.124E-03    0.61       7.1  T
   6   -246.6145422 -0.157046E-06  0.596E-04    0.61      14.8  T
   7   -246.6145423 -0.473134E-07  0.150E-04    0.61      58.8  T
     SCC iter.                  ...        0 min,  0.475 sec
     gradient                   ...        0 min,  0.183 sec
 * total energy  :  -242.1946398 Eh     change       -0.2157708E-04 Eh
   gradient norm :     0.0018133 Eh/α   predicted    -0.1035577E-04 ( -52.01%)
   displ. norm   :     0.1120288 α      lambda       -0.1964805E-04
   maximum displ.:     0.0624617 α      in ANC's #4, #6, #1, ...

........................................................................
.............................. CYCLE   11 ..............................
........................................................................

 iter      E             dE          RMSdq      gap      omega  full diag
   1   -246.6138252 -0.246614E+03  0.166E-02    0.61       0.0  T
   2   -246.6138221  0.309506E-05  0.105E-02    0.61       1.0  T
   3   -246.6137031  0.118937E-03  0.243E-02    0.62       1.0  T
   4   -246.6138243 -0.121219E-03  0.272E-03    0.61       3.2  T
   5   -246.6138258 -0.142758E-05  0.947E-04    0.61       9.3  T
   6   -246.6138259 -0.123506E-06  0.386E-04    0.61      22.9  T
   7   -246.6138259 -0.181096E-07  0.131E-04    0.61      67.3  T
     SCC iter.                  ...        0 min,  0.463 sec
     gradient                   ...        0 min,  0.172 sec
 * total energy  :  -242.1946621 Eh     change       -0.2236007E-04 Eh
   gradient norm :     0.0010576 Eh/α   predicted    -0.9880452E-05 ( -55.81%)
   displ. norm   :     0.1256936 α      lambda       -0.1661497E-04
   maximum displ.:     0.0731411 α      in ANC's #4, #6, #1, ...

........................................................................
.............................. CYCLE   12 ..............................
........................................................................

 iter      E             dE          RMSdq      gap      omega  full diag
   1   -246.6134408 -0.246613E+03  0.181E-02    0.61       0.0  T
   2   -246.6134380  0.276640E-05  0.112E-02    0.61       1.0  T
   3   -246.6133066  0.131402E-03  0.255E-02    0.62       1.0  T
   4   -246.6134398 -0.133186E-03  0.264E-03    0.61       3.4  T
   5   -246.6134412 -0.141412E-05  0.948E-04    0.61       9.3  T
   6   -246.6134413 -0.116506E-06  0.422E-04    0.61      21.0  T
   7   -246.6134413 -0.243862E-07  0.114E-04    0.61      77.2  T
     SCC iter.                  ...        0 min,  0.462 sec
     gradient                   ...        0 min,  0.171 sec
 * total energy  :  -242.1946802 Eh     change       -0.1803175E-04 Eh
   gradient norm :     0.0007640 Eh/α   predicted    -0.8366828E-05 ( -53.60%)
   displ. norm   :     0.1066649 α      lambda       -0.1004402E-04
   maximum displ.:     0.0626036 α      in ANC's #4, #1, #9, ...

........................................................................
.............................. CYCLE   13 ..............................
........................................................................

 iter      E             dE          RMSdq      gap      omega  full diag
   1   -246.6136744 -0.246614E+03  0.149E-02    0.61       0.0  T
   2   -246.6136742  0.290560E-06  0.872E-03    0.61       1.0  T
   3   -246.6136427  0.314923E-04  0.125E-02    0.61       1.0  T
   4   -246.6136739 -0.312853E-04  0.178E-03    0.61       5.0  T
   5   -246.6136745 -0.601118E-06  0.727E-04    0.61      12.2  T
   6   -246.6136746 -0.537773E-07  0.323E-04    0.61      27.4  T
     SCC iter.                  ...        0 min,  0.399 sec
     gradient                   ...        0 min,  0.181 sec
 * total energy  :  -242.1946911 Eh     change       -0.1097407E-04 Eh
   gradient norm :     0.0008155 Eh/α   predicted    -0.5050914E-05 ( -53.97%)
   displ. norm   :     0.0937862 α      lambda       -0.7805244E-05
   maximum displ.:     0.0547150 α      in ANC's #4, #1, #9, ...

........................................................................
.............................. CYCLE   14 ..............................
........................................................................

 iter      E             dE          RMSdq      gap      omega  full diag
   1   -246.6138430 -0.246614E+03  0.133E-02    0.61       0.0  T
   2   -246.6138429  0.159015E-06  0.779E-03    0.61       1.1  T
   3   -246.6138239  0.190322E-04  0.976E-03    0.61       1.0  T
   4   -246.6138426 -0.187032E-04  0.164E-03    0.61       5.4  T
   5   -246.6138431 -0.572446E-06  0.512E-04    0.61      17.2  T
   6   -246.6138432 -0.256651E-07  0.235E-04    0.61      37.5  T
     SCC iter.                  ...        0 min,  0.421 sec
     gradient                   ...        0 min,  0.183 sec
 * total energy  :  -242.1946993 Eh     change       -0.8105481E-05 Eh
   gradient norm :     0.0007416 Eh/α   predicted    -0.3919273E-05 ( -51.65%)
   displ. norm   :     0.0778996 α      lambda       -0.5620010E-05
   maximum displ.:     0.0455749 α      in ANC's #4, #1, #7, ...

........................................................................
.............................. CYCLE   15 ..............................
........................................................................

 iter      E             dE          RMSdq      gap      omega  full diag
   1   -246.6139787 -0.246614E+03  0.110E-02    0.61       0.0  T
   2   -246.6139788 -0.459666E-07  0.632E-03    0.61       1.4  T
   3   -246.6139779  0.823708E-06  0.212E-03    0.61       4.2  T
   4   -246.6139780 -0.196698E-07  0.204E-03    0.61       4.3  T
   5   -246.6139788 -0.819080E-06  0.432E-04    0.61      20.5  T
   6   -246.6139788 -0.189854E-07  0.146E-04    0.61      60.7  T
     SCC iter.                  ...        0 min,  0.401 sec
     gradient                   ...        0 min,  0.187 sec
 * total energy  :  -242.1947053 Eh     change       -0.6075719E-05 Eh
   gradient norm :     0.0005251 Eh/α   predicted    -0.2819851E-05 ( -53.59%)
   displ. norm   :     0.0643684 α      lambda       -0.4203485E-05
   maximum displ.:     0.0382368 α      in ANC's #1, #4, #7, ...

........................................................................
.............................. CYCLE   16 ..............................
........................................................................

 iter      E             dE          RMSdq      gap      omega  full diag
   1   -246.6142119 -0.246614E+03  0.893E-03    0.61       0.0  T
   2   -246.6142119 -0.253898E-07  0.513E-03    0.61       1.7  T
   3   -246.6142103  0.163002E-05  0.297E-03    0.61       3.0  T
   4   -246.6142114 -0.108330E-05  0.169E-03    0.61       5.2  T
   5   -246.6142119 -0.561641E-06  0.430E-04    0.61      20.6  T
   6   -246.6142120 -0.210088E-07  0.164E-04    0.61      53.8  T
     SCC iter.                  ...        0 min,  0.414 sec
     gradient                   ...        0 min,  0.177 sec
 * total energy  :  -242.1947104 Eh     change       -0.5112237E-05 Eh
   gradient norm :     0.0003712 Eh/α   predicted    -0.2110415E-05 ( -58.72%)
   displ. norm   :     0.0836992 α      lambda       -0.5624340E-05
   maximum displ.:     0.0510465 α      in ANC's #1, #4, #8, ...

........................................................................
.............................. CYCLE   17 ..............................
........................................................................

 iter      E             dE          RMSdq      gap      omega  full diag
   1   -246.6141257 -0.246614E+03  0.116E-02    0.61       0.0  T
   2   -246.6141258 -0.749058E-07  0.665E-03    0.61       1.3  T
   3   -246.6141249  0.863505E-06  0.234E-03    0.61       3.8  T
   4   -246.6141249  0.379152E-07  0.216E-03    0.61       4.1  T
   5   -246.6141257 -0.839473E-06  0.874E-04    0.61      10.1  T
   6   -246.6141259 -0.113308E-06  0.271E-04    0.61      32.6  T
     SCC iter.                  ...        0 min,  0.431 sec
     gradient                   ...        0 min,  0.194 sec
 * total energy  :  -242.1947172 Eh     change       -0.6748815E-05 Eh
   gradient norm :     0.0005483 Eh/α   predicted    -0.2822800E-05 ( -58.17%)
   displ. norm   :     0.1166974 α      lambda       -0.7120622E-05
   maximum displ.:     0.0715334 α      in ANC's #1, #4, #8, ...

........................................................................
.............................. CYCLE   18 ..............................
........................................................................

 iter      E             dE          RMSdq      gap      omega  full diag
   1   -246.6140670 -0.246614E+03  0.158E-02    0.61       0.0  T
   2   -246.6140670 -0.709262E-07  0.909E-03    0.61       1.0  T
   3   -246.6140606  0.648336E-05  0.612E-03    0.61       1.4  T
   4   -246.6140647 -0.417040E-05  0.338E-03    0.61       2.6  T
   5   -246.6140671 -0.236660E-05  0.850E-04    0.61      10.4  T
   6   -246.6140672 -0.997932E-07  0.303E-04    0.61      29.2  T
   7   -246.6140672 -0.161397E-07  0.870E-05    0.61     101.6  T
     SCC iter.                  ...        0 min,  0.484 sec
     gradient                   ...        0 min,  0.166 sec
 * total energy  :  -242.1947254 Eh     change       -0.8244319E-05 Eh
   gradient norm :     0.0008049 Eh/α   predicted    -0.3586795E-05 ( -56.49%)
   displ. norm   :     0.1293853 α      lambda       -0.7183637E-05
   maximum displ.:     0.0803810 α      in ANC's #1, #4, #8, ...

........................................................................
.............................. CYCLE   19 ..............................
........................................................................

 iter      E             dE          RMSdq      gap      omega  full diag
   1   -246.6140505 -0.246614E+03  0.170E-02    0.61       0.0  T
   2   -246.6140506 -0.127520E-06  0.973E-03    0.61       1.0  T
   3   -246.6140482  0.237749E-05  0.344E-03    0.61       2.6  T
   4   -246.6140481  0.161513E-06  0.361E-03    0.61       2.4  T
   5   -246.6140506 -0.256835E-05  0.852E-04    0.61      10.4  T
   6   -246.6140507 -0.630275E-07  0.325E-04    0.61      27.2  T
   7   -246.6140507 -0.188062E-07  0.781E-05    0.61     113.2  T
     SCC iter.                  ...        0 min,  0.467 sec
     gradient                   ...        0 min,  0.175 sec
 * total energy  :  -242.1947339 Eh     change       -0.8493883E-05 Eh
   gradient norm :     0.0007490 Eh/α   predicted    -0.3619183E-05 ( -57.39%)
   displ. norm   :     0.1285426 α      lambda       -0.6844596E-05
   maximum displ.:     0.0816368 α      in ANC's #1, #4, #8, ...

........................................................................
.............................. CYCLE   20 ..............................
........................................................................

 iter      E             dE          RMSdq      gap      omega  full diag
   1   -246.6138688 -0.246614E+03  0.165E-02    0.61       0.0  T
   2   -246.6138688 -0.310609E-08  0.952E-03    0.61       1.0  T
   3   -246.6138577  0.111058E-04  0.770E-03    0.60       1.1  T
   4   -246.6138674 -0.972805E-05  0.268E-03    0.61       3.3  T
   5   -246.6138689 -0.144921E-05  0.883E-04    0.61      10.0  T
   6   -246.6138690 -0.112366E-06  0.287E-04    0.61      30.8  T
   7   -246.6138690 -0.127039E-07  0.778E-05    0.61     113.5  T
     SCC iter.                  ...        0 min,  0.507 sec
     gradient                   ...        0 min,  0.195 sec
 * total energy  :  -242.1947421 Eh     change       -0.8219264E-05 Eh
   gradient norm :     0.0005395 Eh/α   predicted    -0.3448534E-05 ( -58.04%)
   displ. norm   :     0.1175952 α      lambda       -0.6102262E-05
   maximum displ.:     0.0769868 α      in ANC's #1, #4, #8, ...
 * RMSD in coord.:     0.1834350 α      energy gain  -0.2070789E-01 Eh

generating ANC from exact Hessian ...
Using Lindh-Hessian (1995)
 Shifting diagonal of input Hessian by   9.861228730782082E-003
 Lowest  eigenvalues of input Hessian
    0.000000    0.000000    0.000000    0.000000    0.000000    0.000000
    0.010000    0.010168    0.010256    0.010467    0.010532    0.011369
    0.011482    0.011726    0.011870    0.012288    0.013068    0.013695
 Highest eigenvalues
    2.140316    2.148129    2.163665    2.183044    2.212381    2.214778
 

........................................................................
.............................. CYCLE   21 ..............................
........................................................................

 iter      E             dE          RMSdq      gap      omega  full diag
   1   -246.6140396 -0.246614E+03  0.146E-02    0.61       0.0  T
   2   -246.6140396 -0.345773E-07  0.840E-03    0.61       1.1  T
   3   -246.6140348  0.481343E-05  0.509E-03    0.60       1.7  T
   4   -246.6140387 -0.387070E-05  0.221E-03    0.61       4.0  T
   5   -246.6140396 -0.927275E-06  0.859E-04    0.61      10.3  T
   6   -246.6140397 -0.108980E-06  0.243E-04    0.61      36.3  T
     SCC iter.                  ...        0 min,  0.405 sec
     gradient                   ...        0 min,  0.185 sec
 * total energy  :  -242.1947493 Eh     change       -0.7115470E-05 Eh
   gradient norm :     0.0003596 Eh/α   predicted     0.0000000E+00 (-100.00%)
   displ. norm   :     0.0171602 α      lambda       -0.1382470E-06
   maximum displ.:     0.0099948 α      in ANC's #1, #10, #12, ...

........................................................................
.............................. CYCLE   22 ..............................
........................................................................

 iter      E             dE          RMSdq      gap      omega  full diag
   1   -246.6140725 -0.246614E+03  0.291E-03    0.61       0.0  T
   2   -246.6140724  0.163806E-06  0.192E-03    0.61       4.6  T
   3   -246.6140680  0.437681E-05  0.461E-03    0.60       1.9  T
   4   -246.6140725 -0.453074E-05  0.591E-04    0.61      14.9  T
   5   -246.6140726 -0.436500E-07  0.173E-04    0.61      51.2  T
   6   -246.6140726 -0.109060E-08  0.993E-05    0.61      89.0  T
     SCC iter.                  ...        0 min,  0.425 sec
     gradient                   ...        0 min,  0.177 sec
 * total energy  :  -242.1947519 Eh     change       -0.2654575E-05 Eh
   gradient norm :     0.0002150 Eh/α   predicted    -0.1020036E-05 ( -61.57%)
   displ. norm   :     0.0766524 α      lambda       -0.7204115E-05
   maximum displ.:     0.0414837 α      in ANC's #1, #10, #12, ...

   *** GEOMETRY OPTIMIZATION CONVERGED AFTER 22 ITERATIONS ***

------------------------------------------------------------------------
 total energy gain   :        -0.0207177 Eh      -13.0005 kcal/mol
 total RMSD          :         0.1836657 a0        0.0972 Å
 total power (kW/mol):        -2.4724640 (step)   -3.3187 (real)
------------------------------------------------------------------------

 ANCopt (total)                0 d,  0 h,  0 min, 16.390 sec
 optimizer setup                ...        0 min,  0.001 sec (  0.006%)
 model hessian                  ...        0 min,  0.221 sec (  1.348%)
 ANC generation                 ...        0 min,  0.058 sec (  0.354%)
 coordinate transformation      ...        0 min,  0.004 sec (  0.024%)
 single point calculation       ...        0 min, 16.050 sec ( 97.926%)
 optimization log               ...        0 min,  0.037 sec (  0.226%)
 hessian update                 ...        0 min,  0.007 sec (  0.043%)
 rational function              ...        0 min,  0.008 sec (  0.049%)

================
 final structure:
================
128
 xtb: 6.7.1pre (5071a88)
C           -4.00048238218896       -6.51716693480462       -0.21216891680958
C            0.05977026232079       -7.25917781828738       -1.33616483975608
C           -1.74891302447210       -5.67972789171762       -0.57783914015312
C            3.89852402816489       -8.25352300696087       -0.02634886372921
C            2.34063262445654       -6.51281633068623       -0.82928502313423
C           -2.69127982554152       -6.74659573954504       -0.44238058795053
C           -4.52048113890997       -5.19804420736373       -0.08691746689385
C            1.39489001397996       -7.49149022405310       -1.29971042783971
C           -0.50208088271059       -5.96414033291885       -1.12690790473888
C           -2.22328281600197       -4.37511058054301       -0.15817974458126
C            6.11910054347943       -7.68814755611498        0.62190580508462
C            4.55729821685531       -5.89780087532711        0.04496588445073
C            2.84145745899277       -4.17385408040123       -0.25705409262029
C            5.11855597785865       -3.45536059806489        0.25947401090253
C            7.40725659044039       -2.65459930896700        0.53746137298776
C            5.13961994300069       -8.64439291371856        0.41214418427525
C            3.59672747076258       -6.90329266282302       -0.25473805059537
C            2.02606303288433       -5.17256891099318       -0.85900921282237
C            0.03360010853864       -3.54849190141428        0.38417330862984
C            5.83081007701650       -6.34740345725473        0.44324942378676
C            4.18737342520831       -4.50918671299763        0.01727915448525
C            2.37458230739100       -2.84944969642866        0.03282733496849
C            6.50021264055157       -3.67776644906190        0.49019254162358
C            4.69405330821975       -2.10446436930271        0.19289207688116
C            7.00670402194603       -1.31431839097177        0.40026869838466
C           -8.47259757097111       -5.84299822861588        0.24329470120349
C           -5.87824389339371       -4.95822000468481        0.04243098516616
C           -7.77854931529049       -3.50409952669115        0.46274426736039
C           -3.59134054620313       -4.11743970432943       -0.03586277546875
C           -5.47526394842845       -2.53760216903963        0.26466441916536
C           -7.26953668441313       -0.81971070030434        0.56459917883644
C           -1.31594552432936       -3.30964871561902        0.14133488770884
C           -3.16592411663615       -1.70730303024346        0.12261717517894
C           -4.98853057106659       -0.10177749111825        0.27881606201712
C           -6.78604045671867        1.53623362566676        0.49319612595492
C           -8.74469037254539       -4.55154517682006        0.47271056773528
C           -6.41074336120389       -3.65472316507311        0.25546189314623
C           -4.09360437061155       -2.78699428269327        0.13586068252457
C           -5.91350012220884       -1.18226248527105        0.37053248052466
C           -7.69223546571897        0.47773089986292        0.62654046774346
C            0.98852334463156       -2.54168973310916        0.21608073275868
C           -6.33283046391583        3.89629624040662        0.37344442871714
C            3.04356142284778        6.98298173015204       -0.28967139094525
C           -0.84135916891528       -0.91890849901717        0.14735178724107
C            8.45048781002063        2.11636302514979        0.30232127974305
C           -2.67097068698870        0.70123514230813        0.12143138236952
C            6.67026685096944        3.76390320632454        0.09620613195356
C           -4.49794108433995        2.33294437864394        0.19538307048197
C            4.83464259521560        5.37386445158815       -0.10021284907587
C            3.30538932172054       -1.80616122884337        0.12146719050198
C           -4.01488763788041        4.74986871516874       -0.00786836649989
C            1.48638980889474       -0.15300463538695        0.09200891815485
C           -5.79211060760913        6.52699933428689       -0.08816431606315
C           -0.34703114512628        1.48008185691506        0.04683558749829
C            9.08712301155162        4.44031328935627        0.18765789767880
C           -2.18191452377938        3.10673827594882       -0.00069333244613
C            5.62249514034320       -1.03744962272693        0.26305477199275
C           -1.67636386312316        5.49786772009269       -0.24920790320195
C            3.80359170432964        0.60131332553239        0.13425502380083
C           -3.50851315718372        7.12591622395695       -0.49679204006424
C            1.98553683666243        2.23773154668542        0.01361958733092
C           -5.27826744840268        8.75624311562745       -0.79636376245242
C            0.15997220919184        3.86695582804615       -0.09836261181384
C            7.92824095304229       -0.26632359455972        0.41943466317365
C            0.66413873241592        6.25550995479888       -0.30299466829497
C            6.13182020528233        1.35863208221709        0.20720999461565
C           -1.14090050925790        7.84186894942980       -0.51418863785213
C            4.32469101773894        2.99149538882696        0.03873446147411
C            2.49558419677491        4.63125304105684       -0.12308207329137
C           -1.77769940402799       -1.97515843042806        0.11925083240050
C            7.51948778895868        1.05235864603555        0.30849561922152
C            0.19192063662691        7.57113844303987       -0.43832480861423
C           -3.60532125235714       -0.36956869236840        0.16500181862130
C            5.70778481686432        2.70663619350863        0.11446520619236
C           -5.41530739399146        1.25346396020570        0.32211463596127
C            3.88234058822327        4.32952421957773       -0.06142599086392
C           -7.21781744815338        2.86382436290394        0.53006400006862
C            2.06514316946822        5.96658211653192       -0.23974421958450
C            0.54392016780683       -1.20456216161592        0.14002710951738
C           -1.28870221261977        0.42286587435037        0.10738420189923
C            8.06851960035512        3.42362269567222        0.19549540579729
C           -3.11261443294653        2.04915173917681        0.09820892925345
C            6.21393105604973        5.07239678510792       -0.01741729976246
C           -4.94449038829257        3.68281390101114        0.18764142520707
C            4.37169682905474        6.70047483331567       -0.21859493149829
C            2.86409371917546       -0.45282772938093        0.13369757871273
C           -4.44914449845835        6.11338951021473       -0.18101209791575
C            1.04129054135246        1.18954521528037        0.04619554355787
C           -6.20242693376404        7.81403715005053       -0.38105947986594
C           -0.79163653865002        2.81823036578799       -0.02150215000768
C            8.86237217222957        5.75080478707806        0.07919767704227
C           -2.63841753013135        4.45108941804985       -0.09093954887840
C            5.19025907860975        0.30823722682583        0.19874526641118
C           -2.10530954219073        6.82345872381852       -0.43639841007711
C            3.37098130729377        1.94070818355350        0.06286218220896
C           -3.95023671400140        8.41251563465427       -0.83990873464987
C            1.54049424246118        3.57903282054319       -0.06771517283119
C           -0.28425246691689        5.21063213750428       -0.21611905891817
H           -4.67775868495252       -7.35395225748273       -0.13826815188957
H           -0.59623550069332       -8.10155310275416       -1.50098523266939
H            3.14147295031169       -9.00318487900512       -0.18472269914012
H           -2.35583033062211       -7.76303379211272       -0.56228078909528
H            1.75106028955065       -8.48377868676434       -1.52164601363886
H            7.11070292119821       -7.96985448687822        0.94185082571771
H            8.45209382285388       -2.88131642955260        0.68991987820925
H            5.35715797602153       -9.68716243128645        0.58542426261966
H           -9.22299837237692       -6.61511748024394        0.24703923008286
H           -9.76429426436396       -4.25517489672905        0.67572382362863
H           -8.73956080526108        0.69171510116098        0.77813128969188
H            2.74971471173225        8.01507012380965       -0.38099487688322
H            9.50073333606255        1.87371403469924        0.38069376816877
H           10.10841152749114        4.09565638650320        0.27507224266929
H           -5.59951432660799        9.74985235072586       -1.06816489766853
H            8.97993651488034       -0.49234844022144        0.51965147844654
H           -1.44434947320151        8.87121919414927       -0.60441978512869
H            0.88173815033715        8.39685764459305       -0.48581230651279
H           -8.26557137079262        3.07929981635426        0.67539675475629
H            5.08929902260781        7.50606784475513       -0.25370597162671
H           -7.24919107550039        8.06092895057397       -0.29088196411161
H            9.65076472688508        6.48562334200394        0.07371141500022
H           -3.24085605595077        9.15660182784998       -1.15944144892883
H            0.34154665048126       -4.52722702244614        0.72022206573778
S           -7.07530428555976        5.47559789841952        0.45801589578471
S            7.29457453342518        6.46669756888762       -0.06765979071571
S            7.17374436330089       -5.27196202835640        0.76171420468082
S            0.57767927430875       -4.71459561274229       -1.79214200331175
S           -6.88799006796548       -6.41597814808207       -0.08040071879191
S           -8.55091964324768       -1.98748772301737        0.78771138519215
 
 Bond Distances (Angstroems)
 ---------------------------
C1-C6=1.3489         C1-C7=1.4234         C1-H99=1.0791        C2-C8=1.3557         C2-C9=1.4271         C2-H100=1.0803       
C3-C6=1.4299         C3-C9=1.3917         C3-C10=1.4502        C4-C16=1.3731        C4-C17=1.4023        C4-H101=1.0771       
C5-C8=1.4400         C5-C17=1.4354        C5-C18=1.3770        C6-C1=1.3489         C6-C3=1.4299         C6-H102=1.0771       
C7-C1=1.4234         C7-C27=1.3848        C7-C29=1.4260        C8-C2=1.3557         C8-C5=1.4400         C8-H103=1.0774       
C9-C2=1.4271         C9-C3=1.3917         C9-S126=1.7804       C10-C3=1.4502        C10-C29=1.3975       C10-C32=1.4311       
C11-C16=1.3848       C11-C20=1.3830       C11-H104=1.0794      C12-C17=1.4225       C12-C20=1.4081       C12-C21=1.4373       
C13-C18=1.4229       C13-C21=1.4139       C13-C22=1.4339       C14-C21=1.4270       C14-C23=1.4183       C14-C24=1.4176       
C15-C23=1.3681       C15-C25=1.4056       C15-H105=1.0800      C16-C4=1.3731        C16-C11=1.3848       C16-H106=1.0792      
C17-C4=1.4023        C17-C5=1.4354        C17-C12=1.4225       C18-C5=1.3770        C18-C13=1.4229       C18-S126=1.7828      
C19-C32=1.3919       C19-C41=1.3978       C19-H122=1.0797      C20-C11=1.3830       C20-C12=1.4081       C20-S125=1.7497      
C21-C12=1.4373       C21-C13=1.4139       C21-C14=1.4270       C22-C13=1.4339       C22-C41=1.4316       C22-C50=1.4010       
C23-C14=1.4183       C23-C15=1.3681       C23-S125=1.7518      C24-C14=1.4176       C24-C50=1.4221       C24-C57=1.4161       
C25-C15=1.4056       C25-C57=1.4183       C25-C64=1.3957       C26-C36=1.3396       C26-H107=1.0767      C26-S127=1.7158      
C27-C7=1.3848        C27-C37=1.4241       C27-S127=1.7776      C28-C36=1.4250       C28-C37=1.3916       C28-S128=1.7327      
C29-C7=1.4260        C29-C10=1.3975       C29-C38=1.4324       C30-C37=1.4571       C30-C38=1.4099       C30-C39=1.4284       
C31-C39=1.4170       C31-C40=1.3660       C31-S128=1.7480      C32-C10=1.4311       C32-C19=1.3919       C32-C70=1.4123       
C33-C38=1.4236       C33-C70=1.4138       C33-C73=1.4087       C34-C39=1.4253       C34-C73=1.4135       C34-C75=1.4215       
C35-C40=1.3998       C35-C75=1.4100       C35-C77=1.3965       C36-C26=1.3396       C36-C28=1.4250       C36-H108=1.0810      
C37-C27=1.4241       C37-C28=1.3916       C37-C30=1.4571       C38-C29=1.4324       C38-C30=1.4099       C38-C33=1.4236       
C39-C30=1.4284       C39-C31=1.4170       C39-C34=1.4253       C40-C31=1.3660       C40-C35=1.3998       C40-H109=1.0797      
C41-C19=1.3978       C41-C22=1.4316       C41-C79=1.4112       C42-C77=1.3688       C42-C84=1.4169       C42-S123=1.7472      
C43-C78=1.4117       C43-C85=1.3597       C43-H110=1.0770      C44-C70=1.4118       C44-C79=1.4144       C44-C80=1.4149       
C45-C71=1.4138       C45-C81=1.3661       C45-H111=1.0808      C46-C73=1.4218       C46-C80=1.4101       C46-C82=1.4186       
C47-C74=1.4299       C47-C81=1.4425       C47-C83=1.3904       C48-C75=1.4223       C48-C82=1.4174       C48-C84=1.4218       
C49-C76=1.4139       C49-C83=1.4143       C49-C85=1.4100       C50-C22=1.4010       C50-C24=1.4221       C50-C86=1.4235       
C51-C84=1.4286       C51-C87=1.4414       C51-C92=1.4110       C52-C79=1.4129       C52-C86=1.4106       C52-C88=1.4152       
C53-C87=1.4083       C53-C89=1.3822       C53-S123=1.7465      C54-C80=1.4171       C54-C88=1.4184       C54-C90=1.4117       
C55-C81=1.4392       C55-C91=1.3340       C55-H112=1.0814      C56-C82=1.4123       C56-C90=1.4201       C56-C92=1.4226       
C57-C24=1.4161       C57-C25=1.4183       C57-C93=1.4149       C58-C92=1.4305       C58-C94=1.4058       C58-C98=1.4218       
C59-C86=1.4120       C59-C93=1.4188       C59-C95=1.4093       C60-C87=1.4176       C60-C94=1.4367       C60-C96=1.4029       
C61-C88=1.4112       C61-C95=1.4178       C61-C97=1.4155       C62-C89=1.3836       C62-C96=1.3725       C62-H113=1.0790      
C63-C90=1.4182       C63-C97=1.4106       C63-C98=1.4201       C64-C25=1.3957       C64-C71=1.3850       C64-H114=1.0804      
C65-C72=1.4043       C65-C78=1.4319       C65-C98=1.4138       C66-C71=1.4247       C66-C74=1.4162       C66-C93=1.4107       
C67-C72=1.3622       C67-C94=1.4047       C67-H115=1.0769      C68-C74=1.4142       C68-C76=1.4128       C68-C95=1.4193       
C69-C76=1.4205       C69-C78=1.4078       C69-C97=1.4221       C70-C32=1.4123       C70-C33=1.4138       C70-C44=1.4118       
C71-C45=1.4138       C71-C64=1.3850       C71-C66=1.4247       C72-C65=1.4043       C72-C67=1.3622       C72-H116=1.0770      
C73-C33=1.4087       C73-C34=1.4135       C73-C46=1.4218       C74-C47=1.4299       C74-C66=1.4162       C74-C68=1.4142       
C75-C34=1.4215       C75-C35=1.4100       C75-C48=1.4223       C76-C49=1.4139       C76-C68=1.4128       C76-C69=1.4205       
C77-C35=1.3965       C77-C42=1.3688       C77-H117=1.0795      C78-C43=1.4117       C78-C65=1.4319       C78-C69=1.4078       
C79-C41=1.4112       C79-C44=1.4144       C79-C52=1.4129       C80-C44=1.4149       C80-C46=1.4101       C80-C54=1.4171       
C81-C45=1.3661       C81-C47=1.4425       C81-C55=1.4392       C82-C46=1.4186       C82-C48=1.4174       C82-C56=1.4123       
C83-C47=1.3904       C83-C49=1.4143       C83-S124=1.7648      C84-C42=1.4169       C84-C48=1.4218       C84-C51=1.4286       
C85-C43=1.3597       C85-C49=1.4100       C85-H118=1.0794      C86-C50=1.4235       C86-C52=1.4106       C86-C59=1.4120       
C87-C51=1.4414       C87-C53=1.4083       C87-C60=1.4176       C88-C52=1.4152       C88-C54=1.4184       C88-C61=1.4112       
C89-C53=1.3822       C89-C62=1.3836       C89-H119=1.0793      C90-C54=1.4117       C90-C56=1.4201       C90-C63=1.4182       
C91-C55=1.3340       C91-H120=1.0778      C91-S124=1.7298      C92-C51=1.4110       C92-C56=1.4226       C92-C58=1.4305       
C93-C57=1.4149       C93-C59=1.4188       C93-C66=1.4107       C94-C58=1.4058       C94-C60=1.4367       C94-C67=1.4047       
C95-C59=1.4093       C95-C61=1.4178       C95-C68=1.4193       C96-C60=1.4029       C96-C62=1.3725       C96-H121=1.0766      
C97-C61=1.4155       C97-C63=1.4106       C97-C69=1.4221       C98-C58=1.4218       C98-C63=1.4201       C98-C65=1.4138       
H99-C1=1.0791        H100-C2=1.0803       H101-C4=1.0771       H102-C6=1.0771       H103-C8=1.0774       H104-C11=1.0794      
H105-C15=1.0800      H106-C16=1.0792      H107-C26=1.0767      H108-C36=1.0810      H109-C40=1.0797      H110-C43=1.0770      
H111-C45=1.0808      H112-C55=1.0814      H113-C62=1.0790      H114-C64=1.0804      H115-C67=1.0769      H116-C72=1.0770      
H117-C77=1.0795      H118-C85=1.0794      H119-C89=1.0793      H120-C91=1.0778      H121-C96=1.0766      H122-C19=1.0797      
S123-C42=1.7472      S123-C53=1.7465      S124-C83=1.7648      S124-C91=1.7298      S125-C20=1.7497      S125-C23=1.7518      
S126-C9=1.7804       S126-C18=1.7828      S127-C26=1.7158      S127-C27=1.7776      S128-C28=1.7327      S128-C31=1.7480      
 C  H  Rav=1.0788 sigma=0.0015  Rmin=1.0766  Rmax=1.0814    24
 C  C  Rav=1.4101 sigma=0.0215  Rmin=1.3340  Rmax=1.4571   129
 S  C  Rav=1.7522 sigma=0.0200  Rmin=1.7158  Rmax=1.7828    12
 
 selected bond angles (degree)
 --------------------
C7-C1-C6=121.82                H99-C1-C6=119.27               H99-C1-C7=118.90               C9-C2-C8=122.64                
H100-C2-C8=117.94              H100-C2-C9=119.40              C9-C3-C6=118.38                C10-C3-C6=115.35               
C10-C3-C9=126.23               C17-C4-C16=121.38              H101-C4-C16=118.95             H101-C4-C17=119.67             
C17-C5-C8=121.37               C18-C5-C8=120.29               C18-C5-C17=118.25              C3-C6-C1=121.93                
H102-C6-C1=118.80              H102-C6-C3=119.23              C27-C7-C1=121.79               C29-C7-C1=117.86               
C29-C7-C27=120.28              C5-C8-C2=122.63                H103-C8-C2=118.55              H103-C8-C5=118.43              
C3-C9-C2=126.58                S126-C9-C2=110.08              S126-C9-C3=123.18              C29-C10-C3=120.76              
C32-C10-C3=121.53              C32-C10-C29=117.71             
 
 selected dihedral angles (degree)
 ---------------------------------
C3-C6-C1-C7=359.83            C3-C6-C1-H99=178.70           H102-C6-C1-C7=182.07          H102-C6-C1-H99=  0.93         
C1-C6-C3-C9=195.31            C1-C6-C3-C10= 13.31           H102-C6-C3-C9= 13.07          H102-C6-C3-C10=191.07         
C27-C7-C1-C6=174.74           C27-C7-C1-H99=355.87          C29-C7-C1-C6=351.90           C29-C7-C1-H99=173.03          
C5-C8-C2-C9= 10.73            C5-C8-C2-H100=192.65          H103-C8-C2-C9=183.40          H103-C8-C2-H100=  5.31        
C2-C8-C5-C17=152.62           C2-C8-C5-C18=335.99           H103-C8-C5-C17=339.95         H103-C8-C5-C18=163.32         
C3-C9-C2-C8=210.06            C3-C9-C2-H100= 28.11          S126-C9-C2-C8= 34.46          S126-C9-C2-H100=212.52        
C2-C9-C3-C6=346.52            C2-C9-C3-C10=168.76           S126-C9-C3-C6=161.57          S126-C9-C3-C10=343.82         
C29-C10-C3-C6=341.14          C29-C10-C3-C9=158.96          C32-C10-C3-C6=161.28          C32-C10-C3-C9=339.10          
           -------------------------------------------------
          |                Final Singlepoint                |
           -------------------------------------------------

          ...................................................
          :                      SETUP                      :
          :.................................................:
          :  # basis functions                 476          :
          :  # atomic orbitals                 470          :
          :  # shells                          238          :
          :  # electrons                       452          :
          :  max. iterations                   250          :
          :  Hamiltonian                  GFN2-xTB          :
          :  restarted?                      false          :
          :  GBSA solvation                  false          :
          :  PC potential                    false          :
          :  electronic temp.          300.0000000     K    :
          :  accuracy                    1.0000000          :
          :  -> integral cutoff          0.2500000E+02      :
          :  -> integral neglect         0.1000000E-07      :
          :  -> SCF convergence          0.1000000E-05 Eh   :
          :  -> wf. convergence          0.1000000E-03 e    :
          :  Broyden damping             0.4000000          :
          :  net charge                          0          :
          :  unpaired electrons                  0          :
          ...................................................

 iter      E             dE          RMSdq      gap      omega  full diag
   1   -246.6140726 -0.246614E+03  0.352E-05    0.61       0.0  T
   2   -246.6140726  0.997886E-10  0.379E-05    0.61     232.9  T
   3   -246.6140726 -0.169138E-09  0.199E-05    0.61     444.5  T

   *** convergence criteria satisfied after 3 iterations ***

         #    Occupation            Energy/Eh            Energy/eV
      -------------------------------------------------------------
         1        2.0000           -0.7456894             -20.2912
       ...           ...                  ...                  ...
       220        2.0000           -0.3716979             -10.1144
       221        2.0000           -0.3638871              -9.9019
       222        2.0000           -0.3582581              -9.7487
       223        2.0000           -0.3532653              -9.6128
       224        2.0000           -0.3466573              -9.4330
       225        2.0000           -0.3415676              -9.2945
       226        2.0000           -0.3338148              -9.0836 (HOMO)
       227        0.0000           -0.3115446              -8.4776 (LUMO)
       228                         -0.3007679              -8.1843
       229                         -0.2936557              -7.9908
       230                         -0.2800443              -7.6204
       231                         -0.2749617              -7.4821
       ...                                ...                  ...
       470                          0.7753084              21.0972
      -------------------------------------------------------------
                  HL-Gap            0.0222702 Eh            0.6060 eV
             Fermi-level           -0.3226796 Eh           -8.7806 eV

 SCC (total)                   0 d,  0 h,  0 min,  0.436 sec
 SCC setup                      ...        0 min,  0.002 sec (  0.459%)
 Dispersion                     ...        0 min,  0.003 sec (  0.688%)
 classical contributions        ...        0 min,  0.001 sec (  0.229%)
 integral evaluation            ...        0 min,  0.041 sec (  9.404%)
 iterations                     ...        0 min,  0.211 sec ( 48.395%)
 molecular gradient             ...        0 min,  0.172 sec ( 39.450%)
 printout                       ...        0 min,  0.006 sec (  1.376%)

         :::::::::::::::::::::::::::::::::::::::::::::::::::::
         ::                     SUMMARY                     ::
         :::::::::::::::::::::::::::::::::::::::::::::::::::::
         :: total energy            -242.194751920609 Eh    ::
         :: gradient norm              0.000214680193 Eh/a0 ::
         :: HOMO-LUMO gap              0.606002652164 eV    ::
         ::.................................................::
         :: SCC energy              -246.621014819001 Eh    ::
         :: -> isotropic ES            0.005870543786 Eh    ::
         :: -> anisotropic ES          0.007599728594 Eh    ::
         :: -> anisotropic XC          0.088367223821 Eh    ::
         :: -> dispersion             -0.302857608732 Eh    ::
         :: repulsion energy           4.426262898392 Eh    ::
         :: add. restraining           0.000000000000 Eh    ::
         :: total charge              -0.000000000000 e     ::
         :::::::::::::::::::::::::::::::::::::::::::::::::::::

           -------------------------------------------------
          |                Property Printout                |
           -------------------------------------------------

    * Orbital Energies and Occupations

         #    Occupation            Energy/Eh            Energy/eV
      -------------------------------------------------------------
         1        2.0000           -0.7456894             -20.2912
       ...           ...                  ...                  ...
       214        2.0000           -0.3931535             -10.6983
       215        2.0000           -0.3915909             -10.6557
       216        2.0000           -0.3911287             -10.6432
       217        2.0000           -0.3855303             -10.4908
       218        2.0000           -0.3837598             -10.4426
       219        2.0000           -0.3811225             -10.3709
       220        2.0000           -0.3716979             -10.1144
       221        2.0000           -0.3638871              -9.9019
       222        2.0000           -0.3582581              -9.7487
       223        2.0000           -0.3532653              -9.6128
       224        2.0000           -0.3466573              -9.4330
       225        2.0000           -0.3415676              -9.2945
       226        2.0000           -0.3338148              -9.0836 (HOMO)
       227        0.0000           -0.3115446              -8.4776 (LUMO)
       228                         -0.3007679              -8.1843
       229                         -0.2936557              -7.9908
       230                         -0.2800443              -7.6204
       231                         -0.2749617              -7.4821
       232                         -0.2670513              -7.2668
       233                         -0.2646169              -7.2006
       234                         -0.2617862              -7.1236
       235                         -0.2614406              -7.1142
       236                         -0.2590409              -7.0489
       237                         -0.2515877              -6.8461
       ...                                ...                  ...
       470                          0.7753084              21.0972
      -------------------------------------------------------------
                  HL-Gap            0.0222702 Eh            0.6060 eV
             Fermi-level           -0.3226796 Eh           -8.7806 eV

     #   Z          covCN         q      C6AA      α(0)
     1   6 C        2.923    -0.042    29.035     8.836
     2   6 C        3.001    -0.035    28.868     8.814
     3   6 C        2.986     0.000    28.019     8.683
     4   6 C        2.923    -0.043    29.060     8.840
     5   6 C        3.032    -0.001    28.016     8.682
     6   6 C        2.921    -0.034    28.850     8.808
     7   6 C        3.061    -0.005    28.097     8.693
     8   6 C        2.913    -0.040    28.996     8.830
     9   6 C        2.956     0.027    27.406     8.587
    10   6 C        2.982    -0.001    28.051     8.688
    11   6 C        3.018    -0.045    29.089     8.847
    12   6 C        3.003    -0.002    28.065     8.690
    13   6 C        3.003    -0.006    28.152     8.704
    14   6 C        3.002    -0.002    28.053     8.688
    15   6 C        3.020    -0.055    29.346     8.886
    16   6 C        2.916    -0.029    28.721     8.788
    17   6 C        2.990     0.005    27.892     8.663
    18   6 C        2.970     0.034    27.232     8.560
    19   6 C        3.147    -0.025    28.355     8.711
    20   6 C        2.970     0.048    26.923     8.511
    21   6 C        2.978     0.003    27.955     8.673
    22   6 C        2.981     0.001    27.989     8.678
    23   6 C        2.964     0.045    26.980     8.520
    24   6 C        2.991     0.000    28.010     8.682
    25   6 C        2.982     0.013    27.717     8.636
    26   6 C        2.890     0.000    28.021     8.679
    27   6 C        2.968     0.024    27.463     8.596
    28   6 C        2.958     0.042    27.060     8.532
    29   6 C        2.991     0.003    27.959     8.674
    30   6 C        2.971    -0.002    28.074     8.691
    31   6 C        2.968     0.040    27.103     8.539
    32   6 C        2.986     0.003    27.954     8.673
    33   6 C        2.989     0.000    28.011     8.682
    34   6 C        2.992     0.002    27.982     8.677
    35   6 C        2.990     0.013    27.706     8.634
    36   6 C        3.104    -0.043    28.923     8.812
    37   6 C        3.009     0.003    27.931     8.669
    38   6 C        2.983    -0.001    28.054     8.688
    39   6 C        2.999    -0.001    28.028     8.684
    40   6 C        3.040    -0.055    29.337     8.884
    41   6 C        2.985     0.006    27.872     8.660
    42   6 C        2.967     0.046    26.963     8.517
    43   6 C        2.917    -0.035    28.876     8.812
    44   6 C        2.992    -0.001    28.054     8.688
    45   6 C        2.929    -0.053    29.314     8.879
    46   6 C        2.987    -0.002    28.077     8.692
    47   6 C        3.003     0.003    27.952     8.673
    48   6 C        2.990     0.001    27.991     8.679
    49   6 C        3.046    -0.002    28.030     8.683
    50   6 C        2.991     0.002    27.972     8.676
    51   6 C        2.971     0.003    27.961     8.674
    52   6 C        2.992    -0.000    28.023     8.684
    53   6 C        2.973     0.046    26.958     8.517
    54   6 C        2.989     0.000    28.019     8.683
    55   6 C        2.956    -0.041    29.028     8.837
    56   6 C        2.985    -0.000    28.023     8.684
    57   6 C        2.993    -0.004    28.114     8.698
    58   6 C        2.988     0.002    27.973     8.676
    59   6 C        2.991     0.001    27.999     8.680
    60   6 C        2.987     0.006    27.873     8.660
    61   6 C        2.989    -0.000    28.026     8.684
    62   6 C        2.916    -0.029    28.723     8.788
    63   6 C        2.987    -0.000    28.026     8.684
    64   6 C        2.925    -0.050    29.244     8.868
    65   6 C        2.982     0.005    27.912     8.666
    66   6 C        2.993     0.001    28.004     8.681
    67   6 C        2.919    -0.038    28.938     8.822
    68   6 C        2.988    -0.004    28.125     8.699
    69   6 C        2.991     0.003    27.955     8.673
    70   6 C        2.997     0.002    27.977     8.676
    71   6 C        2.978     0.013    27.729     8.638
    72   6 C        2.919    -0.037    28.917     8.818
    73   6 C        2.990     0.002    27.977     8.677
    74   6 C        2.989    -0.001    28.043     8.687
    75   6 C        2.993    -0.006    28.150     8.703
    76   6 C        2.993     0.002    27.972     8.676
    77   6 C        3.039    -0.056    29.348     8.886
    78   6 C        2.981     0.006    27.884     8.662
    79   6 C        2.997     0.001    27.994     8.679
    80   6 C        2.991     0.001    27.993     8.679
    81   6 C        2.967     0.012    27.740     8.639
    82   6 C        2.988     0.001    27.992     8.679
    83   6 C        2.965     0.033    27.250     8.562
    84   6 C        2.998    -0.002    28.056     8.689
    85   6 C        2.922    -0.036    28.891     8.815
    86   6 C        2.990    -0.001    28.050     8.688
    87   6 C        3.004     0.001    27.998     8.680
    88   6 C        2.990     0.000    28.011     8.682
    89   6 C        3.025    -0.044    29.066     8.843
    90   6 C        2.987    -0.000    28.024     8.684
    91   6 C        2.888    -0.000    28.034     8.680
    92   6 C        2.983    -0.002    28.071     8.691
    93   6 C        2.989     0.001    27.989     8.678
    94   6 C        2.983     0.004    27.930     8.669
    95   6 C        2.989    -0.000    28.028     8.684
    96   6 C        2.925    -0.043    29.061     8.841
    97   6 C        2.988    -0.001    28.033     8.685
    98   6 C        2.990     0.002    27.973     8.676
    99   1 H        0.926     0.043     2.414     2.429
   100   1 H        0.926     0.036     2.502     2.473
   101   1 H        0.926     0.039     2.462     2.454
   102   1 H        0.926     0.035     2.520     2.482
   103   1 H        0.926     0.032     2.554     2.499
   104   1 H        0.926     0.041     2.432     2.439
   105   1 H        0.926     0.040     2.448     2.447
   106   1 H        0.926     0.037     2.496     2.470
   107   1 H        0.926     0.063     2.167     2.302
   108   1 H        0.926     0.057     2.238     2.340
   109   1 H        0.926     0.042     2.427     2.436
   110   1 H        0.926     0.037     2.494     2.469
   111   1 H        0.926     0.029     2.595     2.519
   112   1 H        0.925     0.042     2.422     2.434
   113   1 H        0.926     0.037     2.491     2.468
   114   1 H        0.926     0.032     2.557     2.501
   115   1 H        0.926     0.035     2.514     2.479
   116   1 H        0.926     0.035     2.515     2.480
   117   1 H        0.926     0.042     2.419     2.432
   118   1 H        0.926     0.045     2.382     2.413
   119   1 H        0.926     0.041     2.429     2.437
   120   1 H        0.926     0.050     2.321     2.382
   121   1 H        0.926     0.039     2.463     2.454
   122   1 H        0.926     0.037     2.492     2.469
   123  16 S        2.230    -0.104   145.383    20.294
   124  16 S        2.100    -0.071   144.017    20.198
   125  16 S        2.207    -0.106   145.491    20.301
   126  16 S        2.391    -0.133   146.625    20.380
   127  16 S        2.127    -0.040   142.701    20.106
   128  16 S        2.277    -0.069   143.918    20.191

 Mol. C6AA /au·bohr⁶  :     395986.626360
 Mol. C8AA /au·bohr⁸  :   11762904.800841
 Mol. α(0) /au        :       1032.653229


Wiberg/Mayer (AO) data.
largest (>0.10) Wiberg bond orders for each atom

 ---------------------------------------------------------------------------
     #   Z sym  total        # sym  WBO       # sym  WBO       # sym  WBO
 ---------------------------------------------------------------------------
     1   6 C    3.960 --     6 C    1.645     7 C    1.196    99 H    0.950
     2   6 C    3.965 --     8 C    1.650     9 C    1.206   100 H    0.949
     3   6 C    3.964 --     9 C    1.405     6 C    1.188    10 C    1.152
     4   6 C    3.977 --    16 C    1.481    17 C    1.333   101 H    0.962
     5   6 C    3.966 --    18 C    1.450    17 C    1.161     8 C    1.152
     6   6 C    3.967 --     1 C    1.645     3 C    1.188   102 H    0.962
     7   6 C    3.974 --    27 C    1.388     1 C    1.196    29 C    1.180
     8   6 C    3.898 --     2 C    1.650     5 C    1.152   103 H    0.962
     9   6 C    3.795 --     3 C    1.405     2 C    1.206   126 S    1.008
    10   6 C    3.926 --    29 C    1.373    32 C    1.173     3 C    1.152
    11   6 C    3.974 --    20 C    1.424    16 C    1.392   104 H    0.967
    12   6 C    3.979 --    20 C    1.291    17 C    1.262    21 C    1.195
    13   6 C    3.965 --    21 C    1.298    18 C    1.224    22 C    1.196
    14   6 C    3.953 --    24 C    1.272    21 C    1.228    23 C    1.228
    15   6 C    3.945 --    23 C    1.501    25 C    1.259   105 H    0.964
    16   6 C    3.977 --     4 C    1.481    11 C    1.392   106 H    0.969
    17   6 C    3.974 --     4 C    1.333    12 C    1.262     5 C    1.161
    18   6 C    3.912 --     5 C    1.450    13 C    1.224   126 S    1.004
    19   6 C    3.892 --    32 C    1.348    41 C    1.316   122 H    0.959
    20   6 C    3.954 --    11 C    1.424    12 C    1.291   125 S    1.061
    21   6 C    3.957 --    13 C    1.298    14 C    1.228    12 C    1.195
    22   6 C    3.931 --    50 C    1.321    13 C    1.196    41 C    1.185
    23   6 C    3.942 --    15 C    1.501    14 C    1.228   125 S    1.054
    24   6 C    3.972 --    14 C    1.272    57 C    1.255    50 C    1.213
    25   6 C    3.973 --    64 C    1.324    15 C    1.259    57 C    1.224
    26   6 C    3.892 --    36 C    1.670   127 S    1.148   107 H    0.960
    27   6 C    3.854 --     7 C    1.388    37 C    1.232   127 S    1.033
    28   6 C    3.835 --    37 C    1.378    36 C    1.205   128 S    1.109
    29   6 C    3.967 --    10 C    1.373    38 C    1.194     7 C    1.180
    30   6 C    3.936 --    38 C    1.323    39 C    1.244    37 C    1.142
    31   6 C    3.934 --    40 C    1.497    39 C    1.232   128 S    1.042
    32   6 C    3.963 --    19 C    1.348    70 C    1.239    10 C    1.173
    33   6 C    3.965 --    73 C    1.272    70 C    1.242    38 C    1.228
    34   6 C    3.972 --    39 C    1.254    75 C    1.245    73 C    1.244
    35   6 C    3.968 --    77 C    1.282    40 C    1.266    75 C    1.250
    36   6 C    3.977 --    26 C    1.670    28 C    1.205   108 H    0.953
    37   6 C    3.979 --    28 C    1.378    27 C    1.232    30 C    1.142
    38   6 C    3.965 --    30 C    1.323    33 C    1.228    29 C    1.194
    39   6 C    3.945 --    34 C    1.254    30 C    1.244    31 C    1.232
    40   6 C    3.950 --    31 C    1.497    35 C    1.266   109 H    0.963
    41   6 C    3.957 --    19 C    1.316    79 C    1.257    22 C    1.185
    42   6 C    3.940 --    77 C    1.481    84 C    1.239   123 S    1.060
    43   6 C    3.971 --    85 C    1.571    78 C    1.271   110 H    0.959
    44   6 C    3.975 --    70 C    1.258    79 C    1.247    80 C    1.238
    45   6 C    3.972 --    81 C    1.523    71 C    1.226   111 H    0.965
    46   6 C    3.960 --    80 C    1.271    82 C    1.239    73 C    1.229
    47   6 C    3.972 --    83 C    1.386    74 C    1.215    81 C    1.152
    48   6 C    3.973 --    84 C    1.263    75 C    1.245    82 C    1.236
    49   6 C    3.968 --    85 C    1.262    83 C    1.254    76 C    1.254
    50   6 C    3.973 --    22 C    1.321    86 C    1.216    24 C    1.213
    51   6 C    3.950 --    92 C    1.313    84 C    1.231    87 C    1.182
    52   6 C    3.961 --    86 C    1.266    88 C    1.243    79 C    1.236
    53   6 C    3.952 --    89 C    1.426    87 C    1.292   123 S    1.057
    54   6 C    3.964 --    90 C    1.269    88 C    1.239    80 C    1.237
    55   6 C    3.980 --    91 C    1.741    81 C    1.141   112 H    0.956
    56   6 C    3.961 --    82 C    1.271    90 C    1.238    92 C    1.233
    57   6 C    3.962 --    93 C    1.256    24 C    1.255    25 C    1.224
    58   6 C    3.983 --    94 C    1.307    98 C    1.248    92 C    1.199
    59   6 C    3.961 --    95 C    1.274    86 C    1.253    93 C    1.219
    60   6 C    3.973 --    96 C    1.337    87 C    1.275    94 C    1.156
    61   6 C    3.963 --    88 C    1.263    97 C    1.243    95 C    1.240
    62   6 C    3.976 --    96 C    1.481    89 C    1.392   113 H    0.969
    63   6 C    3.962 --    97 C    1.281    90 C    1.236    98 C    1.225
    64   6 C    3.894 --    71 C    1.392    25 C    1.324   114 H    0.966
    65   6 C    3.959 --    72 C    1.295    98 C    1.280    78 C    1.185
    66   6 C    3.961 --    93 C    1.278    74 C    1.256    71 C    1.200
    67   6 C    3.965 --    72 C    1.540    94 C    1.296   115 H    0.960
    68   6 C    3.978 --    74 C    1.266    76 C    1.252    95 C    1.229
    69   6 C    3.980 --    78 C    1.297    76 C    1.239    97 C    1.218
    70   6 C    3.959 --    44 C    1.258    33 C    1.242    32 C    1.239
    71   6 C    3.972 --    64 C    1.392    45 C    1.226    66 C    1.200
    72   6 C    3.962 --    67 C    1.540    65 C    1.295   116 H    0.959
    73   6 C    3.970 --    33 C    1.272    34 C    1.244    46 C    1.229
    74   6 C    3.965 --    68 C    1.266    66 C    1.256    47 C    1.215
    75   6 C    3.975 --    35 C    1.250    48 C    1.245    34 C    1.245
    76   6 C    3.976 --    49 C    1.254    68 C    1.252    69 C    1.239
    77   6 C    3.955 --    42 C    1.481    35 C    1.282   117 H    0.964
    78   6 C    3.948 --    69 C    1.297    43 C    1.271    65 C    1.185
    79   6 C    3.960 --    41 C    1.257    44 C    1.247    52 C    1.236
    80   6 C    3.962 --    46 C    1.271    44 C    1.238    54 C    1.237
    81   6 C    3.972 --    45 C    1.523    47 C    1.152    55 C    1.141
    82   6 C    3.967 --    56 C    1.271    46 C    1.239    48 C    1.236
    83   6 C    3.896 --    47 C    1.386    49 C    1.254   124 S    1.055
    84   6 C    3.954 --    48 C    1.263    42 C    1.239    51 C    1.231
    85   6 C    3.953 --    43 C    1.571    49 C    1.262   118 H    0.955
    86   6 C    3.954 --    52 C    1.266    59 C    1.253    50 C    1.216
    87   6 C    3.976 --    53 C    1.292    60 C    1.275    51 C    1.182
    88   6 C    3.963 --    61 C    1.263    52 C    1.243    54 C    1.239
    89   6 C    3.973 --    53 C    1.426    62 C    1.392   119 H    0.967
    90   6 C    3.957 --    54 C    1.269    56 C    1.238    63 C    1.236
    91   6 C    3.941 --    55 C    1.741   124 S    1.110   120 H    0.962
    92   6 C    3.974 --    51 C    1.313    56 C    1.233    58 C    1.199
    93   6 C    3.974 --    66 C    1.278    57 C    1.256    59 C    1.219
    94   6 C    3.964 --    58 C    1.307    67 C    1.296    60 C    1.156
    95   6 C    3.962 --    59 C    1.274    61 C    1.240    68 C    1.229
    96   6 C    3.978 --    62 C    1.481    60 C    1.337   121 H    0.960
    97   6 C    3.960 --    63 C    1.281    61 C    1.243    69 C    1.218
    98   6 C    3.976 --    65 C    1.280    58 C    1.248    63 C    1.225
    99   1 H    0.996 --     1 C    0.950
   100   1 H    0.993 --     2 C    0.949
   101   1 H    0.997 --     4 C    0.962
   102   1 H    0.997 --     6 C    0.962
   103   1 H    0.998 --     8 C    0.962
   104   1 H    0.997 --    11 C    0.967
   105   1 H    0.997 --    15 C    0.964
   106   1 H    0.997 --    16 C    0.969
   107   1 H    0.995 --    26 C    0.960
   108   1 H    0.996 --    36 C    0.953
   109   1 H    0.997 --    40 C    0.963
   110   1 H    0.998 --    43 C    0.959
   111   1 H    0.998 --    45 C    0.965
   112   1 H    0.997 --    55 C    0.956
   113   1 H    0.997 --    62 C    0.969
   114   1 H    0.998 --    64 C    0.966
   115   1 H    0.998 --    67 C    0.960
   116   1 H    0.997 --    72 C    0.959
   117   1 H    0.997 --    77 C    0.964
   118   1 H    0.997 --    85 C    0.955
   119   1 H    0.997 --    89 C    0.967
   120   1 H    0.996 --    91 C    0.962
   121   1 H    0.997 --    96 C    0.960
   122   1 H    0.997 --    19 C    0.959
   123  16 S    2.434 --    42 C    1.060    53 C    1.057
   124  16 S    2.486 --    91 C    1.110    83 C    1.055
   125  16 S    2.436 --    20 C    1.061    23 C    1.054
   126  16 S    2.398 --     9 C    1.008    18 C    1.004
   127  16 S    2.504 --    26 C    1.148    27 C    1.033
   128  16 S    2.459 --    28 C    1.109    31 C    1.042
 ---------------------------------------------------------------------------

Topologies differ in total number of bonds
Writing topology from bond orders to xtbtopo.mol

molecular dipole:
                 x           y           z       tot (Debye)
 q only:       -0.904       0.193       0.254
   full:       -0.780      -0.009       0.336       2.159
molecular quadrupole (traceless):
                xx          xy          yy          xz          yz          zz
 q only:       13.367      35.109      17.243       0.694      -7.685     -30.610
  q+dip:       32.556      35.776      33.294       2.009     -10.991     -65.850
   full:       16.452      37.285      17.080       1.587      -9.763     -33.532

           -------------------------------------------------
          |                Geometry Summary                 |
           -------------------------------------------------

      molecular mass/u    :     1393.6314207
   center of mass at/Å    :       -0.0062050       0.0009312       0.0031272
  moments of inertia/u·Å² :        0.3150050E+05   0.3634952E+05   0.6717291E+05
rotational constants/cm⁻¹ :        0.5351544E-03   0.4637649E-03   0.2509588E-03

 * 153 selected distances

     #   Z          #   Z                                           value/Å
     1   6 C        6   6 C                                       1.3489428
     3   6 C        6   6 C                                       1.4298992
     1   6 C        7   6 C                                       1.4234366
     2   6 C        8   6 C                                       1.3556707
     2   6 C        9   6 C                                       1.4270906
     3   6 C        9   6 C                                       1.3917463
     4   6 C       16   6 C                                       1.3730895
    11   6 C       16   6 C                                       1.3848421
     4   6 C       17   6 C                                       1.4022714
     5   6 C       17   6 C                                       1.4353922
    12   6 C       17   6 C                                       1.4225093
     5   6 C       18   6 C                                       1.3769899
    13   6 C       18   6 C                                       1.4229019
    11   6 C       20   6 C                                       1.3829767
    12   6 C       20   6 C                                       1.4080501
    13   6 C       21   6 C                                       1.4139296
    14   6 C       21   6 C                                       1.4269930
    13   6 C       22   6 C                                       1.4338937
    14   6 C       23   6 C                                       1.4183338
    15   6 C       23   6 C                                       1.3681500
    14   6 C       24   6 C                                       1.4175883
    15   6 C       25   6 C                                       1.4055666
     7   6 C       27   6 C                                       1.3848345
     7   6 C       29   6 C                                       1.4260488
    10   6 C       29   6 C                                       1.3974756
    10   6 C       32   6 C                                       1.4311462
    19   6 C       32   6 C                                       1.3918658
    26   6 C       36   6 C                                       1.3395960
    28   6 C       36   6 C                                       1.4250160
    27   6 C       37   6 C                                       1.4240935
    28   6 C       37   6 C                                       1.3915987
    29   6 C       38   6 C                                       1.4324257
    30   6 C       38   6 C                                       1.4098831
    33   6 C       38   6 C                                       1.4235518
    30   6 C       39   6 C                                       1.4283575
    31   6 C       39   6 C                                       1.4170184
    34   6 C       39   6 C                                       1.4252820
    31   6 C       40   6 C                                       1.3659671
    35   6 C       40   6 C                                       1.3997852
    19   6 C       41   6 C                                       1.3977784
    22   6 C       41   6 C                                       1.4315928
    22   6 C       50   6 C                                       1.4009675
    24   6 C       50   6 C                                       1.4221372
    24   6 C       57   6 C                                       1.4161384
    25   6 C       57   6 C                                       1.4182801
    25   6 C       64   6 C                                       1.3956687
    32   6 C       70   6 C                                       1.4122921
    33   6 C       70   6 C                                       1.4138338
    44   6 C       70   6 C                                       1.4118027
    45   6 C       71   6 C                                       1.4138263
    64   6 C       71   6 C                                       1.3850306
    66   6 C       71   6 C                                       1.4246697
    65   6 C       72   6 C                                       1.4043443
    67   6 C       72   6 C                                       1.3621538
    33   6 C       73   6 C                                       1.4086873
    34   6 C       73   6 C                                       1.4134830
    46   6 C       73   6 C                                       1.4218054
    47   6 C       74   6 C                                       1.4298668
    66   6 C       74   6 C                                       1.4161649
    68   6 C       74   6 C                                       1.4141530
    34   6 C       75   6 C                                       1.4215108
    35   6 C       75   6 C                                       1.4100131
    48   6 C       75   6 C                                       1.4222870
    49   6 C       76   6 C                                       1.4138707
    68   6 C       76   6 C                                       1.4128084
    69   6 C       76   6 C                                       1.4205405
    35   6 C       77   6 C                                       1.3965272
    42   6 C       77   6 C                                       1.3688426
    43   6 C       78   6 C                                       1.4116882
    65   6 C       78   6 C                                       1.4318847
    69   6 C       78   6 C                                       1.4078330
    41   6 C       79   6 C                                       1.4111579
    44   6 C       79   6 C                                       1.4144437
    52   6 C       79   6 C                                       1.4129148
    44   6 C       80   6 C                                       1.4149460
    46   6 C       80   6 C                                       1.4100898
    54   6 C       80   6 C                                       1.4170803
    45   6 C       81   6 C                                       1.3661038
    46   6 C       82   6 C                                       1.4186148
    48   6 C       82   6 C                                       1.4174313
    56   6 C       82   6 C                                       1.4122583
    47   6 C       83   6 C                                       1.3904346
    49   6 C       83   6 C                                       1.4142754
    42   6 C       84   6 C                                       1.4168931
    48   6 C       84   6 C                                       1.4218348
    51   6 C       84   6 C                                       1.4286328
    43   6 C       85   6 C                                       1.3597081
    49   6 C       85   6 C                                       1.4100456
    50   6 C       86   6 C                                       1.4235179
    52   6 C       86   6 C                                       1.4105674
    59   6 C       86   6 C                                       1.4120448
    53   6 C       87   6 C                                       1.4082798
    60   6 C       87   6 C                                       1.4176442
    52   6 C       88   6 C                                       1.4151511
    54   6 C       88   6 C                                       1.4183968
    61   6 C       88   6 C                                       1.4111546
    53   6 C       89   6 C                                       1.3822495
    62   6 C       89   6 C                                       1.3835826
    54   6 C       90   6 C                                       1.4117315
    56   6 C       90   6 C                                       1.4200504
    63   6 C       90   6 C                                       1.4182003
    55   6 C       91   6 C                                       1.3340408
    51   6 C       92   6 C                                       1.4109714
    56   6 C       92   6 C                                       1.4226102
    58   6 C       92   6 C                                       1.4305039
    57   6 C       93   6 C                                       1.4148630
    59   6 C       93   6 C                                       1.4187668
    66   6 C       93   6 C                                       1.4106519
    58   6 C       94   6 C                                       1.4057833
    67   6 C       94   6 C                                       1.4047405
    59   6 C       95   6 C                                       1.4093359
    61   6 C       95   6 C                                       1.4177815
    68   6 C       95   6 C                                       1.4192598
    60   6 C       96   6 C                                       1.4029209
    62   6 C       96   6 C                                       1.3724834
    61   6 C       97   6 C                                       1.4155450
    63   6 C       97   6 C                                       1.4105603
    69   6 C       97   6 C                                       1.4221217
    58   6 C       98   6 C                                       1.4218205
    63   6 C       98   6 C                                       1.4200946
    65   6 C       98   6 C                                       1.4137762
     1   6 C       99   1 H                                       1.0790618
     2   6 C      100   1 H                                       1.0803266
     4   6 C      101   1 H                                       1.0771266
     6   6 C      102   1 H                                       1.0770557
     8   6 C      103   1 H                                       1.0773807
    11   6 C      104   1 H                                       1.0793512
    15   6 C      105   1 H                                       1.0799673
    16   6 C      106   1 H                                       1.0792207
    26   6 C      107   1 H                                       1.0767004
    36   6 C      108   1 H                                       1.0810375
    40   6 C      109   1 H                                       1.0796572
    43   6 C      110   1 H                                       1.0769831
    45   6 C      111   1 H                                       1.0807574
    55   6 C      112   1 H                                       1.0814158
    62   6 C      113   1 H                                       1.0790435
    64   6 C      114   1 H                                       1.0803677
    67   6 C      115   1 H                                       1.0769332
    72   6 C      116   1 H                                       1.0769938
    77   6 C      117   1 H                                       1.0795090
    85   6 C      118   1 H                                       1.0794286
    89   6 C      119   1 H                                       1.0792604
    91   6 C      120   1 H                                       1.0777530
    96   6 C      121   1 H                                       1.0765624 (min)
    19   6 C      122   1 H                                       1.0796678
    42   6 C      123  16 S                                       1.7471731
    53   6 C      123  16 S                                       1.7465235
    91   6 C      124  16 S                                       1.7297571
    20   6 C      125  16 S                                       1.7497049
    23   6 C      125  16 S                                       1.7518074 (max)
    26   6 C      127  16 S                                       1.7158281
    28   6 C      128  16 S                                       1.7327064
    31   6 C      128  16 S                                       1.7479774

 * 3 distinct bonds (by element types)

   Z      Z             #   av. dist./Å        max./Å        min./Å
   1 H    6 C          24     1.0788151     1.0814158     1.0765624
   6 C    6 C         121     1.4079732     1.4353922     1.3340408
   6 C   16 S           8     1.7401847     1.7518074     1.7158281


optimized geometry written to: xtbopt.xyz


           -------------------------------------------------
          | TOTAL ENERGY             -242.194751920609 Eh   |
          | GRADIENT NORM               0.000214680193 Eh/α |
          | HOMO-LUMO GAP               0.606002652164 eV   |
           -------------------------------------------------

------------------------------------------------------------------------
 * finished run on 2025/12/08 at 00:34:17.983     
------------------------------------------------------------------------
 total:
 * wall-time:     0 d,  0 h,  0 min, 18.380 sec
 *  cpu-time:     0 d,  0 h,  1 min, 11.484 sec
 * ratio c/w:     3.889 speedup
 SCF:
 * wall-time:     0 d,  0 h,  0 min,  1.437 sec
 *  cpu-time:     0 d,  0 h,  0 min,  5.609 sec
 * ratio c/w:     3.904 speedup
 ANC optimizer:
 * wall-time:     0 d,  0 h,  0 min, 16.833 sec
 *  cpu-time:     0 d,  0 h,  1 min,  5.484 sec
 * ratio c/w:     3.890 speedup

normal termination of xtb
