128
 energy: -242.174034260041 gnorm: 0.050185975224 xtb: 6.7.1pre (5071a88)
C           -4.03037300000000       -6.57267600000000       -0.17394500000000
C            0.04816300000000       -7.38167200000000       -1.23038300000000
C           -1.75865300000000       -5.73451400000000       -0.56149500000000
C            3.99284300000000       -8.34037200000000       -0.04607500000000
C            2.36625500000000       -6.60521200000000       -0.78556800000000
C           -2.71161400000000       -6.80645000000000       -0.38154100000000
C           -4.56370500000000       -5.24153800000000       -0.09210100000000
C            1.39360300000000       -7.61684200000000       -1.17338300000000
C           -0.51318700000000       -6.05483800000000       -1.13128100000000
C           -2.24363500000000       -4.40846700000000       -0.14345100000000
C            6.21995700000000       -7.73498700000000        0.61850200000000
C            4.60376100000000       -5.95424300000000        0.08609400000000
C            2.85806400000000       -4.22538100000000       -0.25182500000000
C            5.14708100000000       -3.47815200000000        0.28993700000000
C            7.45348400000000       -2.66819600000000        0.54187100000000
C            5.25513400000000       -8.71401100000000        0.36817100000000
C            3.64995800000000       -6.97978600000000       -0.22940300000000
C            2.05228400000000       -5.25450800000000       -0.86613900000000
C            0.01614100000000       -3.55378000000000        0.40596500000000
C            5.89809800000000       -6.38917200000000        0.48727600000000
C            4.21262500000000       -4.55185800000000        0.05429900000000
C            2.38089500000000       -2.87866700000000        0.02904800000000
C            6.54368300000000       -3.69759300000000        0.53115200000000
C            4.71683000000000       -2.12096700000000        0.19862700000000
C            7.04566900000000       -1.32150100000000        0.39002800000000
C           -8.53858900000000       -5.85976800000000        0.11631200000000
C           -5.93362700000000       -4.99307500000000       -0.02894700000000
C           -7.84565500000000       -3.51985300000000        0.41172200000000
C           -3.62527400000000       -4.15311700000000       -0.03352600000000
C           -5.52114800000000       -2.54738000000000        0.23680000000000
C           -7.33841100000000       -0.82000800000000        0.50827600000000
C           -1.33434400000000       -3.32591100000000        0.16406600000000
C           -3.19523900000000       -1.71224600000000        0.13016300000000
C           -5.02955300000000       -0.09528800000000        0.26193200000000
C           -6.84691600000000        1.54814300000000        0.42683700000000
C           -8.81817200000000       -4.57638200000000        0.42051300000000
C           -6.47020100000000       -3.67442200000000        0.19679800000000
C           -4.13159200000000       -2.80346100000000        0.12755800000000
C           -5.96407400000000       -1.18023400000000        0.34160400000000
C           -7.76375100000000        0.48484500000000        0.53875400000000
C            0.98429700000000       -2.55563900000000        0.23180100000000
C           -6.39784600000000        3.92696900000000        0.35518400000000
C            3.05820200000000        7.03383700000000       -0.31287800000000
C           -0.85461600000000       -0.91914400000000        0.15863900000000
C            8.50683800000000        2.12984000000000        0.26260100000000
C           -2.69408100000000        0.71304600000000        0.13048100000000
C            6.71552900000000        3.79265400000000        0.06462700000000
C           -4.53696600000000        2.35743000000000        0.19278900000000
C            4.87082600000000        5.41876800000000       -0.12483200000000
C            3.31605800000000       -1.82536200000000        0.11739600000000
C           -4.05110200000000        4.79630400000000        0.02589400000000
C            1.48977700000000       -0.15035600000000        0.10095000000000
C           -5.84598100000000        6.58965100000000       -0.02559500000000
C           -0.35634000000000        1.49774700000000        0.05870700000000
C            9.15977700000000        4.46498400000000        0.14028200000000
C           -2.20499100000000        3.13702500000000        0.01869800000000
C            5.65291500000000       -1.04381000000000        0.25751400000000
C           -1.69477900000000        5.55005900000000       -0.22902400000000
C            3.82191700000000        0.60673200000000        0.12259300000000
C           -3.53550700000000        7.20349000000000       -0.42112800000000
C            1.99290600000000        2.25600800000000        0.01058500000000
C           -5.31206300000000        8.85969100000000       -0.64059600000000
C            0.15675200000000        3.89967300000000       -0.09334900000000
C            7.97390400000000       -0.26658300000000        0.39226100000000
C            0.66522400000000        6.30067500000000       -0.32820500000000
C            6.16794300000000        1.36723500000000        0.18279400000000
C           -1.14482500000000        7.90137300000000       -0.54456600000000
C            4.35151600000000        3.01556400000000        0.02037100000000
C            2.51082100000000        4.66647700000000       -0.14038900000000
C           -1.79786400000000       -1.98137700000000        0.13311700000000
C            7.56688800000000        1.05840200000000        0.27824800000000
C            0.19448400000000        7.62333300000000       -0.49718900000000
C           -3.63658600000000       -0.36758200000000        0.16519600000000
C            5.74257800000000        2.72733300000000        0.08894300000000
C           -5.46427200000000        1.26813400000000        0.29646600000000
C            3.91205700000000        4.36492200000000       -0.08131600000000
C           -7.28693800000000        2.88455700000000        0.45340400000000
C            2.07584300000000        6.00756000000000       -0.26356000000000
C            0.54186200000000       -1.20783300000000        0.15326000000000
C           -1.30490600000000        0.43244600000000        0.11470700000000
C            8.13032000000000        3.44309000000000        0.15662300000000
C           -3.14032300000000        2.07168900000000        0.10747900000000
C            6.26288900000000        5.11366600000000       -0.04576000000000
C           -4.99004200000000        3.71432400000000        0.19625200000000
C            4.39425800000000        6.75405300000000       -0.24253700000000
C            2.87507900000000       -0.45588600000000        0.12819900000000
C           -4.48632500000000        6.18113500000000       -0.12507500000000
C            1.04291500000000        1.20277800000000        0.05119500000000
C           -6.25444800000000        7.89071300000000       -0.28835500000000
C           -0.80320700000000        2.84419300000000       -0.00952100000000
C            8.93678600000000        5.78362200000000        0.03680800000000
C           -2.66656600000000        4.49473900000000       -0.06071400000000
C            5.21899300000000        0.31165400000000        0.18320200000000
C           -2.12154000000000        6.88568700000000       -0.40895800000000
C            3.38931700000000        1.95599000000000        0.05133300000000
C           -3.97625500000000        8.52028900000000       -0.69328700000000
C            1.54616500000000        3.60741800000000       -0.07499900000000
C           -0.29068900000000        5.25333500000000       -0.21558800000000
H           -4.69145100000000       -7.42513800000000       -0.06458400000000
H           -0.60602800000000       -8.24736200000000       -1.29748000000000
H            3.25509800000000       -9.11050800000000       -0.22684600000000
H           -2.37957700000000       -7.83439200000000       -0.45308800000000
H            1.72711600000000       -8.63956600000000       -1.29316900000000
H            7.22020200000000       -8.02136900000000        0.93149700000000
H            8.50968400000000       -2.87909400000000        0.68766800000000
H            5.50197800000000       -9.76359900000000        0.49719600000000
H           -9.30223400000000       -6.63004800000000        0.09207400000000
H           -9.84621500000000       -4.31858500000000        0.65849600000000
H           -8.81928200000000        0.71352600000000        0.65655700000000
H            2.76113800000000        8.07116500000000       -0.39727700000000
H            9.56356900000000        1.88557300000000        0.33460400000000
H           10.18907900000000        4.12358500000000        0.21725800000000
H           -5.63052600000000        9.87328500000000       -0.86417100000000
H            9.03275800000000       -0.49354300000000        0.48701500000000
H           -1.44187500000000        8.93477300000000       -0.66243500000000
H            0.89008400000000        8.44656900000000       -0.59573200000000
H           -8.34965000000000        3.08400300000000        0.55917400000000
H            5.09413500000000        7.58124500000000       -0.27825200000000
H           -7.30742400000000        8.14832100000000       -0.22041000000000
H            9.74187700000000        6.51102000000000        0.02744900000000
H           -3.26260700000000        9.28686900000000       -0.96288800000000
H            0.33263100000000       -4.55172400000000        0.66616100000000
S           -7.12142900000000        5.51876800000000        0.54242600000000
S            7.35900800000000        6.51918200000000       -0.09560800000000
S            7.20372900000000       -5.28448400000000        0.91821300000000
S            0.60342600000000       -4.85510900000000       -1.85319000000000
S           -6.96491300000000       -6.41625300000000       -0.29825800000000
S           -8.61124800000000       -2.00111100000000        0.75858300000000
128
 energy: -242.187850835216 gnorm: 0.023432842862 xtb: 6.7.1pre (5071a88)
C           -4.02988363250250       -6.54659835785084       -0.17552812131837
C            0.05449509725514       -7.34868042578398       -1.21094551570480
C           -1.76157383717646       -5.72269626773829       -0.54240662818237
C            3.99169384623940       -8.31569856962052       -0.04484349275022
C            2.36476102625668       -6.58501822733226       -0.76928262351146
C           -2.71569002863017       -6.78446174149303       -0.37881798051494
C           -4.55412858868661       -5.21966592708195       -0.09542201593491
C            1.39329537159622       -7.58180135927980       -1.16582966806883
C           -0.51252786338722       -6.03656328049423       -1.08507164766576
C           -2.24285908375102       -4.39919882556153       -0.14922874757102
C            6.20358514044402       -7.71507500899423        0.61383637382493
C            4.59350213885342       -5.93853590679922        0.08420981716653
C            2.85794570187139       -4.21458639251147       -0.24213124168000
C            5.13451718313535       -3.47068666246818        0.28657332048447
C            7.43079847215063       -2.65944596622862        0.54108810468529
C            5.24799708813658       -8.69022473736987        0.36510220605593
C            3.64674369594142       -6.96172662249528       -0.22654724412947
C            2.04881098432226       -5.23950925266830       -0.83076854593239
C            0.02142902767823       -3.55556810206952        0.36902312267508
C            5.87796980648092       -6.37532397800953        0.48401115202786
C            4.20758932104419       -4.54235524165076        0.05243546877646
C            2.38139167752773       -2.87386935425698        0.02649655317900
C            6.52226904317436       -3.68489123061133        0.53042623907730
C            4.70752309773315       -2.11659812676178        0.19530526830588
C            7.02784764698842       -1.31648178411464        0.38527718534757
C           -8.52046688667502       -5.84690137722211        0.11258918528226
C           -5.91767066577390       -4.97125439129654       -0.02923947658843
C           -7.82344290715147       -3.51502861581148        0.40901102214025
C           -3.61657540095920       -4.13860217590029       -0.03447169741459
C           -5.50806805992677       -2.54239207991451        0.23575256668906
C           -7.31391420852497       -0.81777327053342        0.50575396380855
C           -1.32999857406716       -3.32186694405962        0.13668431742476
C           -3.18841647629262       -1.70999963438495        0.12523271424720
C           -5.01770787611655       -0.09571231636311        0.25999421107546
C           -6.82707054193965        1.54524634396829        0.41996307681886
C           -8.79271327942923       -4.56754123815929        0.41273476042998
C           -6.45281645895034       -3.66335567053379        0.19793563471611
C           -4.12148208439078       -2.79663849572280        0.12630072272185
C           -5.94773676029330       -1.17953931944141        0.33787260725428
C           -7.73908784439159        0.48301157606093        0.53501830137324
C            0.98522381561861       -2.55538211682211        0.20154222257240
C           -6.37262271105703        3.91588238145215        0.35630380885985
C            3.05563088331500        7.00956779860613       -0.31018324002023
C           -0.85184018966454       -0.92032819223653        0.15327498412891
C            8.48264814298062        2.12650945749213        0.26130415550103
C           -2.68845416739722        0.71086193761667        0.12885614297582
C            6.69869283174806        3.78122844986698        0.06501567129141
C           -4.52470644076336        2.35228710369605        0.19057755625248
C            4.85791232831677        5.39869732106383       -0.12357671229441
C            3.31153349773162       -1.82143126490147        0.11601557664807
C           -4.03956310905165        4.78517117299527        0.02235304236095
C            1.48739963615509       -0.15171842482677        0.09490176794236
C           -5.82278473884086        6.57587548484387       -0.02358032309345
C           -0.35488031191777        1.49320652315630        0.05734478054943
C            9.13225749139515        4.45479674253289        0.13965915272616
C           -2.19872775934925        3.13038920280890        0.01825218993623
C            5.63926199387032       -1.04119486423201        0.25397581774616
C           -1.69064768663055        5.53500295992675       -0.22663339766010
C            3.81419722616694        0.60431085304598        0.12269184483926
C           -3.52832436716022        7.18393846923824       -0.41848907596181
C            1.98947234525134        2.25064186272514        0.01056773211680
C           -5.30210106667897        8.83424245932137       -0.64096160082219
C            0.15635600206749        3.89044798770417       -0.09297548287722
C            7.95254599404175       -0.26420505045653        0.38969371309687
C            0.66352600193423        6.28306729833802       -0.32558336544108
C            6.15354983963913        1.36517951403027        0.18222515558447
C           -1.14501866245433        7.87666112381161       -0.53955022353485
C            4.34182956352337        3.00686456309378        0.02055055059430
C            2.50505996924312        4.65370391750738       -0.13883431411592
C           -1.79422009727085       -1.97958312432882        0.12370498375511
C            7.54689624049916        1.05810895136139        0.27645509686627
C            0.19004570397115        7.59957279461731       -0.49275889115947
C           -3.62826967731187       -0.36683883138077        0.16446898780664
C            5.73022637625366        2.72023257027191        0.08898972926976
C           -5.44822863866670        1.26537737020357        0.29270595258596
C            3.90052660798277        4.35135868356785       -0.08052473728971
C           -7.26245617740510        2.87818846252769        0.45214098288831
C            2.07136587636988        5.99141208606898       -0.26177183567297
C            0.54133543518934       -1.20848411256642        0.14114384838766
C           -1.30124754923381        0.42997637647722        0.11628991218995
C            8.10606334318796        3.43691268711454        0.15574813101464
C           -3.13222061886014        2.06689855327545        0.10793347736005
C            6.24320763980260        5.09379547655367       -0.04500283602659
C           -4.97329904294128        3.70663267453872        0.19356664743490
C            4.38744975056352        6.72826416726671       -0.24006579828028
C            2.87045723180168       -0.45663374293264        0.12660612842615
C           -4.47281113473366        6.16336672378216       -0.12504411356668
C            1.04097563681984        1.19896565876448        0.05096931594575
C           -6.23473341269153        7.87099404040967       -0.28474997015017
C           -0.80103522358294        2.83788535972826       -0.00789427104936
C            8.91210235641108        5.76759644209961        0.03673147525079
C           -2.65851970678846        4.48375819371914       -0.06209326808479
C            5.20770546730943        0.31096643731879        0.18245385508501
C           -2.11939018182772        6.86671404449421       -0.40550032320305
C            3.38218879781314        1.95070953474898        0.05151525933961
C           -3.97247901271276        8.49397530228852       -0.69049160884506
C            1.54304897965501        3.59881976999227       -0.07344962780220
C           -0.29106400420437        5.23996415711841       -0.21373365726673
H           -4.70003932655659       -7.38980950060960       -0.07182445762378
H           -0.59519939049965       -8.21071673190899       -1.30391517305970
H            3.26005022335264       -9.08747356344022       -0.22317605618285
H           -2.38531541010257       -7.80929838145855       -0.45215630575707
H            1.72517693513649       -8.60017530831635       -1.30298456790708
H            7.20096530674384       -7.99584752798524        0.92592792941588
H            8.48142013692164       -2.87610228368927        0.68998449291991
H            5.49597318445772       -9.73595706093831        0.49294610048987
H           -9.27840198457391       -6.61668040130584        0.09575429929273
H           -9.81372847805777       -4.30128718855831        0.65689021109475
H           -8.79177780163389        0.70485211598142        0.65711538390322
H            2.76333059612208        8.04508780405834       -0.39549115008476
H            9.53626464562027        1.88317141287610        0.33312920378676
H           10.15841309647378        4.11375890823491        0.21630793757717
H           -5.62150874430337        9.84473386285409       -0.86058172607038
H            9.00764509427723       -0.49096530452681        0.48487286862365
H           -1.43972830423052        8.90770223632957       -0.66026236383804
H            0.88131049152380        8.42254909074137       -0.59202317904982
H           -8.31974175409560        3.08357789865850        0.56322393626030
H            5.09453919270068        7.54680927195903       -0.27513380962061
H           -7.28385254223591        8.12536961894817       -0.20988974708875
H            9.71073560747682        6.49626228982404        0.02679710551448
H           -3.26501599242720        9.26268590522418       -0.95675249973848
H            0.33538342034107       -4.54773576487155        0.65710204147795
S           -7.10137466948002        5.50385625745695        0.51916515314995
S            7.33687222004285        6.49251913792355       -0.09487309227813
S            7.18407443172969       -5.27244154316164        0.89465112434052
S            0.58824533617347       -4.81156061327140       -1.77841133609425
S           -6.94265282252474       -6.40166266214739       -0.28361872054200
S           -8.58899832361716       -1.99561339481982        0.75145517335670
128
 energy: -242.193272013999 gnorm: 0.012545098209 xtb: 6.7.1pre (5071a88)
C           -4.02248555438292       -6.52113064150975       -0.17762359877635
C            0.05835089809287       -7.31805066672068       -1.19667757890293
C           -1.75973171643657       -5.70304378664739       -0.53783799392607
C            3.98240234292916       -8.28742833854298       -0.04337906384143
C            2.36003141108627       -6.56295915099934       -0.75968833117919
C           -2.71028026697656       -6.76001414567567       -0.37850293280670
C           -4.54023530887430       -5.19807812437590       -0.09813642000656
C            1.39372868711594       -7.55078182999079       -1.16231536052508
C           -0.50683740528770       -6.01693486345422       -1.06112414716249
C           -2.23620422686565       -4.38532537388554       -0.15119569543778
C            6.18754900585757       -7.69014921348524        0.61090550215400
C            4.58071043387655       -5.91709822507040        0.08293752102878
C            2.84880866555297       -4.20010737664447       -0.23952372280542
C            5.11953671299895       -3.46218965827207        0.28250845945417
C            7.40918943836082       -2.65145299357442        0.54140082841747
C            5.23651451869122       -8.66360500464498        0.36448021355065
C            3.63844154830453       -6.93846460738559       -0.22288317809480
C            2.04139103854088       -5.22285812620368       -0.81615940700121
C            0.02388080707663       -3.54876277478142        0.36788193477651
C            5.85993697397347       -6.35395300972684        0.47882708958007
C            4.19505657737650       -4.52825007990142        0.05174696865952
C            2.37558351862706       -2.86539846362605        0.02545708677078
C            6.50110919829789       -3.67359216581885        0.52555638488954
C            4.69463094298649       -2.11121806035224        0.19223598840935
C            7.00891455387272       -1.31275202307321        0.38336944028003
C           -8.49947871892896       -5.83387309700436        0.11459903001611
C           -5.89997660347106       -4.95005047210607       -0.02754580379527
C           -7.80073011099768       -3.50508065149861        0.40513345382285
C           -3.60442538246958       -4.12159575682232       -0.03812019011826
C           -5.49220115689284       -2.53522509052025        0.23230334082270
C           -7.28945972057687       -0.81537471715506        0.50254966054124
C           -1.32766145885947       -3.31276251584970        0.13103123551299
C           -3.17906878225410       -1.70567155449909        0.11724328347104
C           -5.00314605684296       -0.09576633394925        0.25544820643975
C           -6.80659927268924        1.54203112811390        0.41777022908634
C           -8.76570254692209       -4.55501884285808        0.40902030106563
C           -6.43332469527134       -3.64970928934810        0.19672814618859
C           -4.10822080989725       -2.78727005243912        0.12073299743872
C           -5.92968994462620       -1.17775027634539        0.33365138207597
C           -7.71523995670696        0.48179868808307        0.53356674082110
C            0.98579003941279       -2.54823905303817        0.19712348938149
C           -6.34816878733883        3.90435672435811        0.35325452274247
C            3.04850438704341        6.98732745523748       -0.30799370737643
C           -0.84825495008858       -0.91959667222323        0.14457171732093
C            8.45784042321682        2.11929538228438        0.26012478227195
C           -2.68035946240044        0.70797622384513        0.12560579632873
C            6.67920558004176        3.76776424320914        0.06532146184327
C           -4.51008889086905        2.34472652895459        0.18756000890860
C            4.84223760372694        5.37899107732183       -0.12204487606724
C            3.30349073101521       -1.81593292231944        0.11213817322853
C           -4.02550219122066        4.77009572552309        0.02009058263066
C            1.48390302946506       -0.15279475308477        0.08691759606155
C           -5.80124139339447        6.55483778823818       -0.02397579061965
C           -0.35269631085173        1.48691974813829        0.05507706950338
C            9.10149449616271        4.44215278314058        0.13904775870164
C           -2.19038383735646        3.12060805058722        0.01715427672845
C            5.62328125282298       -1.03949095437750        0.25096509577373
C           -1.68402009925714        5.51667966765844       -0.22502957841128
C            3.80390434951191        0.60071717402484        0.12095718625554
C           -3.51745949697363        7.16070636240607       -0.41672340695355
C            1.98462308357629        2.24302230080662        0.00982611903737
C           -5.28793267218177        8.80829327581529       -0.63721798195013
C            0.15622975774926        3.87788821580188       -0.09200961989791
C            7.93141353381764       -0.26426172163369        0.38783486058609
C            0.66292391283901        6.26368153769664       -0.32218210618701
C            6.13627721651111        1.36043691105293        0.18105583389894
C           -1.14241779624285        7.85224213292524       -0.53591376521574
C            4.32911831623799        2.99566445044483        0.02100982424107
C            2.49782713925079        4.63830565220982       -0.13678674741750
C           -1.78919141862477       -1.97535451844288        0.11397680483537
C            7.52524126258582        1.05490610826258        0.27439771097898
C            0.19045211765878        7.57589323095289       -0.48829647612445
C           -3.61730709414971       -0.36507893979542        0.16035240711238
C            5.71439590046083        2.71040124795526        0.08902475940733
C           -5.43066278825008        1.26182374957875        0.28866139851069
C            3.88699626968034        4.33565639454856       -0.07916454156834
C           -7.23899822151001        2.87092978314378        0.45344406270225
C            2.06628861225913        5.97356509898576       -0.25918178326647
C            0.54035050424238       -1.20688420905976        0.13108851636218
C           -1.29610502139593        0.42695943756005        0.11367947643478
C            8.07942816672676        3.42725047256518        0.15509620447113
C           -3.12192417896745        2.05982806132776        0.10636953892695
C            6.22208244335119        5.07504795126449       -0.04431346623484
C           -4.95574583660893        3.69649839028371        0.18977050879685
C            4.37741522194990        6.70481267273993       -0.23792071049614
C            2.86328284218911       -0.45706760465468        0.12261266589818
C           -4.45823484363226        6.14079940620204       -0.12605285016787
C            1.03831547922710        1.19378747036859        0.04824518989718
C           -6.21503816406694        7.84786224889258       -0.27835962481927
C           -0.79777524943058        2.82862765114795       -0.00749310246471
C            8.88108016375039        5.75257261006565        0.03613604736151
C           -2.64768487154182        4.46919835166722       -0.06299272253263
C            5.19303844045679        0.30849942075004        0.18046716890462
C           -2.11347603026228        6.84543063729579       -0.40317650078126
C            3.37263573036726        1.94343963399610        0.05118878095160
C           -3.96121060930166        8.46554808097604       -0.68788939643313
C            1.53920472095109        3.58706813829815       -0.07191448516679
C           -0.28968303847549        5.22354791203786       -0.21147331534539
H           -4.70162459774444       -7.35564029297416       -0.08236546642148
H           -0.59327557192899       -8.17396116115271       -1.29661010886701
H            3.25347056002354       -9.05889026899812       -0.22417547003455
H           -2.37908900892905       -7.78220667961300       -0.45592896839679
H            1.72837614312665       -8.56416726125715       -1.31391978690603
H            7.18444641870837       -7.96278425751649        0.92164579890045
H            8.45488573626423       -2.87410820745499        0.69483345557881
H            5.48556782126423       -9.70666073861251        0.48893270488033
H           -9.25237731889253       -6.60340633755492        0.09729354406467
H           -9.78160564341821       -4.27585472424433        0.65084722730853
H           -8.76595323689586        0.69700048052289        0.65895292196840
H            2.75712677136894        8.02105665679555       -0.39427973415981
H            9.50893772549087        1.87661267063634        0.33169578625397
H           10.12476894668764        4.09952781617503        0.21562010565102
H           -5.60781975218169        9.81513305743144       -0.85933639116613
H            8.98367486327532       -0.49077129194838        0.48299454727036
H           -1.43740885405717        8.88099649713126       -0.65833860012304
H            0.88072405417753        8.39737214402348       -0.58650912191796
H           -8.29138555534452        3.08305907691706        0.56929074507854
H            5.09233436967655        7.51407689824328       -0.27201706893303
H           -7.26219476060726        8.09600764980700       -0.19613200840429
H            9.67255603573704        6.48429360372167        0.02559210341347
H           -3.25617427635346        9.23413201679286       -0.95333939141832
H            0.32684281068149       -4.52151230261724        0.73963614443515
S           -7.08530127379566        5.48570932050782        0.49425152473589
S            7.30945464224111        6.46943239021990       -0.09471667072690
S            7.17019763860478       -5.25805791736885        0.86898603349328