128
 energy: -242.194751920609 gnorm: 0.000214680193 xtb: 6.7.1pre (5071a88)
C           -4.00048238218896       -6.51716693480462       -0.21216891680958
C            0.05977026232079       -7.25917781828738       -1.33616483975608
C           -1.74891302447210       -5.67972789171762       -0.57783914015312
C            3.89852402816489       -8.25352300696087       -0.02634886372921
C            2.34063262445654       -6.51281633068623       -0.82928502313423
C           -2.69127982554152       -6.74659573954504       -0.44238058795053
C           -4.52048113890997       -5.19804420736373       -0.08691746689385
C            1.39489001397996       -7.49149022405310       -1.29971042783971
C           -0.50208088271059       -5.96414033291885       -1.12690790473888
C           -2.22328281600197       -4.37511058054301       -0.15817974458126
C            6.11910054347943       -7.68814755611498        0.62190580508462
C            4.55729821685531       -5.89780087532711        0.04496588445073
C            2.84145745899277       -4.17385408040123       -0.25705409262029
C            5.11855597785865       -3.45536059806489        0.25947401090253
C            7.40725659044039       -2.65459930896700        0.53746137298776
C            5.13961994300069       -8.64439291371856        0.41214418427525
C            3.59672747076258       -6.90329266282302       -0.25473805059537
C            2.02606303288433       -5.17256891099318       -0.85900921282237
C            0.03360010853864       -3.54849190141428        0.38417330862984
C            5.83081007701650       -6.34740345725473        0.44324942378676
C            4.18737342520831       -4.50918671299763        0.01727915448525
C            2.37458230739100       -2.84944969642866        0.03282733496849
C            6.50021264055157       -3.67776644906190        0.49019254162358
C            4.69405330821975       -2.10446436930271        0.19289207688116
C            7.00670402194603       -1.31431839097177        0.40026869838466
C           -8.47259757097111       -5.84299822861588        0.24329470120349
C           -5.87824389339371       -4.95822000468481        0.04243098516616
C           -7.77854931529049       -3.50409952669115        0.46274426736039
C           -3.59134054620313       -4.11743970432943       -0.03586277546875
C           -5.47526394842845       -2.53760216903963        0.26466441916536
C           -7.26953668441313       -0.81971070030434        0.56459917883644
C           -1.31594552432936       -3.30964871561902        0.14133488770884
C           -3.16592411663615       -1.70730303024346        0.12261717517894
C           -4.98853057106659       -0.10177749111825        0.27881606201712
C           -6.78604045671867        1.53623362566676        0.49319612595492
C           -8.74469037254539       -4.55154517682006        0.47271056773528
C           -6.41074336120389       -3.65472316507311        0.25546189314623
C           -4.09360437061155       -2.78699428269327        0.13586068252457
C           -5.91350012220884       -1.18226248527105        0.37053248052466
C           -7.69223546571897        0.47773089986292        0.62654046774346
C            0.98852334463156       -2.54168973310916        0.21608073275868
C           -6.33283046391583        3.89629624040662        0.37344442871714
C            3.04356142284778        6.98298173015204       -0.28967139094525
C           -0.84135916891528       -0.91890849901717        0.14735178724107
C            8.45048781002063        2.11636302514979        0.30232127974305
C           -2.67097068698870        0.70123514230813        0.12143138236952
C            6.67026685096944        3.76390320632454        0.09620613195356
C           -4.49794108433995        2.33294437864394        0.19538307048197
C            4.83464259521560        5.37386445158815       -0.10021284907587
C            3.30538932172054       -1.80616122884337        0.12146719050198
C           -4.01488763788041        4.74986871516874       -0.00786836649989
C            1.48638980889474       -0.15300463538695        0.09200891815485
C           -5.79211060760913        6.52699933428689       -0.08816431606315
C           -0.34703114512628        1.48008185691506        0.04683558749829
C            9.08712301155162        4.44031328935627        0.18765789767880
C           -2.18191452377938        3.10673827594882       -0.00069333244613
C            5.62249514034320       -1.03744962272693        0.26305477199275
C           -1.67636386312316        5.49786772009269       -0.24920790320195
C            3.80359170432964        0.60131332553239        0.13425502380083
C           -3.50851315718372        7.12591622395695       -0.49679204006424
C            1.98553683666243        2.23773154668542        0.01361958733092
C           -5.27826744840268        8.75624311562745       -0.79636376245242
C            0.15997220919184        3.86695582804615       -0.09836261181384
C            7.92824095304229       -0.26632359455972        0.41943466317365
C            0.66413873241592        6.25550995479888       -0.30299466829497
C            6.13182020528233        1.35863208221709        0.20720999461565
C           -1.14090050925790        7.84186894942980       -0.51418863785213
C            4.32469101773894        2.99149538882696        0.03873446147411
C            2.49558419677491        4.63125304105684       -0.12308207329137
C           -1.77769940402799       -1.97515843042806        0.11925083240050
C            7.51948778895868        1.05235864603555        0.30849561922152
C            0.19192063662691        7.57113844303987       -0.43832480861423
C           -3.60532125235714       -0.36956869236840        0.16500181862130
C            5.70778481686432        2.70663619350863        0.11446520619236
C           -5.41530739399146        1.25346396020570        0.32211463596127
C            3.88234058822327        4.32952421957773       -0.06142599086392
C           -7.21781744815338        2.86382436290394        0.53006400006862
C            2.06514316946822        5.96658211653192       -0.23974421958450
C            0.54392016780683       -1.20456216161592        0.14002710951738
C           -1.28870221261977        0.42286587435037        0.10738420189923
C            8.06851960035512        3.42362269567222        0.19549540579729
C           -3.11261443294653        2.04915173917681        0.09820892925345
C            6.21393105604973        5.07239678510792       -0.01741729976246
C           -4.94449038829257        3.68281390101114        0.18764142520707
C            4.37169682905474        6.70047483331567       -0.21859493149829
C            2.86409371917546       -0.45282772938093        0.13369757871273
C           -4.44914449845835        6.11338951021473       -0.18101209791575
C            1.04129054135246        1.18954521528037        0.04619554355787
C           -6.20242693376404        7.81403715005053       -0.38105947986594
C           -0.79163653865002        2.81823036578799       -0.02150215000768
C            8.86237217222957        5.75080478707806        0.07919767704227
C           -2.63841753013135        4.45108941804985       -0.09093954887840
C            5.19025907860975        0.30823722682583        0.19874526641118
C           -2.10530954219073        6.82345872381852       -0.43639841007711
C            3.37098130729377        1.94070818355350        0.06286218220896
C           -3.95023671400140        8.41251563465427       -0.83990873464987
C            1.54049424246118        3.57903282054319       -0.06771517283119
C           -0.28425246691689        5.21063213750428       -0.21611905891817
H           -4.67775868495252       -7.35395225748273       -0.13826815188957
H           -0.59623550069332       -8.10155310275416       -1.50098523266939
H            3.14147295031169       -9.00318487900512       -0.18472269914012
H           -2.35583033062211       -7.76303379211272       -0.56228078909528
H            1.75106028955065       -8.48377868676434       -1.52164601363886
H            7.11070292119821       -7.96985448687822        0.94185082571771
H            8.45209382285388       -2.88131642955260        0.68991987820925
H            5.35715797602153       -9.68716243128645        0.58542426261966
H           -9.22299837237692       -6.61511748024394        0.24703923008286
H           -9.76429426436396       -4.25517489672905        0.67572382362863
H           -8.73956080526108        0.69171510116098        0.77813128969188
H            2.74971471173225        8.01507012380965       -0.38099487688322
H            9.50073333606255        1.87371403469924        0.38069376816877
H           10.10841152749114        4.09565638650320        0.27507224266929
H           -5.59951432660799        9.74985235072586       -1.06816489766853
H            8.97993651488034       -0.49234844022144        0.51965147844654
H           -1.44434947320151        8.87121919414927       -0.60441978512869
H            0.88173815033715        8.39685764459305       -0.48581230651279
H           -8.26557137079262        3.07929981635426        0.67539675475629
H            5.08929902260781        7.50606784475513       -0.25370597162671
H           -7.24919107550039        8.06092895057397       -0.29088196411161
H            9.65076472688508        6.48562334200394        0.07371141500022
H           -3.24085605595077        9.15660182784998       -1.15944144892883
H            0.34154665048126       -4.52722702244614        0.72022206573778
S           -7.07530428555976        5.47559789841952        0.45801589578471
S            7.29457453342518        6.46669756888762       -0.06765979071571
S            7.17374436330089       -5.27196202835640        0.76171420468082
S            0.57767927430875       -4.71459561274229       -1.79214200331175
S           -6.88799006796548       -6.41597814808207       -0.08040071879191
S           -8.55091964324768       -1.98748772301737        0.78771138519215
