      -----------------------------------------------------------      
     |                   =====================                   |     
     |                           x T B                           |     
     |                   =====================                   |     
     |                         S. Grimme                         |     
     |          Mulliken Center for Theoretical Chemistry        |     
     |                    University of Bonn                     |     
      -----------------------------------------------------------      

   * xtb version 6.7.1pre (5071a88) compiled by 'Marcel@Raven' on 2024-07-23

   xtb is free software: you can redistribute it and/or modify it under
   the terms of the GNU Lesser General Public License as published by
   the Free Software Foundation, either version 3 of the License, or
   (at your option) any later version.
   
   xtb is distributed in the hope that it will be useful,
   but WITHOUT ANY WARRANTY; without even the implied warranty of
   MERCHANTABILITY or FITNESS FOR A PARTICULAR PURPOSE.  See the
   GNU Lesser General Public License for more details.
   
   Cite this work as:
   * C. Bannwarth, E. Caldeweyher, S. Ehlert, A. Hansen, P. Pracht,
     J. Seibert, S. Spicher, S. Grimme, WIREs Comput. Mol. Sci., 2020, 11,
     e01493. DOI: 10.1002/wcms.1493
   
   for GFN2-xTB:
   * C. Bannwarth, S. Ehlert and S. Grimme., J. Chem. Theory Comput., 2019,
     15, 1652-1671. DOI: 10.1021/acs.jctc.8b01176
   for GFN1-xTB:
   * S. Grimme, C. Bannwarth, P. Shushkov, J. Chem. Theory Comput., 2017,
     13, 1989-2009. DOI: 10.1021/acs.jctc.7b00118
   for GFN0-xTB:
   * P. Pracht, E. Caldeweyher, S. Ehlert, S. Grimme, ChemRxiv, 2019, preprint.
     DOI: 10.26434/chemrxiv.8326202.v1
   for GFN-FF:
   * S. Spicher and S. Grimme, Angew. Chem. Int. Ed., 2020, 59, 15665-15673.
     DOI: 10.1002/anie.202004239
   
   for ALPB and GBSA implicit solvation:
   * S. Ehlert, M. Stahn, S. Spicher, S. Grimme, J. Chem. Theory Comput.,
     2021, 17, 4250-4261. DOI: 10.1021/acs.jctc.1c00471
   
   for ddCOSMO and CPCM-X implicit solvation:
   * M. Stahn, S. Ehlert, S. Grimme, J. Phys. Chem. A,
     2023, XX, XXXX-XXXX. DOI: 10.1021/acs.jpca.3c04382
   
   for DFT-D4:
   * E. Caldeweyher, C. Bannwarth and S. Grimme, J. Chem. Phys., 2017,
     147, 034112. DOI: 10.1063/1.4993215
   * E. Caldeweyher, S. Ehlert, A. Hansen, H. Neugebauer, S. Spicher,
     C. Bannwarth and S. Grimme, J. Chem. Phys., 2019, 150, 154122.
     DOI: 10.1063/1.5090222
   * E. Caldeweyher, J.-M. Mewes, S. Ehlert and S. Grimme, Phys. Chem. Chem. Phys.
     2020, 22, 8499-8512. DOI: 10.1039/D0CP00502A
   
   for sTDA-xTB:
   * S. Grimme and C. Bannwarth, J. Chem. Phys., 2016, 145, 054103.
     DOI: 10.1063/1.4959605
   
   in the mass-spec context:
   * V. Asgeirsson, C. Bauer and S. Grimme, Chem. Sci., 2017, 8, 4879.
     DOI: 10.1039/c7sc00601b
   * J. Koopman and S. Grimme, ACS Omega 2019, 4, 12, 15120-15133.
     DOI: 10.1021/acsomega.9b02011
   
   for metadynamics refer to:
   * S. Grimme, J. Chem. Theory Comput., 2019, 155, 2847-2862
     DOI: 10.1021/acs.jctc.9b00143
   
   for SPH calculations refer to:
   * S. Spicher and S. Grimme, J. Chem. Theory Comput., 2021, 17, 1701-1714
     DOI: 10.1021/acs.jctc.0c01306
   
   for ONIOM refer to:
   * C. Plett, A. Katbashev, S. Ehlert, S. Grimme, M. Bursch,
     Phys. Chem. Chem. Phys., 2023, 25, 17860-17868. DOI: 10.1039/D3CP02178E
   
   for DIPRO refer to:
   * J. Kohn, N. Gildemeister, S. Grimme, D. Fazzi, A. Hansen,
     J. Chem. Phys., 2023, just accepted.
   
   for PTB refer to:
   * S. Grimme, M. Mueller, A. Hansen, J. Chem. Phys., 2023, 158, 124111.
     DOI: 10.1063/5.0137838
   
   with help from (in alphabetical order)
   P. Atkinson, C. Bannwarth, F. Bohle, G. Brandenburg, E. Caldeweyher
   M. Checinski, S. Dohm, S. Ehlert, S. Ehrlich, I. Gerasimov, C. Hölzer
   A. Katbashev, J. Kohn, J. Koopman, C. Lavigne, S. Lehtola, F. März, M. Müller,
   F. Musil, H. Neugebauer, J. Pisarek, C. Plett, P. Pracht, F. Pultar,
   J. Seibert, P. Shushkov, S. Spicher, M. Stahn, M. Steiner, T. Strunk,
   J. Stückrath, T. Rose, and J. Unsleber
   
 * started run on 2025/12/08 at 00:32:22.987     
   ID    Z sym.   atoms
    1    6 C      1-100
    2    1 H      101-126, 129, 130
    3    7 N      127, 128, 131, 132

           -------------------------------------------------
          |                Calculation Setup                |
           -------------------------------------------------

          program call               : xtb "C:\Users\LENOVO GAMING\Documents\GitHub\molecular-conductivity-sim\dataset\1.5nm-4Ndoped-3percent.xyz" --opt --parallel 4
          coordinate file            : C:\Users\LENOVO GAMING\Documents\GitHub\molecular-conductivity-sim\dataset\1.5nm-4Ndoped-3percent.xyz
          omp threads                :                     4


           -------------------------------------------------
          |                 G F N 2 - x T B                 |
           -------------------------------------------------

        Reference                      10.1021/acs.jctc.8b01176
      * Hamiltonian:
        H0-scaling (s, p, d)           1.850000    2.230000    2.230000
        zeta-weighting                 0.500000
      * Dispersion:
        s8                             2.700000
        a1                             0.520000
        a2                             5.000000
        s9                             5.000000
      * Repulsion:
        kExp                           1.500000    1.000000
        rExp                           1.000000
      * Coulomb:
        alpha                          2.000000
        third order                    shell-resolved
        anisotropic                    true
        a3                             3.000000
        a5                             4.000000
        cn-shift                       1.200000
        cn-exp                         4.000000
        max-rad                        5.000000


          ...................................................
          :                      SETUP                      :
          :.................................................:
          :  # basis functions                 444          :
          :  # atomic orbitals                 444          :
          :  # shells                          236          :
          :  # electrons                       448          :
          :  max. iterations                   250          :
          :  Hamiltonian                  GFN2-xTB          :
          :  restarted?                      false          :
          :  GBSA solvation                  false          :
          :  PC potential                    false          :
          :  electronic temp.          300.0000000     K    :
          :  accuracy                    1.0000000          :
          :  -> integral cutoff          0.2500000E+02      :
          :  -> integral neglect         0.1000000E-07      :
          :  -> SCF convergence          0.1000000E-05 Eh   :
          :  -> wf. convergence          0.1000000E-03 e    :
          :  Broyden damping             0.4000000          :
          :  net charge                          0          :
          :  unpaired electrons                  0          :
          ...................................................

 iter      E             dE          RMSdq      gap      omega  full diag
   1   -244.9816260 -0.244982E+03  0.472E+00    0.82       0.0  T
   2   -245.1168594 -0.135233E+00  0.323E+00    1.03       1.0  T
   3   -244.9305299  0.186329E+00  0.205E+00    1.00       1.0  T
   4   -245.3014495 -0.370920E+00  0.531E-01    0.92       1.0  T
   5   -245.3394625 -0.380129E-01  0.180E-01    0.99       1.0  T
   6   -245.3435752 -0.411274E-02  0.714E-02    0.98       1.0  T
   7   -245.3437991 -0.223909E-03  0.298E-02    0.99       1.0  T
   8   -245.3438588 -0.596519E-04  0.154E-02    0.99       1.0  T
   9   -245.3438777 -0.189881E-04  0.675E-03    0.99       1.3  T
  10   -245.3438828 -0.502359E-05  0.247E-03    0.99       3.5  T
  11   -245.3438835 -0.720991E-06  0.696E-04    0.99      12.5  T
  12   -245.3438835 -0.271526E-07  0.446E-04    0.99      19.5  T

   *** convergence criteria satisfied after 12 iterations ***

         #    Occupation            Energy/Eh            Energy/eV
      -------------------------------------------------------------
         1        2.0000           -0.6753575             -18.3774
       ...           ...                  ...                  ...
       218        2.0000           -0.3656576              -9.9500
       219        2.0000           -0.3632207              -9.8837
       220        2.0000           -0.3533206              -9.6143
       221        2.0000           -0.3399176              -9.2496
       222        2.0000           -0.3315567              -9.0221
       223        2.0000           -0.3314225              -9.0185
       224        2.0000           -0.3211841              -8.7399 (HOMO)
       225                         -0.2849076              -7.7527 (LUMO)
       226                         -0.2765638              -7.5257
       227                         -0.2613911              -7.1128
       228                         -0.2584946              -7.0340
       229                         -0.2521565              -6.8615
       ...                                ...                  ...
       444                          0.7636932              20.7812
      -------------------------------------------------------------
                  HL-Gap            0.0362765 Eh            0.9871 eV
             Fermi-level           -0.3030459 Eh           -8.2463 eV

 SCC (total)                   0 d,  0 h,  0 min,  0.962 sec
 SCC setup                      ...        0 min,  0.003 sec (  0.312%)
 Dispersion                     ...        0 min,  0.006 sec (  0.624%)
 classical contributions        ...        0 min,  0.000 sec (  0.000%)
 integral evaluation            ...        0 min,  0.040 sec (  4.158%)
 iterations                     ...        0 min,  0.724 sec ( 75.260%)
 molecular gradient             ...        0 min,  0.183 sec ( 19.023%)
 printout                       ...        0 min,  0.006 sec (  0.624%)

         :::::::::::::::::::::::::::::::::::::::::::::::::::::
         ::                     SUMMARY                     ::
         :::::::::::::::::::::::::::::::::::::::::::::::::::::
         :: total energy            -240.973514201356 Eh    ::
         :: gradient norm              0.043251627930 Eh/a0 ::
         :: HOMO-LUMO gap              0.987132550106 eV    ::
         ::.................................................::
         :: SCC energy              -245.351800493054 Eh    ::
         :: -> isotropic ES            0.020562858000 Eh    ::
         :: -> anisotropic ES          0.023033406113 Eh    ::
         :: -> anisotropic XC          0.088941801329 Eh    ::
         :: -> dispersion             -0.285793042442 Eh    ::
         :: repulsion energy           4.378286291698 Eh    ::
         :: add. restraining           0.000000000000 Eh    ::
         :: total charge              -0.000000000001 e     ::
         :::::::::::::::::::::::::::::::::::::::::::::::::::::

      ----------------------------------------------------------- 
     |                   =====================                   |
     |                        A N C O P T                        |
     |                   =====================                   |
     |               Approximate Normal Coordinate               |
     |                Rational Function Optimizer                |
      ----------------------------------------------------------- 
      ----------------------------------------------------------- 
     |                   =====================                   |
     |                        A N C O P T                        |
     |                   =====================                   |
     |               Approximate Normal Coordinate               |
     |                Rational Function Optimizer                |
      ----------------------------------------------------------- 

          ...................................................
          :                      SETUP                      :
          :.................................................:
          :   optimization level            normal          :
          :   max. optcycles                   396          :
          :   ANC micro-cycles                  20          :
          :   degrees of freedom               390          :
          :.................................................:
          :   RF solver                   davidson          :
          :   write xtbopt.log                true          :
          :   linear?                        false          :
          :   energy convergence         0.5000000E-05 Eh   :
          :   grad. convergence          0.1000000E-02 Eh/α :
          :   maxmium RF displ.          1.0000000          :
          :   Hlow (freq-cutoff)         0.1000000E-01      :
          :   Hmax (freq-cutoff)         5.0000000          :
          :   S6 in model hess.         20.0000000          :
          ...................................................

generating ANC from exact Hessian ...
Using Lindh-Hessian (1995)
 Shifting diagonal of input Hessian by   9.880300197276022E-003
 Lowest  eigenvalues of input Hessian
    0.000000    0.000000    0.000000    0.000000    0.000000    0.000000
    0.010000    0.010143    0.010220    0.010427    0.010504    0.011327
    0.011431    0.011568    0.011871    0.012358    0.012996    0.013295
 Highest eigenvalues
    2.131917    2.139820    2.153078    2.156622    2.201081    2.202130
 

........................................................................
.............................. CYCLE    1 ..............................
........................................................................

 iter      E             dE          RMSdq      gap      omega  full diag
   1   -245.3438835 -0.245344E+03  0.139E-04    0.99       0.0  T
   2   -245.3438835 -0.285524E-09  0.101E-04    0.99      85.8  T
   3   -245.3438835 -0.179091E-08  0.548E-05    0.99     158.7  T
     SCC iter.                  ...        0 min,  0.179 sec
     gradient                   ...        0 min,  0.187 sec
 * total energy  :  -240.9735142 Eh     change       -0.1426142E-07 Eh
   gradient norm :     0.0432528 Eh/α   predicted     0.0000000E+00 (-100.00%)
   displ. norm   :     0.5018791 α      lambda       -0.1467010E-01
   maximum displ.:     0.4575870 α      in ANC's #44, #70, #61, ...

........................................................................
.............................. CYCLE    2 ..............................
........................................................................

 iter      E             dE          RMSdq      gap      omega  full diag
   1   -245.4910160 -0.245491E+03  0.104E-01    0.99       0.0  T
   2   -245.4910230 -0.692695E-05  0.631E-02    0.99       1.0  T
   3   -245.4908190  0.203953E-03  0.428E-02    0.99       1.0  T
   4   -245.4910474 -0.228445E-03  0.637E-03    0.99       1.4  T
   5   -245.4910539 -0.644482E-05  0.188E-03    0.99       4.6  T
   6   -245.4910541 -0.212591E-06  0.901E-04    0.99       9.7  T
   7   -245.4910541 -0.432627E-07  0.416E-04    0.99      20.9  T
     SCC iter.                  ...        0 min,  0.412 sec
     gradient                   ...        0 min,  0.172 sec
 * total energy  :  -240.9845471 Eh     change       -0.1103288E-01 Eh
   gradient norm :     0.0183000 Eh/α   predicted    -0.9182776E-02 ( -16.77%)
   displ. norm   :     0.4911237 α      lambda       -0.6910721E-02
   maximum displ.:     0.4684611 α      in ANC's #44, #70, #21, ...

........................................................................
.............................. CYCLE    3 ..............................
........................................................................

 iter      E             dE          RMSdq      gap      omega  full diag
   1   -245.6119622 -0.245612E+03  0.905E-02    0.99       0.0  T
   2   -245.6119740 -0.118097E-04  0.547E-02    0.99       1.0  T
   3   -245.6118555  0.118496E-03  0.339E-02    1.00       1.0  T
   4   -245.6119891 -0.133625E-03  0.567E-03    0.99       1.5  T
   5   -245.6119943 -0.511943E-05  0.182E-03    0.99       4.8  T
   6   -245.6119946 -0.319605E-06  0.802E-04    0.99      10.9  T
   7   -245.6119946 -0.224257E-07  0.410E-04    0.99      21.2  T
     SCC iter.                  ...        0 min,  0.412 sec
     gradient                   ...        0 min,  0.188 sec
 * total energy  :  -240.9888890 Eh     change       -0.4341939E-02 Eh
   gradient norm :     0.0059923 Eh/α   predicted    -0.4289087E-02 (  -1.22%)
   displ. norm   :     0.1933040 α      lambda       -0.7741314E-03
   maximum displ.:     0.1851933 α      in ANC's #44, #21, #29, ...

........................................................................
.............................. CYCLE    4 ..............................
........................................................................

 iter      E             dE          RMSdq      gap      omega  full diag
   1   -245.6490082 -0.245649E+03  0.370E-02    0.99       0.0  T
   2   -245.6490099 -0.168751E-05  0.226E-02    0.99       1.0  T
   3   -245.6489886  0.212611E-04  0.123E-02    0.99       1.0  T
   4   -245.6490122 -0.235953E-04  0.187E-03    0.99       4.6  T
   5   -245.6490127 -0.520664E-06  0.685E-04    0.99      12.7  T
   6   -245.6490128 -0.462473E-07  0.318E-04    0.99      27.4  T
     SCC iter.                  ...        0 min,  0.365 sec
     gradient                   ...        0 min,  0.188 sec
 * total energy  :  -240.9893131 Eh     change       -0.4240236E-03 Eh
   gradient norm :     0.0026893 Eh/α   predicted    -0.4017050E-03 (  -5.26%)
   displ. norm   :     0.0250454 α      lambda       -0.2582218E-04
   maximum displ.:     0.0183471 α      in ANC's #44, #21, #29, ...

........................................................................
.............................. CYCLE    5 ..............................
........................................................................

 iter      E             dE          RMSdq      gap      omega  full diag
   1   -245.6505132 -0.245651E+03  0.732E-03    0.99       0.0  T
   2   -245.6505132 -0.233653E-07  0.440E-03    0.99       2.0  T
   3   -245.6505122  0.101187E-05  0.246E-03    0.99       3.5  T
   4   -245.6505133 -0.110395E-05  0.264E-04    0.99      33.0  T
   5   -245.6505133 -0.899391E-08  0.118E-04    0.99      73.6  T
   6   -245.6505133 -0.107548E-08  0.578E-05    0.99     150.7  T
     SCC iter.                  ...        0 min,  0.382 sec
     gradient                   ...        0 min,  0.170 sec
 * total energy  :  -240.9893297 Eh     change       -0.1668864E-04 Eh
   gradient norm :     0.0012898 Eh/α   predicted    -0.1311633E-04 ( -21.41%)
   displ. norm   :     0.0144448 α      lambda       -0.5491378E-05
   maximum displ.:     0.0066175 α      in ANC's #21, #70, #112, ...

........................................................................
.............................. CYCLE    6 ..............................
........................................................................

 iter      E             dE          RMSdq      gap      omega  full diag
   1   -245.6495775 -0.245650E+03  0.501E-03    0.99       0.0  T
   2   -245.6495775 -0.494076E-07  0.298E-03    0.99       2.9  T
   3   -245.6495771  0.432104E-06  0.188E-03    0.99       4.6  T
   4   -245.6495776 -0.493267E-06  0.359E-04    0.99      24.3  T
   5   -245.6495776 -0.174020E-07  0.984E-05    0.99      88.5  T
     SCC iter.                  ...        0 min,  0.299 sec
     gradient                   ...        0 min,  0.176 sec
 * total energy  :  -240.9893332 Eh     change       -0.3446084E-05 Eh
   gradient norm :     0.0006395 Eh/α   predicted    -0.2789119E-05 ( -19.06%)
   displ. norm   :     0.0043739 α      lambda       -0.5725604E-06
   maximum displ.:     0.0028235 α      in ANC's #44, #21, #29, ...

   *** GEOMETRY OPTIMIZATION CONVERGED AFTER 6 ITERATIONS ***

------------------------------------------------------------------------
 total energy gain   :        -0.0158190 Eh       -9.9266 kcal/mol
 total RMSD          :         0.1039473 a0        0.0550 Å
 total power (kW/mol):        -6.9221245 (step)  -11.5017 (real)
------------------------------------------------------------------------

 ANCopt (total)                0 d,  0 h,  0 min,  3.611 sec
 optimizer setup                ...        0 min,  0.001 sec (  0.028%)
 model hessian                  ...        0 min,  0.108 sec (  2.991%)
 ANC generation                 ...        0 min,  0.032 sec (  0.886%)
 coordinate transformation      ...        0 min,  0.001 sec (  0.028%)
 single point calculation       ...        0 min,  3.438 sec ( 95.209%)
 optimization log               ...        0 min,  0.026 sec (  0.720%)
 hessian update                 ...        0 min,  0.000 sec (  0.000%)
 rational function              ...        0 min,  0.002 sec (  0.055%)

================
 final structure:
================
132
 xtb: 6.7.1pre (5071a88)
C           -2.95628525996471       -7.28193504331543       -0.00187119467997
C            1.33056823356996       -7.35684534891099        0.00091312325243
C           -0.82713842310025       -6.12422315597018       -0.00057357503298
C            5.64694561630624       -7.39942743810473        0.00226184955587
C            3.45146351680335       -6.19338506266465        0.00112664144901
C            1.33358646577880       -4.94100032590398        0.00018119638377
C           -1.59520251422259       -7.30734206569315       -0.00143196604203
C           -3.67019231754465       -6.06537563056448       -0.00136757097709
C            2.69570359763281       -7.37638593278434        0.00144999823059
C            0.60588934182268       -6.15197607698967        0.00013852744046
C           -1.50717349118039       -4.88929010344998       -0.00051095989444
C            7.71005443528702       -6.16192213568152        0.00118195846395
C            5.58630964315657       -4.98767593683265        0.00055104496727
C            3.47367360075790       -3.73682885424899        0.00015260594111
C            5.60007882396944       -2.53885761595847       -0.00048101111490
C            7.73315031658140       -1.37543375571972       -0.00133396733646
C            7.02307966390245       -7.36680285377278        0.00219732596931
C            4.89389458563150       -6.21572547399606        0.00135290090403
C            2.75467696544550       -4.96598843872071        0.00048956757436
C            0.64115588766914       -3.69705279911111       -0.00009751926784
C            6.99950227249012       -4.97197689870305        0.00038866063265
C            4.87739713709319       -3.75107194421106        0.00002027798487
C            2.78368816568353       -2.49959506363556       -0.00014968978822
C            7.02332477251418       -2.54870543105663       -0.00081724024701
C            4.92272570690987       -1.30616647269632       -0.00061827150068
C            7.07510002545029       -0.12607063153968       -0.00127163283644
C           -7.20122429045701       -7.14968255249204       -0.00190175245871
C           -5.08886877853894       -6.01144423140120       -0.00139780306568
C           -7.19504351958050       -4.73662178532985       -0.00021563725155
C           -2.92877505731686       -4.85557170733887       -0.00072901212819
C           -5.01770781073562       -3.57872381477810       -0.00007271575838
C           -7.12795048340499       -2.30704710319088        0.00103813050691
C           -0.77002325968161       -3.67066719470658       -0.00017107861886
C           -2.87071648850153       -2.40037018785968        0.00002607288033
C           -4.97165191028567       -1.13767603270129        0.00069427331169
C           -7.07509994314533        0.12607051558007        0.00160719823692
C           -7.88987271393316       -5.99492038778687       -0.00089328701172
C           -5.75770532552380       -4.78659342132014       -0.00056870571050
C           -7.84069306979356       -3.53155967235111        0.00068965086676
C           -3.60466720281016       -3.61347536054633       -0.00030463028072
C           -5.70196464533032       -2.34335778779511        0.00055690658780
C           -7.77873338630421       -1.07997901078776        0.00168702689239
C            1.36671790537289       -2.47879587995634       -0.00006105128940
C           -7.02332473080164        2.54870535084477        0.00140270718600
C            1.59520263042842        7.30734236112134        0.00014529902602
C           -0.72886017211977       -1.21665631945039        0.00000979054740
C            7.84069312419241        3.53155959114682       -0.00059819326193
C           -2.82228335578967        0.04754215489313        0.00032543515343
C            5.75770529778868        4.78659346590874        0.00031848796881
C           -4.92272571649883        1.30616644376477        0.00082112733068
C            3.67019227800597        6.06537581581511        0.00064054165284
C            3.50536489443881       -1.28752690078713       -0.00032721596093
C           -4.87739722708898        3.75107195026717        0.00033669766037
C            1.41169946635124       -0.02376721819918       -0.00012592264287
C           -6.99950237911826        4.97197694754826        0.00050283109080
C           -0.68594823976415        1.24190788585860        0.00002805186879
C            7.88987263838784        5.99492042785436        0.00083608468574
C           -2.78368822019355        2.49959510204980        0.00017032643989
C            5.65348843339495       -0.09703758059587       -0.00086065593254
C           -2.75467714855517        4.96598847103859       -0.00047721855691
C            3.55145041232441        1.16609440837594       -0.00036545674276
C           -4.89389490045516        6.21572557808630       -0.00078220467001
C            1.45393756821117        2.42987870226525       -0.00010512149867
C           -7.02308005343728        7.36680316208140       -0.00088196772724
C           -0.64115596181102        3.69705286266370       -0.00016000172692
C            7.77873348032504        1.07997887374987       -0.00139414555436
C           -0.60588948765453        6.15197611308399       -0.00069951272533
C            5.70196465233641        2.34335776053002       -0.00058497646179
C           -2.69570400985031        7.37638588857166       -0.00161649570106
C            3.60466715774405        3.61347541931699       -0.00000089895055
C            1.50717342820597        4.88929021818370       -0.00004912879700
C           -1.45393762754907       -2.42987862238287       -0.00012855342268
C            7.12795053402882        2.30704701720209       -0.00092407083923
C           -1.33056855877030        7.35684529522137       -0.00144407107379
C           -3.55145046180153       -1.16609438038890        0.00028771057377
C            5.01770778636155        3.57872384056549       -0.00013947675567
C           -5.65348841335581        0.09703752738005        0.00104679121428
C            2.92877499819182        4.85557182910020        0.00019429808966
C           -7.73315022051483        1.37543362597387        0.00188165698508
C            0.82713838859851        6.12422329085478       -0.00023091794068
C            0.68594818519499       -1.24190781305839       -0.00016203042598
C           -1.41169952399414        0.02376728736221        0.00001291003616
C            7.19504352339306        4.73662178082898        0.00014428048083
C           -3.50536494335136        1.28752692321682        0.00038439143469
C            5.08886869087276        6.01144435563265        0.00093852653251
C           -5.60007884245683        2.53885758569137        0.00086003731730
C            2.95628534706870        7.28193538503982        0.00063634195686
C            2.82228332491733       -0.04754212343119       -0.00037552554716
C           -5.58630981187352        4.98767597904655        0.00004291593624
C            0.72886011487352        1.21665638989043       -0.00017075031633
C           -7.71005463859274        6.16192230119856        0.00006295410870
C           -1.36671797999177        2.47879593241052       -0.00005977678188
C            7.20122412704502        7.14968263983913        0.00172679261704
C           -3.47367371788886        3.73682888851449       -0.00000974293440
C            4.97165190335229        1.13767600988160       -0.00067497683358
C           -3.45146383329039        6.19338508666939       -0.00097820281532
C            2.87071644726793        2.40037021799385       -0.00023189582240
C           -5.64694605838569        7.39942771396711       -0.00128587192763
C            0.77002318971758        3.67066728073618       -0.00017419667129
C           -1.33358660213868        4.94100037528773       -0.00045476780623
H           -3.47999445244131       -8.22805090025185       -0.00255678600798
H            0.81258010872478       -8.30193511556917        0.00119990708430
H            5.15772315927852       -8.35909703085085        0.00307158443333
H           -5.35784963361076       -8.05020925293024       -0.00301757517182
H           -1.10634047683296       -8.26751756825742       -0.00184771976948
H            3.19243721546880       -8.33302461875145        0.00206834266501
H            8.79046282491223       -6.14353183786321        0.00106703288960
H            8.81418641688834       -1.39706048677520       -0.00164428239419
H            7.58014264539301       -8.29229589078969        0.00293595563321
H           -7.67946833572404       -8.11741451747794       -0.00254003599121
H           -8.96741642776580       -5.99731330176783       -0.00065853556598
H           -8.92082148217162       -3.50053473851850        0.00102750874327
H           -8.85962483228849       -1.05742150152508        0.00212474869613
H            1.10634076650756        8.26751803843599        0.00011657076290
H            8.92082156723684        3.50053459962755       -0.00080903262221
H            8.96741637342592        5.99731332630822        0.00073268395018
H            5.35784929746196        8.05020931334951        0.00268659416873
H           -7.58014303256529        8.29229641593961       -0.00129667044553
H            8.85962496621871        1.05742131274797       -0.00171883654393
H           -3.19243774218705        8.33302452102123       -0.00221995662208
H           -0.81258058016620        8.30193503810589       -0.00195700314738
H           -8.81418627117269        1.39706033479293        0.00233586138201
H            3.47999468967859        8.22805138916255        0.00089681180414
H           -8.79046299439773        6.14353198757950        0.00041661540949
H            7.67946812248226        8.11741459166817        0.00241064787203
H           -5.15772376896560        8.35909744253184       -0.00201079021576
N            7.65445713636192       -3.76861377488603       -0.00055974964950
N           -7.65445710788835        3.76861370810210        0.00139304819950
H            8.66429155886808       -3.77862353188237       -0.00067643210339
H           -8.66429148808777        3.77862345865343        0.00170535818610
N            5.83642768209775        7.16434570209338        0.00175693030561
N           -5.83642787913798       -7.16434556325666       -0.00213750474458
 
 Bond Distances (Angstroems)
 ---------------------------
C1-C7=1.3613         C1-C8=1.4106         C1-H101=1.0814       C2-C9=1.3653         C2-C10=1.4060        C2-H102=1.0777       
C3-C7=1.4106         C3-C10=1.4333        C3-C11=1.4098        C4-C17=1.3765        C4-C18=1.4029        C4-H103=1.0772       
C5-C9=1.4038         C5-C18=1.4426        C5-C19=1.4114        C6-C10=1.4128        C6-C19=1.4213        C6-C20=1.4237        
C7-C1=1.3613         C7-C3=1.4106         C7-H105=1.0775       C8-C1=1.4106         C8-C28=1.4197        C8-C30=1.4189        
C9-C2=1.3653         C9-C5=1.4038         C9-H106=1.0779       C10-C2=1.4060        C10-C3=1.4333        C10-C6=1.4128        
C11-C3=1.4098        C11-C30=1.4220       C11-C33=1.4242       C12-C17=1.3870       C12-C21=1.3859       C12-H107=1.0806      
C13-C18=1.4098       C13-C21=1.4133       C13-C22=1.4254       C14-C19=1.4240       C14-C22=1.4038       C14-C23=1.4166       
C15-C22=1.4113       C15-C24=1.4233       C15-C25=1.4065       C16-C24=1.3713       C16-C26=1.4121       C16-H108=1.0813      
C17-C4=1.3765        C17-C12=1.3870       C17-H109=1.0802      C18-C4=1.4029        C18-C5=1.4426        C18-C13=1.4098       
C19-C5=1.4114        C19-C6=1.4213        C19-C14=1.4240       C20-C6=1.4237        C20-C33=1.4114       C20-C43=1.4180       
C21-C12=1.3859       C21-C13=1.4133       C21-N127=1.3701      C22-C13=1.4254       C22-C14=1.4038       C22-C15=1.4113       
C23-C14=1.4166       C23-C43=1.4171       C23-C52=1.4106       C24-C15=1.4233       C24-C16=1.3713       C24-N127=1.3735      
C25-C15=1.4065       C25-C52=1.4175       C25-C59=1.4128       C26-C16=1.4121       C26-C59=1.4219       C26-C66=1.3963       
C27-C37=1.3445       C27-H110=1.0795      C27-N132=1.3649      C28-C8=1.4197        C28-C38=1.3956       C28-N132=1.3741      
C29-C37=1.4374       C29-C38=1.4382       C29-C39=1.3671       C30-C8=1.4189        C30-C11=1.4220       C30-C40=1.4141       
C31-C38=1.4165       C31-C40=1.4135       C31-C41=1.4122       C32-C39=1.4168       C32-C41=1.4264       C32-C42=1.3890       
C33-C11=1.4242       C33-C20=1.4114       C33-C72=1.4168       C34-C40=1.4179       C34-C72=1.4171       C34-C75=1.4096       
C35-C41=1.4096       C35-C75=1.4205       C35-C77=1.4105       C36-C42=1.3963       C36-C77=1.4219       C36-C79=1.4121       
C37-C27=1.3445       C37-C29=1.4374       C37-H111=1.0775      C38-C28=1.3956       C38-C29=1.4382       C38-C31=1.4165       
C39-C29=1.3671       C39-C32=1.4168       C39-H112=1.0806      C40-C30=1.4141       C40-C31=1.4135       C40-C34=1.4179       
C41-C31=1.4122       C41-C32=1.4264       C41-C35=1.4096       C42-C32=1.3890       C42-C36=1.3963       C42-H113=1.0811      
C43-C20=1.4180       C43-C23=1.4171       C43-C81=1.4119       C44-C79=1.3713       C44-C86=1.4233       C44-N128=1.3735      
C45-C80=1.4106       C45-C87=1.3613       C45-H114=1.0775      C46-C72=1.4134       C46-C81=1.4150       C46-C82=1.4160       
C47-C73=1.4168       C47-C83=1.3671       C47-H115=1.0806      C48-C75=1.4158       C48-C82=1.4108       C48-C84=1.4157       
C49-C76=1.4165       C49-C83=1.4382       C49-C85=1.3956       C50-C77=1.4128       C50-C84=1.4175       C50-C86=1.4065       
C51-C78=1.4189       C51-C85=1.4197       C51-C87=1.4106       C52-C23=1.4106       C52-C25=1.4175       C52-C88=1.4157       
C53-C86=1.4113       C53-C89=1.4254       C53-C94=1.4038       C54-C81=1.4179       C54-C88=1.4108       C54-C90=1.4160       
C55-C89=1.4133       C55-C91=1.3859       C55-N128=1.3701      C56-C82=1.4179       C56-C90=1.4150       C56-C92=1.4119       
C57-C83=1.4374       C57-C93=1.3445       C57-H116=1.0775      C58-C84=1.4106       C58-C92=1.4171       C58-C94=1.4166       
C59-C25=1.4128       C59-C26=1.4219       C59-C95=1.4105       C60-C94=1.4240       C60-C96=1.4114       C60-C100=1.4213      
C61-C88=1.4158       C61-C95=1.4205       C61-C97=1.4096       C62-C89=1.4098       C62-C96=1.4426       C62-C98=1.4029       
C63-C90=1.4134       C63-C97=1.4171       C63-C99=1.4168       C64-C91=1.3870       C64-C98=1.3765       C64-H118=1.0802      
C65-C92=1.4180       C65-C99=1.4114       C65-C100=1.4237      C66-C26=1.3963       C66-C73=1.3890       C66-H119=1.0811      
C67-C74=1.4060       C67-C80=1.4333       C67-C100=1.4128      C68-C73=1.4264       C68-C76=1.4122       C68-C95=1.4096       
C69-C74=1.3653       C69-C96=1.4038       C69-H120=1.0779      C70-C76=1.4135       C70-C78=1.4141       C70-C97=1.4179       
C71-C78=1.4220       C71-C80=1.4098       C71-C99=1.4242       C72-C33=1.4168       C72-C34=1.4171       C72-C46=1.4134       
C73-C47=1.4168       C73-C66=1.3890       C73-C68=1.4264       C74-C67=1.4060       C74-C69=1.3653       C74-H121=1.0777      
C75-C34=1.4096       C75-C35=1.4205       C75-C48=1.4158       C76-C49=1.4165       C76-C68=1.4122       C76-C70=1.4135       
C77-C35=1.4105       C77-C36=1.4219       C77-C50=1.4128       C78-C51=1.4189       C78-C70=1.4141       C78-C71=1.4220       
C79-C36=1.4121       C79-C44=1.3713       C79-H122=1.0813      C80-C45=1.4106       C80-C67=1.4333       C80-C71=1.4098       
C81-C43=1.4119       C81-C46=1.4150       C81-C54=1.4179       C82-C46=1.4160       C82-C48=1.4108       C82-C56=1.4179       
C83-C47=1.3671       C83-C49=1.4382       C83-C57=1.4374       C84-C48=1.4157       C84-C50=1.4175       C84-C58=1.4106       
C85-C49=1.3956       C85-C51=1.4197       C85-N131=1.3741      C86-C44=1.4233       C86-C50=1.4065       C86-C53=1.4113       
C87-C45=1.3613       C87-C51=1.4106       C87-H123=1.0814      C88-C52=1.4157       C88-C54=1.4108       C88-C61=1.4158       
C89-C53=1.4254       C89-C55=1.4133       C89-C62=1.4098       C90-C54=1.4160       C90-C56=1.4150       C90-C63=1.4134       
C91-C55=1.3859       C91-C64=1.3870       C91-H124=1.0806      C92-C56=1.4119       C92-C58=1.4171       C92-C65=1.4180       
C93-C57=1.3445       C93-H125=1.0795      C93-N131=1.3649      C94-C53=1.4038       C94-C58=1.4166       C94-C60=1.4240       
C95-C59=1.4105       C95-C61=1.4205       C95-C68=1.4096       C96-C60=1.4114       C96-C62=1.4426       C96-C69=1.4038       
C97-C61=1.4096       C97-C63=1.4171       C97-C70=1.4179       C98-C62=1.4029       C98-C64=1.3765       C98-H126=1.0772      
C99-C63=1.4168       C99-C65=1.4114       C99-C71=1.4242       C100-C60=1.4213      C100-C65=1.4237      C100-C67=1.4128      
H101-C1=1.0814       H102-C2=1.0777       H103-C4=1.0772       H104-N132=1.0069     H105-C7=1.0775       H106-C9=1.0779       
H107-C12=1.0806      H108-C16=1.0813      H109-C17=1.0802      H110-C27=1.0795      H111-C37=1.0775      H112-C39=1.0806      
H113-C42=1.0811      H114-C45=1.0775      H115-C47=1.0806      H116-C57=1.0775      H117-N131=1.0069     H118-C64=1.0802      
H119-C66=1.0811      H120-C69=1.0779      H121-C74=1.0777      H122-C79=1.0813      H123-C87=1.0814      H124-C91=1.0806      
H125-C93=1.0795      H126-C98=1.0772      N127-C21=1.3701      N127-C24=1.3735      N127-H129=1.0099     N128-C44=1.3735      
N128-C55=1.3701      N128-H130=1.0099     H129-N127=1.0099     H130-N128=1.0099     N131-C85=1.3741      N131-C93=1.3649      
N131-H117=1.0069     N132-C27=1.3649      N132-C28=1.3741      N132-H104=1.0069     
 C  H  Rav=1.0794 sigma=0.0016  Rmin=1.0772  Rmax=1.0814    24
 C  C  Rav=1.4099 sigma=0.0177  Rmin=1.3445  Rmax=1.4426   134
 N  H  Rav=1.0084 sigma=0.0015  Rmin=1.0069  Rmax=1.0099     4
 N  C  Rav=1.3706 sigma=0.0037  Rmin=1.3649  Rmax=1.3741     8
 
 selected bond angles (degree)
 --------------------
C8-C1-C7=121.47                H101-C1-C7=117.90              H101-C1-C8=120.63              C10-C2-C9=121.85               
H102-C2-C9=117.91              H102-C2-C10=120.25             C10-C3-C7=121.88               C11-C3-C7=118.17               
C11-C3-C10=119.95              C18-C4-C17=121.11              H103-C4-C17=118.37             H103-C4-C18=120.52             
C18-C5-C9=121.69               C19-C5-C9=117.84               C19-C5-C18=120.47              C19-C6-C10=120.00              
C20-C6-C10=119.90              C20-C6-C19=120.11              C3-C7-C1=121.92                H105-C7-C1=118.05              
H105-C7-C3=120.03              C28-C8-C1=122.58               C30-C8-C1=118.09               C30-C8-C28=119.32              
C5-C9-C2=121.75                H106-C9-C2=118.26              H106-C9-C5=119.99              C3-C10-C2=122.13               
C6-C10-C2=117.97               C6-C10-C3=119.89               
 
 selected dihedral angles (degree)
 ---------------------------------
C3-C7-C1-C8=  0.00            C3-C7-C1-H101=180.00          H105-C7-C1-C8=180.00          H105-C7-C1-H101=  0.00        
C1-C7-C3-C10=179.99           C1-C7-C3-C11=  0.00           H105-C7-C3-C10=  0.00         H105-C7-C3-C11=179.98         
C28-C8-C1-C7=180.02           C28-C8-C1-H101=  0.00         C30-C8-C1-C7=  0.00           C30-C8-C1-H101=180.01         
C5-C9-C2-C10=  0.00           C5-C9-C2-H102=180.00          H106-C9-C2-C10=180.00         H106-C9-C2-H102=  0.00        
C2-C9-C5-C18=180.02           C2-C9-C5-C19=  0.00           H106-C9-C5-C18=  0.00         H106-C9-C5-C19=180.01         
C3-C10-C2-C9=179.99           C3-C10-C2-H102=  0.00         C6-C10-C2-C9=  0.00           C6-C10-C2-H102=179.98         
C2-C10-C3-C7=359.96           C2-C10-C3-C11=179.96          C6-C10-C3-C7=179.96           C6-C10-C3-C11=359.97          
C2-C10-C6-C19=  0.02          C2-C10-C6-C20=180.02          C3-C10-C6-C19=180.02          C3-C10-C6-C20=  0.00          
           -------------------------------------------------
          |                Final Singlepoint                |
           -------------------------------------------------

          ...................................................
          :                      SETUP                      :
          :.................................................:
          :  # basis functions                 444          :
          :  # atomic orbitals                 444          :
          :  # shells                          236          :
          :  # electrons                       448          :
          :  max. iterations                   250          :
          :  Hamiltonian                  GFN2-xTB          :
          :  restarted?                      false          :
          :  GBSA solvation                  false          :
          :  PC potential                    false          :
          :  electronic temp.          300.0000000     K    :
          :  accuracy                    1.0000000          :
          :  -> integral cutoff          0.2500000E+02      :
          :  -> integral neglect         0.1000000E-07      :
          :  -> SCF convergence          0.1000000E-05 Eh   :
          :  -> wf. convergence          0.1000000E-03 e    :
          :  Broyden damping             0.4000000          :
          :  net charge                          0          :
          :  unpaired electrons                  0          :
          ...................................................

 iter      E             dE          RMSdq      gap      omega  full diag
   1   -245.6495776 -0.245650E+03  0.519E-05    0.99       0.0  T
   2   -245.6495776  0.255511E-10  0.439E-05    0.99     198.2  T
   3   -245.6495776 -0.319005E-09  0.190E-05    0.99     457.3  T

   *** convergence criteria satisfied after 3 iterations ***

         #    Occupation            Energy/Eh            Energy/eV
      -------------------------------------------------------------
         1        2.0000           -0.6783189             -18.4580
       ...           ...                  ...                  ...
       218        2.0000           -0.3666485              -9.9770
       219        2.0000           -0.3639894              -9.9047
       220        2.0000           -0.3537708              -9.6266
       221        2.0000           -0.3401007              -9.2546
       222        2.0000           -0.3314658              -9.0196
       223        2.0000           -0.3314239              -9.0185
       224        2.0000           -0.3210277              -8.7356 (HOMO)
       225                         -0.2845147              -7.7420 (LUMO)
       226                         -0.2756173              -7.4999
       227                         -0.2603574              -7.0847
       228                         -0.2570237              -6.9940
       229                         -0.2507271              -6.8226
       ...                                ...                  ...
       444                          0.7989734              21.7412
      -------------------------------------------------------------
                  HL-Gap            0.0365130 Eh            0.9936 eV
             Fermi-level           -0.3027712 Eh           -8.2388 eV

 SCC (total)                   0 d,  0 h,  0 min,  0.403 sec
 SCC setup                      ...        0 min,  0.001 sec (  0.248%)
 Dispersion                     ...        0 min,  0.003 sec (  0.744%)
 classical contributions        ...        0 min,  0.001 sec (  0.248%)
 integral evaluation            ...        0 min,  0.041 sec ( 10.174%)
 iterations                     ...        0 min,  0.181 sec ( 44.913%)
 molecular gradient             ...        0 min,  0.171 sec ( 42.432%)
 printout                       ...        0 min,  0.005 sec (  1.241%)

         :::::::::::::::::::::::::::::::::::::::::::::::::::::
         ::                     SUMMARY                     ::
         :::::::::::::::::::::::::::::::::::::::::::::::::::::
         :: total energy            -240.989333190055 Eh    ::
         :: gradient norm              0.000640467039 Eh/a0 ::
         :: HOMO-LUMO gap              0.993569080486 eV    ::
         ::.................................................::
         :: SCC energy              -245.657651326469 Eh    ::
         :: -> isotropic ES            0.021422853243 Eh    ::
         :: -> anisotropic ES          0.022202246330 Eh    ::
         :: -> anisotropic XC          0.082920556859 Eh    ::
         :: -> dispersion             -0.289689828922 Eh    ::
         :: repulsion energy           4.668318136413 Eh    ::
         :: add. restraining           0.000000000000 Eh    ::
         :: total charge              -0.000000000001 e     ::
         :::::::::::::::::::::::::::::::::::::::::::::::::::::

           -------------------------------------------------
          |                Property Printout                |
           -------------------------------------------------

    * Orbital Energies and Occupations

         #    Occupation            Energy/Eh            Energy/eV
      -------------------------------------------------------------
         1        2.0000           -0.6783189             -18.4580
       ...           ...                  ...                  ...
       212        2.0000           -0.3858245             -10.4988
       213        2.0000           -0.3811555             -10.3718
       214        2.0000           -0.3782682             -10.2932
       215        2.0000           -0.3746277             -10.1941
       216        2.0000           -0.3742490             -10.1838
       217        2.0000           -0.3700057             -10.0684
       218        2.0000           -0.3666485              -9.9770
       219        2.0000           -0.3639894              -9.9047
       220        2.0000           -0.3537708              -9.6266
       221        2.0000           -0.3401007              -9.2546
       222        2.0000           -0.3314658              -9.0196
       223        2.0000           -0.3314239              -9.0185
       224        2.0000           -0.3210277              -8.7356 (HOMO)
       225                         -0.2845147              -7.7420 (LUMO)
       226                         -0.2756173              -7.4999
       227                         -0.2603574              -7.0847
       228                         -0.2570237              -6.9940
       229                         -0.2507271              -6.8226
       230                         -0.2477038              -6.7404
       231                         -0.2449887              -6.6665
       232                         -0.2378752              -6.4729
       233                         -0.2376059              -6.4656
       234                         -0.2343738              -6.3776
       235                         -0.2279843              -6.2038
       ...                                ...                  ...
       444                          0.7989734              21.7412
      -------------------------------------------------------------
                  HL-Gap            0.0365130 Eh            0.9936 eV
             Fermi-level           -0.3027712 Eh           -8.2388 eV

     #   Z          covCN         q      C6AA      α(0)
     1   6 C        2.915    -0.042    29.042     8.837
     2   6 C        2.918    -0.040    29.003     8.831
     3   6 C        2.979     0.003    27.961     8.674
     4   6 C        2.920    -0.051    29.254     8.870
     5   6 C        2.979     0.000    28.018     8.683
     6   6 C        2.989     0.001    28.006     8.681
     7   6 C        2.917    -0.040    28.989     8.829
     8   6 C        2.980    -0.019    28.481     8.754
     9   6 C        2.918    -0.038    28.944     8.822
    10   6 C        2.979     0.002    27.984     8.677
    11   6 C        2.989     0.002    27.975     8.676
    12   6 C        2.920    -0.068    29.696     8.936
    13   6 C        2.996    -0.009    28.233     8.716
    14   6 C        2.989    -0.008    28.208     8.712
    15   6 C        2.995    -0.010    28.264     8.721
    16   6 C        2.921    -0.082    30.061     8.991
    17   6 C        2.917    -0.030    28.753     8.793
    18   6 C        2.978     0.005    27.906     8.665
    19   6 C        2.989     0.001    27.993     8.679
    20   6 C        2.986    -0.002    28.073     8.691
    21   6 C        2.917     0.067    26.499     8.441
    22   6 C        2.990     0.003    27.959     8.674
    23   6 C        2.989    -0.001    28.047     8.687
    24   6 C        2.911     0.064    26.573     8.453
    25   6 C        2.992    -0.001    28.033     8.685
    26   6 C        2.978     0.012    27.733     8.638
    27   6 C        2.847     0.020    27.558     8.604
    28   6 C        2.917     0.056    26.742     8.480
    29   6 C        2.978     0.013    27.729     8.638
    30   6 C        2.991     0.001    27.986     8.678
    31   6 C        2.990    -0.002    28.060     8.689
    32   6 C        2.976     0.011    27.755     8.642
    33   6 C        2.986    -0.004    28.104     8.696
    34   6 C        2.989    -0.001    28.036     8.686
    35   6 C        2.990     0.000    28.016     8.683
    36   6 C        2.978     0.012    27.733     8.638
    37   6 C        2.912    -0.060    29.493     8.905
    38   6 C        2.993    -0.007    28.186     8.709
    39   6 C        2.920    -0.065    29.625     8.926
    40   6 C        2.988    -0.011    28.280     8.723
    41   6 C        2.994    -0.003    28.083     8.693
    42   6 C        2.924    -0.059    29.475     8.903
    43   6 C        2.988    -0.002    28.077     8.692
    44   6 C        2.911     0.064    26.573     8.453
    45   6 C        2.917    -0.040    28.989     8.829
    46   6 C        2.990    -0.001    28.052     8.688
    47   6 C        2.920    -0.065    29.625     8.926
    48   6 C        2.990    -0.002    28.062     8.690
    49   6 C        2.993    -0.007    28.186     8.709
    50   6 C        2.992    -0.001    28.033     8.685
    51   6 C        2.980    -0.019    28.481     8.754
    52   6 C        2.991    -0.002    28.071     8.691
    53   6 C        2.990     0.003    27.959     8.674
    54   6 C        2.989    -0.004    28.125     8.699
    55   6 C        2.917     0.067    26.499     8.441
    56   6 C        2.989    -0.001    28.042     8.687
    57   6 C        2.912    -0.060    29.493     8.905
    58   6 C        2.989    -0.001    28.047     8.687
    59   6 C        2.995    -0.010    28.266     8.721
    60   6 C        2.989     0.001    27.993     8.679
    61   6 C        2.989    -0.002    28.067     8.690
    62   6 C        2.978     0.005    27.906     8.665
    63   6 C        2.988    -0.003    28.084     8.693
    64   6 C        2.917    -0.030    28.753     8.793
    65   6 C        2.986    -0.002    28.073     8.691
    66   6 C        2.924    -0.059    29.475     8.903
    67   6 C        2.979     0.002    27.984     8.677
    68   6 C        2.994    -0.003    28.083     8.693
    69   6 C        2.918    -0.038    28.944     8.822
    70   6 C        2.988    -0.011    28.280     8.723
    71   6 C        2.989     0.002    27.975     8.676
    72   6 C        2.988    -0.003    28.084     8.693
    73   6 C        2.976     0.011    27.755     8.642
    74   6 C        2.918    -0.040    29.003     8.831
    75   6 C        2.989    -0.002    28.067     8.690
    76   6 C        2.990    -0.002    28.060     8.689
    77   6 C        2.995    -0.010    28.266     8.721
    78   6 C        2.991     0.001    27.986     8.678
    79   6 C        2.921    -0.082    30.061     8.991
    80   6 C        2.979     0.003    27.961     8.674
    81   6 C        2.989    -0.001    28.042     8.687
    82   6 C        2.989    -0.004    28.125     8.699
    83   6 C        2.978     0.013    27.729     8.638
    84   6 C        2.991    -0.002    28.071     8.691
    85   6 C        2.917     0.056    26.742     8.480
    86   6 C        2.995    -0.010    28.264     8.721
    87   6 C        2.915    -0.042    29.042     8.837
    88   6 C        2.990    -0.002    28.062     8.690
    89   6 C        2.996    -0.009    28.233     8.716
    90   6 C        2.990    -0.001    28.052     8.688
    91   6 C        2.920    -0.068    29.696     8.936
    92   6 C        2.988    -0.002    28.077     8.692
    93   6 C        2.847     0.020    27.558     8.604
    94   6 C        2.989    -0.008    28.208     8.712
    95   6 C        2.990     0.000    28.016     8.683
    96   6 C        2.979     0.000    28.018     8.683
    97   6 C        2.989    -0.001    28.036     8.686
    98   6 C        2.920    -0.051    29.254     8.870
    99   6 C        2.986    -0.004    28.104     8.696
   100   6 C        2.989     0.001    28.006     8.681
   101   1 H        0.925     0.012     2.858     2.644
   102   1 H        0.926     0.028     2.621     2.532
   103   1 H        0.926     0.030     2.593     2.518
   104   1 H        0.860     0.170     1.270     1.765
   105   1 H        0.926     0.029     2.593     2.518
   106   1 H        0.926     0.029     2.594     2.519
   107   1 H        0.926     0.020     2.731     2.584
   108   1 H        0.925     0.018     2.769     2.602
   109   1 H        0.926     0.028     2.616     2.529
   110   1 H        0.926     0.036     2.506     2.476
   111   1 H        0.926     0.038     2.474     2.460
   112   1 H        0.926     0.022     2.706     2.572
   113   1 H        0.926     0.021     2.711     2.575
   114   1 H        0.926     0.029     2.593     2.518
   115   1 H        0.926     0.022     2.706     2.572
   116   1 H        0.926     0.038     2.474     2.460
   117   1 H        0.860     0.170     1.270     1.765
   118   1 H        0.926     0.028     2.616     2.529
   119   1 H        0.926     0.021     2.711     2.575
   120   1 H        0.926     0.029     2.594     2.519
   121   1 H        0.926     0.028     2.621     2.532
   122   1 H        0.925     0.018     2.769     2.602
   123   1 H        0.925     0.012     2.858     2.644
   124   1 H        0.926     0.020     2.731     2.584
   125   1 H        0.926     0.036     2.506     2.476
   126   1 H        0.926     0.030     2.593     2.518
   127   7 N        2.706    -0.124    23.692     7.229
   128   7 N        2.706    -0.124    23.692     7.229
   129   1 H        0.860     0.163     1.318     1.798
   130   1 H        0.860     0.163     1.318     1.798
   131   7 N        2.703    -0.099    23.190     7.152
   132   7 N        2.703    -0.099    23.190     7.152

 Mol. C6AA /au·bohr⁶  :     352991.048012
 Mol. C8AA /au·bohr⁸  :    9605434.756952
 Mol. α(0) /au        :        968.392798


Wiberg/Mayer (AO) data.
largest (>0.10) Wiberg bond orders for each atom

 ---------------------------------------------------------------------------
     #   Z sym  total        # sym  WBO       # sym  WBO       # sym  WBO
 ---------------------------------------------------------------------------
     1   6 C    3.954 --     7 C    1.562     8 C    1.270   101 H    0.958
     2   6 C    3.959 --     9 C    1.534    10 C    1.298   102 H    0.960
     3   6 C    3.947 --    11 C    1.296     7 C    1.275    10 C    1.182
     4   6 C    3.962 --    17 C    1.476    18 C    1.333   103 H    0.963
     5   6 C    3.958 --     9 C    1.304    19 C    1.298    18 C    1.154
     6   6 C    3.976 --    10 C    1.281    19 C    1.249    20 C    1.222
     7   6 C    3.966 --     1 C    1.562     3 C    1.275   105 H    0.960
     8   6 C    3.961 --     1 C    1.270    30 C    1.254    28 C    1.223
     9   6 C    3.965 --     2 C    1.534     5 C    1.304   106 H    0.962
    10   6 C    3.958 --     2 C    1.298     6 C    1.281     3 C    1.182
    11   6 C    3.979 --     3 C    1.296    30 C    1.242    33 C    1.217
    12   6 C    3.958 --    17 C    1.403    21 C    1.380   107 H    0.968
    13   6 C    3.974 --    18 C    1.290    21 C    1.253    22 C    1.194
    14   6 C    3.970 --    22 C    1.294    23 C    1.239    19 C    1.208
    15   6 C    3.948 --    25 C    1.277    22 C    1.255    24 C    1.191
    16   6 C    3.926 --    24 C    1.463    26 C    1.258   108 H    0.966
    17   6 C    3.977 --     4 C    1.476    12 C    1.403   109 H    0.971
    18   6 C    3.972 --     4 C    1.333    13 C    1.290     5 C    1.154
    19   6 C    3.983 --     5 C    1.298     6 C    1.249    14 C    1.208
    20   6 C    3.961 --    33 C    1.278    43 C    1.242     6 C    1.222
    21   6 C    3.960 --    12 C    1.380    13 C    1.253   127 N    1.152
    22   6 C    3.957 --    14 C    1.294    15 C    1.255    13 C    1.194
    23   6 C    3.966 --    52 C    1.272    14 C    1.239    43 C    1.234
    24   6 C    3.947 --    16 C    1.463    15 C    1.191   127 N    1.135
    25   6 C    3.975 --    15 C    1.277    59 C    1.249    52 C    1.230
    26   6 C    3.972 --    66 C    1.336    16 C    1.258    59 C    1.219
    27   6 C    3.948 --    37 C    1.668   132 N    1.184   110 H    0.966
    28   6 C    3.910 --    38 C    1.338     8 C    1.223   132 N    1.150
    29   6 C    3.973 --    39 C    1.508    38 C    1.159    37 C    1.152
    30   6 C    3.976 --    40 C    1.254     8 C    1.254    11 C    1.242
    31   6 C    3.970 --    41 C    1.260    40 C    1.255    38 C    1.236
    32   6 C    3.974 --    42 C    1.381    39 C    1.232    41 C    1.203
    33   6 C    3.960 --    20 C    1.278    72 C    1.248    11 C    1.217
    34   6 C    3.964 --    75 C    1.277    72 C    1.237    40 C    1.232
    35   6 C    3.978 --    41 C    1.271    77 C    1.264    75 C    1.222
    36   6 C    3.972 --    42 C    1.336    79 C    1.258    77 C    1.219
    37   6 C    3.963 --    27 C    1.668    29 C    1.152   111 H    0.967
    38   6 C    3.971 --    28 C    1.338    31 C    1.236    29 C    1.159
    39   6 C    3.961 --    29 C    1.508    32 C    1.232   112 H    0.967
    40   6 C    3.975 --    31 C    1.255    30 C    1.254    34 C    1.232
    41   6 C    3.959 --    35 C    1.271    31 C    1.260    32 C    1.203
    42   6 C    3.900 --    32 C    1.381    36 C    1.336   113 H    0.967
    43   6 C    3.957 --    81 C    1.267    20 C    1.242    23 C    1.234
    44   6 C    3.947 --    79 C    1.463    86 C    1.191   128 N    1.135
    45   6 C    3.966 --    87 C    1.562    80 C    1.275   114 H    0.960
    46   6 C    3.964 --    72 C    1.260    82 C    1.244    81 C    1.242
    47   6 C    3.961 --    83 C    1.508    73 C    1.232   115 H    0.967
    48   6 C    3.962 --    82 C    1.262    75 C    1.244    84 C    1.241
    49   6 C    3.971 --    85 C    1.338    76 C    1.236    83 C    1.159
    50   6 C    3.975 --    86 C    1.277    77 C    1.249    84 C    1.230
    51   6 C    3.961 --    87 C    1.270    78 C    1.254    85 C    1.223
    52   6 C    3.964 --    23 C    1.272    88 C    1.241    25 C    1.230
    53   6 C    3.957 --    94 C    1.294    86 C    1.255    89 C    1.194
    54   6 C    3.959 --    88 C    1.262    90 C    1.244    81 C    1.237
    55   6 C    3.960 --    91 C    1.380    89 C    1.253   128 N    1.152
    56   6 C    3.964 --    92 C    1.267    90 C    1.242    82 C    1.237
    57   6 C    3.963 --    93 C    1.668    83 C    1.152   116 H    0.967
    58   6 C    3.966 --    84 C    1.272    94 C    1.239    92 C    1.234
    59   6 C    3.958 --    95 C    1.264    25 C    1.249    26 C    1.219
    60   6 C    3.983 --    96 C    1.298   100 C    1.249    94 C    1.208
    61   6 C    3.960 --    97 C    1.277    88 C    1.244    95 C    1.222
    62   6 C    3.972 --    98 C    1.333    89 C    1.290    96 C    1.154
    63   6 C    3.960 --    90 C    1.260    99 C    1.248    97 C    1.237
    64   6 C    3.977 --    98 C    1.476    91 C    1.403   118 H    0.971
    65   6 C    3.961 --    99 C    1.278    92 C    1.242   100 C    1.222
    66   6 C    3.900 --    73 C    1.381    26 C    1.336   119 H    0.967
    67   6 C    3.958 --    74 C    1.298   100 C    1.281    80 C    1.182
    68   6 C    3.959 --    95 C    1.271    76 C    1.260    73 C    1.203
    69   6 C    3.965 --    74 C    1.534    96 C    1.304   120 H    0.962
    70   6 C    3.975 --    76 C    1.255    78 C    1.254    97 C    1.232
    71   6 C    3.979 --    80 C    1.296    78 C    1.242    99 C    1.217
    72   6 C    3.960 --    46 C    1.260    33 C    1.248    34 C    1.237
    73   6 C    3.974 --    66 C    1.381    47 C    1.232    68 C    1.203
    74   6 C    3.959 --    69 C    1.534    67 C    1.298   121 H    0.960
    75   6 C    3.960 --    34 C    1.277    48 C    1.244    35 C    1.222
    76   6 C    3.970 --    68 C    1.260    70 C    1.255    49 C    1.236
    77   6 C    3.958 --    35 C    1.264    50 C    1.249    36 C    1.219
    78   6 C    3.976 --    70 C    1.254    51 C    1.254    71 C    1.242
    79   6 C    3.926 --    44 C    1.463    36 C    1.258   122 H    0.966
    80   6 C    3.947 --    71 C    1.296    45 C    1.275    67 C    1.182
    81   6 C    3.964 --    43 C    1.267    46 C    1.242    54 C    1.237
    82   6 C    3.959 --    48 C    1.262    46 C    1.244    56 C    1.237
    83   6 C    3.973 --    47 C    1.508    49 C    1.159    57 C    1.152
    84   6 C    3.964 --    58 C    1.272    48 C    1.241    50 C    1.230
    85   6 C    3.910 --    49 C    1.338    51 C    1.223   131 N    1.150
    86   6 C    3.948 --    50 C    1.277    53 C    1.255    44 C    1.191
    87   6 C    3.954 --    45 C    1.562    51 C    1.270   123 H    0.958
    88   6 C    3.962 --    54 C    1.262    61 C    1.244    52 C    1.241
    89   6 C    3.974 --    62 C    1.290    55 C    1.253    53 C    1.194
    90   6 C    3.964 --    63 C    1.260    54 C    1.244    56 C    1.242
    91   6 C    3.958 --    64 C    1.403    55 C    1.380   124 H    0.968
    92   6 C    3.957 --    56 C    1.267    65 C    1.242    58 C    1.234
    93   6 C    3.948 --    57 C    1.668   131 N    1.184   125 H    0.966
    94   6 C    3.970 --    53 C    1.294    58 C    1.239    60 C    1.208
    95   6 C    3.978 --    68 C    1.271    59 C    1.264    61 C    1.222
    96   6 C    3.958 --    69 C    1.304    60 C    1.298    62 C    1.154
    97   6 C    3.964 --    61 C    1.277    63 C    1.237    70 C    1.232
    98   6 C    3.962 --    64 C    1.476    62 C    1.333   126 H    0.963
    99   6 C    3.960 --    65 C    1.278    63 C    1.248    71 C    1.217
   100   6 C    3.976 --    67 C    1.281    60 C    1.249    65 C    1.222
   101   1 H    0.999 --     1 C    0.958
   102   1 H    0.998 --     2 C    0.960
   103   1 H    0.999 --     4 C    0.963
   104   1 H    0.970 --   132 N    0.930
   105   1 H    0.998 --     7 C    0.960
   106   1 H    0.998 --     9 C    0.962
   107   1 H    0.999 --    12 C    0.968
   108   1 H    0.998 --    16 C    0.966
   109   1 H    0.998 --    17 C    0.971
   110   1 H    0.998 --    27 C    0.966
   111   1 H    0.998 --    37 C    0.967
   112   1 H    0.998 --    39 C    0.967
   113   1 H    0.998 --    42 C    0.967
   114   1 H    0.998 --    45 C    0.960
   115   1 H    0.998 --    47 C    0.967
   116   1 H    0.998 --    57 C    0.967
   117   1 H    0.970 --   131 N    0.930
   118   1 H    0.998 --    64 C    0.971
   119   1 H    0.998 --    66 C    0.967
   120   1 H    0.998 --    69 C    0.962
   121   1 H    0.998 --    74 C    0.960
   122   1 H    0.998 --    79 C    0.966
   123   1 H    0.999 --    87 C    0.958
   124   1 H    0.999 --    91 C    0.968
   125   1 H    0.998 --    93 C    0.966
   126   1 H    0.999 --    98 C    0.963
   127   7 N    3.489 --    21 C    1.152    24 C    1.135   129 H    0.939
   128   7 N    3.489 --    55 C    1.152    44 C    1.135   130 H    0.939
   129   1 H    0.972 --   127 N    0.939
   130   1 H    0.972 --   128 N    0.939
   131   7 N    3.501 --    93 C    1.184    85 C    1.150   117 H    0.930
   132   7 N    3.501 --    27 C    1.184    28 C    1.150   104 H    0.930
 ---------------------------------------------------------------------------

Topologies differ in total number of bonds
Writing topology from bond orders to xtbtopo.mol

molecular dipole:
                 x           y           z       tot (Debye)
 q only:        0.000      -0.000       0.000
   full:        0.000      -0.000       0.000       0.000
molecular quadrupole (traceless):
                xx          xy          yy          xz          yz          zz
 q only:       13.218      39.623      34.578       0.022       0.041     -47.795
  q+dip:       40.444      39.859      67.997       0.027       0.052    -108.441
   full:       22.047      40.753      49.285       0.031       0.052     -71.332

           -------------------------------------------------
          |                Geometry Summary                 |
           -------------------------------------------------

      molecular mass/u    :     1285.3227438
   center of mass at/Å    :       -0.0000000       0.0000000      -0.0000016
  moments of inertia/u·Å² :        0.2762358E+05   0.3142352E+05   0.5904710E+05
rotational constants/cm⁻¹ :        0.6102624E-03   0.5364654E-03   0.2854947E-03

 * 164 selected distances

     #   Z          #   Z                                           value/Å
     1   6 C        7   6 C                                       1.3613201
     3   6 C        7   6 C                                       1.4105651
     1   6 C        8   6 C                                       1.4105604
     2   6 C        9   6 C                                       1.3652754
     5   6 C        9   6 C                                       1.4038036
     2   6 C       10   6 C                                       1.4060122
     3   6 C       10   6 C                                       1.4332968
     6   6 C       10   6 C                                       1.4128007
     3   6 C       11   6 C                                       1.4097900
     4   6 C       17   6 C                                       1.3765208
    12   6 C       17   6 C                                       1.3869655
     4   6 C       18   6 C                                       1.4029388
    13   6 C       18   6 C                                       1.4098033
     5   6 C       19   6 C                                       1.4113875
     6   6 C       19   6 C                                       1.4213103
    14   6 C       19   6 C                                       1.4240049
     6   6 C       20   6 C                                       1.4236804
    12   6 C       21   6 C                                       1.3859491
    13   6 C       21   6 C                                       1.4132800
    13   6 C       22   6 C                                       1.4253936
    14   6 C       22   6 C                                       1.4037959
    15   6 C       22   6 C                                       1.4112877
    14   6 C       23   6 C                                       1.4166255
    15   6 C       24   6 C                                       1.4232802
    16   6 C       24   6 C                                       1.3712838
    15   6 C       25   6 C                                       1.4065330
    16   6 C       26   6 C                                       1.4120690
     8   6 C       28   6 C                                       1.4197013
     8   6 C       30   6 C                                       1.4189171
    11   6 C       30   6 C                                       1.4220015
    11   6 C       33   6 C                                       1.4242306
    20   6 C       33   6 C                                       1.4114259
    27   6 C       37   6 C                                       1.3445124
    28   6 C       38   6 C                                       1.3955654
    31   6 C       38   6 C                                       1.4165260
    29   6 C       39   6 C                                       1.3671281
    32   6 C       39   6 C                                       1.4168393
    30   6 C       40   6 C                                       1.4140842
    31   6 C       40   6 C                                       1.4134680
    34   6 C       40   6 C                                       1.4178534
    31   6 C       41   6 C                                       1.4122101
    32   6 C       41   6 C                                       1.4264483
    35   6 C       41   6 C                                       1.4096189
    32   6 C       42   6 C                                       1.3889619
    36   6 C       42   6 C                                       1.3963008
    20   6 C       43   6 C                                       1.4179529
    23   6 C       43   6 C                                       1.4171230
    23   6 C       52   6 C                                       1.4106477
    25   6 C       52   6 C                                       1.4174835
    25   6 C       59   6 C                                       1.4128012
    26   6 C       59   6 C                                       1.4219082
    26   6 C       66   6 C                                       1.3963008
    33   6 C       72   6 C                                       1.4167906
    34   6 C       72   6 C                                       1.4170863
    46   6 C       72   6 C                                       1.4133811
    47   6 C       73   6 C                                       1.4168393
    66   6 C       73   6 C                                       1.3889619
    68   6 C       73   6 C                                       1.4264483
    67   6 C       74   6 C                                       1.4060122
    69   6 C       74   6 C                                       1.3652754
    34   6 C       75   6 C                                       1.4095517
    35   6 C       75   6 C                                       1.4204859
    48   6 C       75   6 C                                       1.4158385
    49   6 C       76   6 C                                       1.4165260
    68   6 C       76   6 C                                       1.4122101
    70   6 C       76   6 C                                       1.4134680
    35   6 C       77   6 C                                       1.4104677
    36   6 C       77   6 C                                       1.4219082
    50   6 C       77   6 C                                       1.4128012
    51   6 C       78   6 C                                       1.4189171
    70   6 C       78   6 C                                       1.4140842
    71   6 C       78   6 C                                       1.4220015
    36   6 C       79   6 C                                       1.4120690
    44   6 C       79   6 C                                       1.3712838
    45   6 C       80   6 C                                       1.4105651
    67   6 C       80   6 C                                       1.4332968 (max)
    71   6 C       80   6 C                                       1.4097900
    43   6 C       81   6 C                                       1.4118569
    46   6 C       81   6 C                                       1.4150338
    54   6 C       81   6 C                                       1.4179499
    46   6 C       82   6 C                                       1.4159522
    48   6 C       82   6 C                                       1.4107843
    56   6 C       82   6 C                                       1.4179499
    47   6 C       83   6 C                                       1.3671281
    48   6 C       84   6 C                                       1.4156847
    50   6 C       84   6 C                                       1.4174835
    58   6 C       84   6 C                                       1.4106477
    49   6 C       85   6 C                                       1.3955654
    51   6 C       85   6 C                                       1.4197013
    44   6 C       86   6 C                                       1.4232802
    50   6 C       86   6 C                                       1.4065330
    53   6 C       86   6 C                                       1.4112877
    45   6 C       87   6 C                                       1.3613200
    51   6 C       87   6 C                                       1.4105604
    52   6 C       88   6 C                                       1.4156847
    54   6 C       88   6 C                                       1.4107844
    61   6 C       88   6 C                                       1.4158385
    53   6 C       89   6 C                                       1.4253936
    55   6 C       89   6 C                                       1.4132800
    62   6 C       89   6 C                                       1.4098033
    54   6 C       90   6 C                                       1.4159522
    56   6 C       90   6 C                                       1.4150338
    63   6 C       90   6 C                                       1.4133811
    55   6 C       91   6 C                                       1.3859491
    64   6 C       91   6 C                                       1.3869655
    56   6 C       92   6 C                                       1.4118569
    58   6 C       92   6 C                                       1.4171230
    65   6 C       92   6 C                                       1.4179530
    57   6 C       93   6 C                                       1.3445124
    53   6 C       94   6 C                                       1.4037959
    58   6 C       94   6 C                                       1.4166255
    60   6 C       94   6 C                                       1.4240049
    59   6 C       95   6 C                                       1.4104677
    61   6 C       95   6 C                                       1.4204860
    68   6 C       95   6 C                                       1.4096189
    60   6 C       96   6 C                                       1.4113875
    69   6 C       96   6 C                                       1.4038036
    61   6 C       97   6 C                                       1.4095517
    63   6 C       97   6 C                                       1.4170863
    70   6 C       97   6 C                                       1.4178534
    62   6 C       98   6 C                                       1.4029388
    64   6 C       98   6 C                                       1.3765208
    63   6 C       99   6 C                                       1.4167906
    65   6 C       99   6 C                                       1.4114259
    71   6 C       99   6 C                                       1.4242306
    60   6 C      100   6 C                                       1.4213104
    65   6 C      100   6 C                                       1.4236805
    67   6 C      100   6 C                                       1.4128007
     1   6 C      101   1 H                                       1.0813913
     2   6 C      102   1 H                                       1.0777322
     4   6 C      103   1 H                                       1.0771746
     7   6 C      105   1 H                                       1.0774616
     9   6 C      106   1 H                                       1.0779158
    12   6 C      107   1 H                                       1.0805650
    16   6 C      108   1 H                                       1.0812526
    17   6 C      109   1 H                                       1.0802117
    27   6 C      110   1 H                                       1.0794550
    37   6 C      111   1 H                                       1.0775465
    39   6 C      112   1 H                                       1.0805740
    42   6 C      113   1 H                                       1.0811270
    45   6 C      114   1 H                                       1.0774616
    47   6 C      115   1 H                                       1.0805740
    57   6 C      116   1 H                                       1.0775465
    64   6 C      118   1 H                                       1.0802117
    66   6 C      119   1 H                                       1.0811270
    69   6 C      120   1 H                                       1.0779158
    74   6 C      121   1 H                                       1.0777322
    79   6 C      122   1 H                                       1.0812526
    87   6 C      123   1 H                                       1.0813914
    91   6 C      124   1 H                                       1.0805650
    93   6 C      125   1 H                                       1.0794550
    98   6 C      126   1 H                                       1.0771746
    21   6 C      127   7 N                                       1.3700547
    24   6 C      127   7 N                                       1.3735009
    44   6 C      128   7 N                                       1.3735009
    55   6 C      128   7 N                                       1.3700547
   127   7 N      129   1 H                                       1.0098841
   128   7 N      130   1 H                                       1.0098841
    85   6 C      131   7 N                                       1.3740549
    93   6 C      131   7 N                                       1.3648753
   117   1 H      131   7 N                                       1.0068727
    27   6 C      132   7 N                                       1.3648753
    28   6 C      132   7 N                                       1.3740549
   104   1 H      132   7 N                                       1.0068727 (min)

 * 4 distinct bonds (by element types)

   Z      Z             #   av. dist./Å        max./Å        min./Å
   1 H    6 C          24     1.0793673     1.0813914     1.0771746
   6 C    6 C         128     1.4085017     1.4332968     1.3445124
   1 H    7 N           4     1.0083784     1.0098841     1.0068727
   6 C    7 N           8     1.3706215     1.3740549     1.3648753


optimized geometry written to: xtbopt.xyz


           -------------------------------------------------
          | TOTAL ENERGY             -240.989333190055 Eh   |
          | GRADIENT NORM               0.000640467039 Eh/α |
          | HOMO-LUMO GAP               0.993569080486 eV   |
           -------------------------------------------------

------------------------------------------------------------------------
 * finished run on 2025/12/08 at 00:32:28.105     
------------------------------------------------------------------------
 total:
 * wall-time:     0 d,  0 h,  0 min,  5.116 sec
 *  cpu-time:     0 d,  0 h,  0 min, 19.547 sec
 * ratio c/w:     3.821 speedup
 SCF:
 * wall-time:     0 d,  0 h,  0 min,  0.964 sec
 *  cpu-time:     0 d,  0 h,  0 min,  3.656 sec
 * ratio c/w:     3.793 speedup
 ANC optimizer:
 * wall-time:     0 d,  0 h,  0 min,  4.024 sec
 *  cpu-time:     0 d,  0 h,  0 min, 15.547 sec
 * ratio c/w:     3.864 speedup

normal termination of xtb
