      -----------------------------------------------------------      
     |                   =====================                   |     
     |                           x T B                           |     
     |                   =====================                   |     
     |                         S. Grimme                         |     
     |          Mulliken Center for Theoretical Chemistry        |     
     |                    University of Bonn                     |     
      -----------------------------------------------------------      

   * xtb version 6.7.1pre (5071a88) compiled by 'Marcel@Raven' on 2024-07-23

   xtb is free software: you can redistribute it and/or modify it under
   the terms of the GNU Lesser General Public License as published by
   the Free Software Foundation, either version 3 of the License, or
   (at your option) any later version.
   
   xtb is distributed in the hope that it will be useful,
   but WITHOUT ANY WARRANTY; without even the implied warranty of
   MERCHANTABILITY or FITNESS FOR A PARTICULAR PURPOSE.  See the
   GNU Lesser General Public License for more details.
   
   Cite this work as:
   * C. Bannwarth, E. Caldeweyher, S. Ehlert, A. Hansen, P. Pracht,
     J. Seibert, S. Spicher, S. Grimme, WIREs Comput. Mol. Sci., 2020, 11,
     e01493. DOI: 10.1002/wcms.1493
   
   for GFN2-xTB:
   * C. Bannwarth, S. Ehlert and S. Grimme., J. Chem. Theory Comput., 2019,
     15, 1652-1671. DOI: 10.1021/acs.jctc.8b01176
   for GFN1-xTB:
   * S. Grimme, C. Bannwarth, P. Shushkov, J. Chem. Theory Comput., 2017,
     13, 1989-2009. DOI: 10.1021/acs.jctc.7b00118
   for GFN0-xTB:
   * P. Pracht, E. Caldeweyher, S. Ehlert, S. Grimme, ChemRxiv, 2019, preprint.
     DOI: 10.26434/chemrxiv.8326202.v1
   for GFN-FF:
   * S. Spicher and S. Grimme, Angew. Chem. Int. Ed., 2020, 59, 15665-15673.
     DOI: 10.1002/anie.202004239
   
   for ALPB and GBSA implicit solvation:
   * S. Ehlert, M. Stahn, S. Spicher, S. Grimme, J. Chem. Theory Comput.,
     2021, 17, 4250-4261. DOI: 10.1021/acs.jctc.1c00471
   
   for ddCOSMO and CPCM-X implicit solvation:
   * M. Stahn, S. Ehlert, S. Grimme, J. Phys. Chem. A,
     2023, XX, XXXX-XXXX. DOI: 10.1021/acs.jpca.3c04382
   
   for DFT-D4:
   * E. Caldeweyher, C. Bannwarth and S. Grimme, J. Chem. Phys., 2017,
     147, 034112. DOI: 10.1063/1.4993215
   * E. Caldeweyher, S. Ehlert, A. Hansen, H. Neugebauer, S. Spicher,
     C. Bannwarth and S. Grimme, J. Chem. Phys., 2019, 150, 154122.
     DOI: 10.1063/1.5090222
   * E. Caldeweyher, J.-M. Mewes, S. Ehlert and S. Grimme, Phys. Chem. Chem. Phys.
     2020, 22, 8499-8512. DOI: 10.1039/D0CP00502A
   
   for sTDA-xTB:
   * S. Grimme and C. Bannwarth, J. Chem. Phys., 2016, 145, 054103.
     DOI: 10.1063/1.4959605
   
   in the mass-spec context:
   * V. Asgeirsson, C. Bauer and S. Grimme, Chem. Sci., 2017, 8, 4879.
     DOI: 10.1039/c7sc00601b
   * J. Koopman and S. Grimme, ACS Omega 2019, 4, 12, 15120-15133.
     DOI: 10.1021/acsomega.9b02011
   
   for metadynamics refer to:
   * S. Grimme, J. Chem. Theory Comput., 2019, 155, 2847-2862
     DOI: 10.1021/acs.jctc.9b00143
   
   for SPH calculations refer to:
   * S. Spicher and S. Grimme, J. Chem. Theory Comput., 2021, 17, 1701-1714
     DOI: 10.1021/acs.jctc.0c01306
   
   for ONIOM refer to:
   * C. Plett, A. Katbashev, S. Ehlert, S. Grimme, M. Bursch,
     Phys. Chem. Chem. Phys., 2023, 25, 17860-17868. DOI: 10.1039/D3CP02178E
   
   for DIPRO refer to:
   * J. Kohn, N. Gildemeister, S. Grimme, D. Fazzi, A. Hansen,
     J. Chem. Phys., 2023, just accepted.
   
   for PTB refer to:
   * S. Grimme, M. Mueller, A. Hansen, J. Chem. Phys., 2023, 158, 124111.
     DOI: 10.1063/5.0137838
   
   with help from (in alphabetical order)
   P. Atkinson, C. Bannwarth, F. Bohle, G. Brandenburg, E. Caldeweyher
   M. Checinski, S. Dohm, S. Ehlert, S. Ehrlich, I. Gerasimov, C. Hölzer
   A. Katbashev, J. Kohn, J. Koopman, C. Lavigne, S. Lehtola, F. März, M. Müller,
   F. Musil, H. Neugebauer, J. Pisarek, C. Plett, P. Pracht, F. Pultar,
   J. Seibert, P. Shushkov, S. Spicher, M. Stahn, M. Steiner, T. Strunk,
   J. Stückrath, T. Rose, and J. Unsleber
   
 * started run on 2025/12/08 at 00:32:28.146     
   ID    Z sym.   atoms
    1    6 C      1-100
    2    1 H      101-126, 129, 130
    3    7 N      127, 128, 131, 132

           -------------------------------------------------
          |                Calculation Setup                |
           -------------------------------------------------

          program call               : xtb "C:\Users\LENOVO GAMING\Documents\GitHub\molecular-conductivity-sim\results\1.5nm-4Ndoped-3percent\xtbopt.xyz" --sp
          coordinate file            : C:\Users\LENOVO GAMING\Documents\GitHub\molecular-conductivity-sim\results\1.5nm-4Ndoped-3percent\xtbopt.xyz
          omp threads                :                    16


           -------------------------------------------------
          |                 G F N 2 - x T B                 |
           -------------------------------------------------

        Reference                      10.1021/acs.jctc.8b01176
      * Hamiltonian:
        H0-scaling (s, p, d)           1.850000    2.230000    2.230000
        zeta-weighting                 0.500000
      * Dispersion:
        s8                             2.700000
        a1                             0.520000
        a2                             5.000000
        s9                             5.000000
      * Repulsion:
        kExp                           1.500000    1.000000
        rExp                           1.000000
      * Coulomb:
        alpha                          2.000000
        third order                    shell-resolved
        anisotropic                    true
        a3                             3.000000
        a5                             4.000000
        cn-shift                       1.200000
        cn-exp                         4.000000
        max-rad                        5.000000

q/qsh data taken from xtbrestart
CAMM data taken from xtbrestart

          ...................................................
          :                      SETUP                      :
          :.................................................:
          :  # basis functions                 444          :
          :  # atomic orbitals                 444          :
          :  # shells                          236          :
          :  # electrons                       448          :
          :  max. iterations                   250          :
          :  Hamiltonian                  GFN2-xTB          :
          :  restarted?                       true          :
          :  GBSA solvation                  false          :
          :  PC potential                    false          :
          :  electronic temp.          300.0000000     K    :
          :  accuracy                    1.0000000          :
          :  -> integral cutoff          0.2500000E+02      :
          :  -> integral neglect         0.1000000E-07      :
          :  -> SCF convergence          0.1000000E-05 Eh   :
          :  -> wf. convergence          0.1000000E-03 e    :
          :  Broyden damping             0.4000000          :
          :  net charge                          0          :
          :  unpaired electrons                  0          :
          ...................................................

 iter      E             dE          RMSdq      gap      omega  full diag
   1   -245.6495776 -0.245650E+03  0.972E-06    0.99       0.0  T
   2   -245.6495776  0.139266E-11  0.899E-06    0.99     968.7  T
   3   -245.6495776 -0.120508E-10  0.248E-06    0.99    3514.5  T

   *** convergence criteria satisfied after 3 iterations ***

         #    Occupation            Energy/Eh            Energy/eV
      -------------------------------------------------------------
         1        2.0000           -0.6783187             -18.4580
       ...           ...                  ...                  ...
       218        2.0000           -0.3666486              -9.9770
       219        2.0000           -0.3639895              -9.9047
       220        2.0000           -0.3537709              -9.6266
       221        2.0000           -0.3401008              -9.2546
       222        2.0000           -0.3314659              -9.0196
       223        2.0000           -0.3314240              -9.0185
       224        2.0000           -0.3210277              -8.7356 (HOMO)
       225                         -0.2845147              -7.7420 (LUMO)
       226                         -0.2756174              -7.4999
       227                         -0.2603574              -7.0847
       228                         -0.2570237              -6.9940
       229                         -0.2507272              -6.8226
       ...                                ...                  ...
       444                          0.7989733              21.7412
      -------------------------------------------------------------
                  HL-Gap            0.0365130 Eh            0.9936 eV
             Fermi-level           -0.3027712 Eh           -8.2388 eV

 SCC (total)                   0 d,  0 h,  0 min,  0.280 sec
 SCC setup                      ...        0 min,  0.002 sec (  0.714%)
 Dispersion                     ...        0 min,  0.009 sec (  3.214%)
 classical contributions        ...        0 min,  0.000 sec (  0.000%)
 integral evaluation            ...        0 min,  0.023 sec (  8.214%)
 iterations                     ...        0 min,  0.172 sec ( 61.429%)
 molecular gradient             ...        0 min,  0.070 sec ( 25.000%)
 printout                       ...        0 min,  0.004 sec (  1.429%)

         :::::::::::::::::::::::::::::::::::::::::::::::::::::
         ::                     SUMMARY                     ::
         :::::::::::::::::::::::::::::::::::::::::::::::::::::
         :: total energy            -240.989333190071 Eh    ::
         :: gradient norm              0.000640246685 Eh/a0 ::
         :: HOMO-LUMO gap              0.993569325111 eV    ::
         ::.................................................::
         :: SCC energy              -245.657651326484 Eh    ::
         :: -> isotropic ES            0.021423269219 Eh    ::
         :: -> anisotropic ES          0.022202277559 Eh    ::
         :: -> anisotropic XC          0.082920556529 Eh    ::
         :: -> dispersion             -0.289689831028 Eh    ::
         :: repulsion energy           4.668318136413 Eh    ::
         :: add. restraining           0.000000000000 Eh    ::
         :: total charge              -0.000000000001 e     ::
         :::::::::::::::::::::::::::::::::::::::::::::::::::::

           -------------------------------------------------
          |                Property Printout                |
           -------------------------------------------------

    * Orbital Energies and Occupations

         #    Occupation            Energy/Eh            Energy/eV
      -------------------------------------------------------------
         1        2.0000           -0.6783187             -18.4580
       ...           ...                  ...                  ...
       212        2.0000           -0.3858246             -10.4988
       213        2.0000           -0.3811555             -10.3718
       214        2.0000           -0.3782683             -10.2932
       215        2.0000           -0.3746277             -10.1941
       216        2.0000           -0.3742491             -10.1838
       217        2.0000           -0.3700058             -10.0684
       218        2.0000           -0.3666486              -9.9770
       219        2.0000           -0.3639895              -9.9047
       220        2.0000           -0.3537709              -9.6266
       221        2.0000           -0.3401008              -9.2546
       222        2.0000           -0.3314659              -9.0196
       223        2.0000           -0.3314240              -9.0185
       224        2.0000           -0.3210277              -8.7356 (HOMO)
       225                         -0.2845147              -7.7420 (LUMO)
       226                         -0.2756174              -7.4999
       227                         -0.2603574              -7.0847
       228                         -0.2570237              -6.9940
       229                         -0.2507272              -6.8226
       230                         -0.2477038              -6.7404
       231                         -0.2449887              -6.6665
       232                         -0.2378752              -6.4729
       233                         -0.2376059              -6.4656
       234                         -0.2343739              -6.3776
       235                         -0.2279843              -6.2038
       ...                                ...                  ...
       444                          0.7989733              21.7412
      -------------------------------------------------------------
                  HL-Gap            0.0365130 Eh            0.9936 eV
             Fermi-level           -0.3027712 Eh           -8.2388 eV

     #   Z          covCN         q      C6AA      α(0)
     1   6 C        2.915    -0.042    29.042     8.837
     2   6 C        2.918    -0.040    29.003     8.831
     3   6 C        2.979     0.003    27.961     8.674
     4   6 C        2.920    -0.051    29.254     8.870
     5   6 C        2.979     0.000    28.018     8.683
     6   6 C        2.989     0.001    28.006     8.681
     7   6 C        2.917    -0.040    28.989     8.829
     8   6 C        2.980    -0.019    28.481     8.754
     9   6 C        2.918    -0.038    28.944     8.822
    10   6 C        2.979     0.002    27.984     8.677
    11   6 C        2.989     0.002    27.975     8.676
    12   6 C        2.920    -0.068    29.696     8.936
    13   6 C        2.996    -0.009    28.233     8.716
    14   6 C        2.989    -0.008    28.208     8.712
    15   6 C        2.995    -0.010    28.265     8.721
    16   6 C        2.921    -0.082    30.061     8.991
    17   6 C        2.917    -0.030    28.753     8.793
    18   6 C        2.978     0.005    27.906     8.665
    19   6 C        2.989     0.001    27.993     8.679
    20   6 C        2.986    -0.002    28.073     8.691
    21   6 C        2.917     0.067    26.499     8.441
    22   6 C        2.990     0.003    27.959     8.674
    23   6 C        2.989    -0.001    28.047     8.687
    24   6 C        2.911     0.064    26.573     8.453
    25   6 C        2.992    -0.001    28.033     8.685
    26   6 C        2.978     0.012    27.733     8.638
    27   6 C        2.847     0.020    27.558     8.604
    28   6 C        2.917     0.056    26.742     8.480
    29   6 C        2.978     0.013    27.729     8.638
    30   6 C        2.991     0.001    27.986     8.678
    31   6 C        2.990    -0.002    28.060     8.689
    32   6 C        2.976     0.011    27.755     8.642
    33   6 C        2.986    -0.004    28.104     8.696
    34   6 C        2.989    -0.001    28.036     8.686
    35   6 C        2.990     0.000    28.016     8.683
    36   6 C        2.978     0.012    27.733     8.638
    37   6 C        2.912    -0.060    29.494     8.905
    38   6 C        2.993    -0.007    28.186     8.709
    39   6 C        2.920    -0.065    29.625     8.926
    40   6 C        2.988    -0.011    28.280     8.723
    41   6 C        2.994    -0.003    28.083     8.693
    42   6 C        2.924    -0.059    29.475     8.903
    43   6 C        2.988    -0.002    28.077     8.692
    44   6 C        2.911     0.064    26.573     8.453
    45   6 C        2.917    -0.040    28.989     8.829
    46   6 C        2.990    -0.001    28.052     8.688
    47   6 C        2.920    -0.065    29.625     8.926
    48   6 C        2.990    -0.002    28.062     8.690
    49   6 C        2.993    -0.007    28.186     8.709
    50   6 C        2.992    -0.001    28.033     8.685
    51   6 C        2.980    -0.019    28.481     8.754
    52   6 C        2.991    -0.002    28.071     8.691
    53   6 C        2.990     0.003    27.959     8.674
    54   6 C        2.989    -0.004    28.125     8.699
    55   6 C        2.917     0.067    26.499     8.441
    56   6 C        2.989    -0.001    28.042     8.687
    57   6 C        2.912    -0.060    29.494     8.905
    58   6 C        2.989    -0.001    28.047     8.687
    59   6 C        2.995    -0.010    28.266     8.721
    60   6 C        2.989     0.001    27.993     8.679
    61   6 C        2.989    -0.002    28.067     8.690
    62   6 C        2.978     0.005    27.906     8.665
    63   6 C        2.988    -0.003    28.084     8.693
    64   6 C        2.917    -0.030    28.753     8.793
    65   6 C        2.986    -0.002    28.073     8.691
    66   6 C        2.924    -0.059    29.475     8.903
    67   6 C        2.979     0.002    27.984     8.677
    68   6 C        2.994    -0.003    28.083     8.693
    69   6 C        2.918    -0.038    28.944     8.822
    70   6 C        2.988    -0.011    28.280     8.723
    71   6 C        2.989     0.002    27.975     8.676
    72   6 C        2.988    -0.003    28.084     8.693
    73   6 C        2.976     0.011    27.755     8.642
    74   6 C        2.918    -0.040    29.003     8.831
    75   6 C        2.989    -0.002    28.067     8.690
    76   6 C        2.990    -0.002    28.060     8.689
    77   6 C        2.995    -0.010    28.266     8.721
    78   6 C        2.991     0.001    27.986     8.678
    79   6 C        2.921    -0.082    30.061     8.991
    80   6 C        2.979     0.003    27.961     8.674
    81   6 C        2.989    -0.001    28.042     8.687
    82   6 C        2.989    -0.004    28.125     8.699
    83   6 C        2.978     0.013    27.729     8.638
    84   6 C        2.991    -0.002    28.071     8.691
    85   6 C        2.917     0.056    26.742     8.480
    86   6 C        2.995    -0.010    28.265     8.721
    87   6 C        2.915    -0.042    29.042     8.837
    88   6 C        2.990    -0.002    28.062     8.690
    89   6 C        2.996    -0.009    28.233     8.716
    90   6 C        2.990    -0.001    28.052     8.688
    91   6 C        2.920    -0.068    29.696     8.936
    92   6 C        2.988    -0.002    28.077     8.692
    93   6 C        2.847     0.020    27.558     8.604
    94   6 C        2.989    -0.008    28.208     8.712
    95   6 C        2.990     0.000    28.016     8.683
    96   6 C        2.979     0.000    28.018     8.683
    97   6 C        2.989    -0.001    28.036     8.686
    98   6 C        2.920    -0.051    29.254     8.870
    99   6 C        2.986    -0.004    28.104     8.696
   100   6 C        2.989     0.001    28.006     8.681
   101   1 H        0.925     0.012     2.858     2.644
   102   1 H        0.926     0.028     2.621     2.532
   103   1 H        0.926     0.030     2.593     2.518
   104   1 H        0.860     0.170     1.270     1.765
   105   1 H        0.926     0.029     2.593     2.518
   106   1 H        0.926     0.029     2.594     2.519
   107   1 H        0.926     0.020     2.731     2.584
   108   1 H        0.925     0.018     2.769     2.602
   109   1 H        0.926     0.028     2.616     2.529
   110   1 H        0.926     0.036     2.506     2.476
   111   1 H        0.926     0.038     2.474     2.460
   112   1 H        0.926     0.022     2.706     2.572
   113   1 H        0.926     0.021     2.711     2.575
   114   1 H        0.926     0.029     2.593     2.518
   115   1 H        0.926     0.022     2.706     2.572
   116   1 H        0.926     0.038     2.474     2.460
   117   1 H        0.860     0.170     1.270     1.765
   118   1 H        0.926     0.028     2.616     2.529
   119   1 H        0.926     0.021     2.711     2.575
   120   1 H        0.926     0.029     2.594     2.519
   121   1 H        0.926     0.028     2.621     2.532
   122   1 H        0.925     0.018     2.769     2.602
   123   1 H        0.925     0.012     2.858     2.644
   124   1 H        0.926     0.020     2.731     2.584
   125   1 H        0.926     0.036     2.506     2.476
   126   1 H        0.926     0.030     2.593     2.518
   127   7 N        2.706    -0.124    23.692     7.229
   128   7 N        2.706    -0.124    23.692     7.229
   129   1 H        0.860     0.163     1.318     1.798
   130   1 H        0.860     0.163     1.318     1.798
   131   7 N        2.703    -0.099    23.190     7.152
   132   7 N        2.703    -0.099    23.190     7.152

 Mol. C6AA /au·bohr⁶  :     352991.045776
 Mol. C8AA /au·bohr⁸  :    9605434.769264
 Mol. α(0) /au        :        968.392795


Wiberg/Mayer (AO) data.
largest (>0.10) Wiberg bond orders for each atom

 ---------------------------------------------------------------------------
     #   Z sym  total        # sym  WBO       # sym  WBO       # sym  WBO
 ---------------------------------------------------------------------------
     1   6 C    3.954 --     7 C    1.562     8 C    1.270   101 H    0.958
     2   6 C    3.959 --     9 C    1.534    10 C    1.298   102 H    0.960
     3   6 C    3.947 --    11 C    1.296     7 C    1.275    10 C    1.182
     4   6 C    3.962 --    17 C    1.476    18 C    1.333   103 H    0.963
     5   6 C    3.958 --     9 C    1.304    19 C    1.298    18 C    1.154
     6   6 C    3.976 --    10 C    1.281    19 C    1.249    20 C    1.222
     7   6 C    3.966 --     1 C    1.562     3 C    1.275   105 H    0.960
     8   6 C    3.961 --     1 C    1.270    30 C    1.254    28 C    1.223
     9   6 C    3.965 --     2 C    1.534     5 C    1.304   106 H    0.962
    10   6 C    3.958 --     2 C    1.298     6 C    1.281     3 C    1.182
    11   6 C    3.979 --     3 C    1.296    30 C    1.242    33 C    1.217
    12   6 C    3.958 --    17 C    1.403    21 C    1.380   107 H    0.968
    13   6 C    3.974 --    18 C    1.290    21 C    1.253    22 C    1.194
    14   6 C    3.970 --    22 C    1.294    23 C    1.239    19 C    1.208
    15   6 C    3.948 --    25 C    1.277    22 C    1.255    24 C    1.191
    16   6 C    3.926 --    24 C    1.463    26 C    1.258   108 H    0.966
    17   6 C    3.977 --     4 C    1.476    12 C    1.403   109 H    0.971
    18   6 C    3.972 --     4 C    1.333    13 C    1.290     5 C    1.154
    19   6 C    3.983 --     5 C    1.298     6 C    1.249    14 C    1.208
    20   6 C    3.961 --    33 C    1.278    43 C    1.242     6 C    1.222
    21   6 C    3.960 --    12 C    1.380    13 C    1.253   127 N    1.152
    22   6 C    3.957 --    14 C    1.294    15 C    1.255    13 C    1.194
    23   6 C    3.966 --    52 C    1.272    14 C    1.239    43 C    1.234
    24   6 C    3.947 --    16 C    1.463    15 C    1.191   127 N    1.135
    25   6 C    3.975 --    15 C    1.277    59 C    1.249    52 C    1.230
    26   6 C    3.972 --    66 C    1.336    16 C    1.258    59 C    1.219
    27   6 C    3.948 --    37 C    1.668   132 N    1.184   110 H    0.966
    28   6 C    3.910 --    38 C    1.338     8 C    1.223   132 N    1.150
    29   6 C    3.973 --    39 C    1.508    38 C    1.159    37 C    1.152
    30   6 C    3.976 --    40 C    1.254     8 C    1.254    11 C    1.242
    31   6 C    3.970 --    41 C    1.260    40 C    1.255    38 C    1.236
    32   6 C    3.974 --    42 C    1.381    39 C    1.232    41 C    1.203
    33   6 C    3.960 --    20 C    1.278    72 C    1.248    11 C    1.217
    34   6 C    3.964 --    75 C    1.277    72 C    1.237    40 C    1.232
    35   6 C    3.978 --    41 C    1.271    77 C    1.264    75 C    1.222
    36   6 C    3.972 --    42 C    1.336    79 C    1.258    77 C    1.219
    37   6 C    3.963 --    27 C    1.668    29 C    1.152   111 H    0.967
    38   6 C    3.971 --    28 C    1.338    31 C    1.236    29 C    1.159
    39   6 C    3.961 --    29 C    1.508    32 C    1.232   112 H    0.967
    40   6 C    3.975 --    31 C    1.255    30 C    1.254    34 C    1.232
    41   6 C    3.959 --    35 C    1.271    31 C    1.260    32 C    1.203
    42   6 C    3.900 --    32 C    1.381    36 C    1.336   113 H    0.967
    43   6 C    3.957 --    81 C    1.267    20 C    1.242    23 C    1.234
    44   6 C    3.947 --    79 C    1.463    86 C    1.191   128 N    1.135
    45   6 C    3.966 --    87 C    1.562    80 C    1.275   114 H    0.960
    46   6 C    3.964 --    72 C    1.260    82 C    1.244    81 C    1.242
    47   6 C    3.961 --    83 C    1.508    73 C    1.232   115 H    0.967
    48   6 C    3.962 --    82 C    1.262    75 C    1.244    84 C    1.241
    49   6 C    3.971 --    85 C    1.338    76 C    1.236    83 C    1.159
    50   6 C    3.975 --    86 C    1.277    77 C    1.249    84 C    1.230
    51   6 C    3.961 --    87 C    1.270    78 C    1.254    85 C    1.223
    52   6 C    3.964 --    23 C    1.272    88 C    1.241    25 C    1.230
    53   6 C    3.957 --    94 C    1.294    86 C    1.255    89 C    1.194
    54   6 C    3.959 --    88 C    1.262    90 C    1.244    81 C    1.237
    55   6 C    3.960 --    91 C    1.380    89 C    1.253   128 N    1.152
    56   6 C    3.964 --    92 C    1.267    90 C    1.242    82 C    1.237
    57   6 C    3.963 --    93 C    1.668    83 C    1.152   116 H    0.967
    58   6 C    3.966 --    84 C    1.272    94 C    1.239    92 C    1.234
    59   6 C    3.958 --    95 C    1.264    25 C    1.249    26 C    1.219
    60   6 C    3.983 --    96 C    1.298   100 C    1.249    94 C    1.208
    61   6 C    3.960 --    97 C    1.277    88 C    1.244    95 C    1.222
    62   6 C    3.972 --    98 C    1.333    89 C    1.290    96 C    1.154
    63   6 C    3.960 --    90 C    1.260    99 C    1.248    97 C    1.237
    64   6 C    3.977 --    98 C    1.476    91 C    1.403   118 H    0.971
    65   6 C    3.961 --    99 C    1.278    92 C    1.242   100 C    1.222
    66   6 C    3.900 --    73 C    1.381    26 C    1.336   119 H    0.967
    67   6 C    3.958 --    74 C    1.298   100 C    1.281    80 C    1.182
    68   6 C    3.959 --    95 C    1.271    76 C    1.260    73 C    1.203
    69   6 C    3.965 --    74 C    1.534    96 C    1.304   120 H    0.962
    70   6 C    3.975 --    76 C    1.255    78 C    1.254    97 C    1.232
    71   6 C    3.979 --    80 C    1.296    78 C    1.242    99 C    1.217
    72   6 C    3.960 --    46 C    1.260    33 C    1.248    34 C    1.237
    73   6 C    3.974 --    66 C    1.381    47 C    1.232    68 C    1.203
    74   6 C    3.959 --    69 C    1.534    67 C    1.298   121 H    0.960
    75   6 C    3.960 --    34 C    1.277    48 C    1.244    35 C    1.222
    76   6 C    3.970 --    68 C    1.260    70 C    1.255    49 C    1.236
    77   6 C    3.958 --    35 C    1.264    50 C    1.249    36 C    1.219
    78   6 C    3.976 --    70 C    1.254    51 C    1.254    71 C    1.242
    79   6 C    3.926 --    44 C    1.463    36 C    1.258   122 H    0.966
    80   6 C    3.947 --    71 C    1.296    45 C    1.275    67 C    1.182
    81   6 C    3.964 --    43 C    1.267    46 C    1.242    54 C    1.237
    82   6 C    3.959 --    48 C    1.262    46 C    1.244    56 C    1.237
    83   6 C    3.973 --    47 C    1.508    49 C    1.159    57 C    1.152
    84   6 C    3.964 --    58 C    1.272    48 C    1.241    50 C    1.230
    85   6 C    3.910 --    49 C    1.338    51 C    1.223   131 N    1.150
    86   6 C    3.948 --    50 C    1.277    53 C    1.255    44 C    1.191
    87   6 C    3.954 --    45 C    1.562    51 C    1.270   123 H    0.958
    88   6 C    3.962 --    54 C    1.262    61 C    1.244    52 C    1.241
    89   6 C    3.974 --    62 C    1.290    55 C    1.253    53 C    1.194
    90   6 C    3.964 --    63 C    1.260    54 C    1.244    56 C    1.242
    91   6 C    3.958 --    64 C    1.403    55 C    1.380   124 H    0.968
    92   6 C    3.957 --    56 C    1.267    65 C    1.242    58 C    1.234
    93   6 C    3.948 --    57 C    1.668   131 N    1.184   125 H    0.966
    94   6 C    3.970 --    53 C    1.294    58 C    1.239    60 C    1.208
    95   6 C    3.978 --    68 C    1.271    59 C    1.264    61 C    1.222
    96   6 C    3.958 --    69 C    1.304    60 C    1.298    62 C    1.154
    97   6 C    3.964 --    61 C    1.277    63 C    1.237    70 C    1.232
    98   6 C    3.962 --    64 C    1.476    62 C    1.333   126 H    0.963
    99   6 C    3.960 --    65 C    1.278    63 C    1.248    71 C    1.217
   100   6 C    3.976 --    67 C    1.281    60 C    1.249    65 C    1.222
   101   1 H    0.999 --     1 C    0.958
   102   1 H    0.998 --     2 C    0.960
   103   1 H    0.999 --     4 C    0.963
   104   1 H    0.970 --   132 N    0.930
   105   1 H    0.998 --     7 C    0.960
   106   1 H    0.998 --     9 C    0.962
   107   1 H    0.999 --    12 C    0.968
   108   1 H    0.998 --    16 C    0.966
   109   1 H    0.998 --    17 C    0.971
   110   1 H    0.998 --    27 C    0.966
   111   1 H    0.998 --    37 C    0.967
   112   1 H    0.998 --    39 C    0.967
   113   1 H    0.998 --    42 C    0.967
   114   1 H    0.998 --    45 C    0.960
   115   1 H    0.998 --    47 C    0.967
   116   1 H    0.998 --    57 C    0.967
   117   1 H    0.970 --   131 N    0.930
   118   1 H    0.998 --    64 C    0.971
   119   1 H    0.998 --    66 C    0.967
   120   1 H    0.998 --    69 C    0.962
   121   1 H    0.998 --    74 C    0.960
   122   1 H    0.998 --    79 C    0.966
   123   1 H    0.999 --    87 C    0.958
   124   1 H    0.999 --    91 C    0.968
   125   1 H    0.998 --    93 C    0.966
   126   1 H    0.999 --    98 C    0.963
   127   7 N    3.489 --    21 C    1.152    24 C    1.135   129 H    0.939
   128   7 N    3.489 --    55 C    1.152    44 C    1.135   130 H    0.939
   129   1 H    0.972 --   127 N    0.939
   130   1 H    0.972 --   128 N    0.939
   131   7 N    3.501 --    93 C    1.184    85 C    1.150   117 H    0.930
   132   7 N    3.501 --    27 C    1.184    28 C    1.150   104 H    0.930
 ---------------------------------------------------------------------------

Topologies differ in total number of bonds
Writing topology from bond orders to xtbtopo.mol

molecular dipole:
                 x           y           z       tot (Debye)
 q only:        0.000      -0.000       0.000
   full:        0.000      -0.000       0.000       0.000
molecular quadrupole (traceless):
                xx          xy          yy          xz          yz          zz
 q only:       13.218      39.624      34.578       0.022       0.041     -47.795
  q+dip:       40.443      39.859      67.997       0.027       0.052    -108.441
   full:       22.047      40.753      49.285       0.031       0.052     -71.332


           -------------------------------------------------
          | TOTAL ENERGY             -240.989333190071 Eh   |
          | GRADIENT NORM               0.000640246685 Eh/α |
          | HOMO-LUMO GAP               0.993569325111 eV   |
           -------------------------------------------------

------------------------------------------------------------------------
 * finished run on 2025/12/08 at 00:32:28.523     
------------------------------------------------------------------------
 total:
 * wall-time:     0 d,  0 h,  0 min,  0.374 sec
 *  cpu-time:     0 d,  0 h,  0 min,  4.406 sec
 * ratio c/w:    11.781 speedup
 SCF:
 * wall-time:     0 d,  0 h,  0 min,  0.283 sec
 *  cpu-time:     0 d,  0 h,  0 min,  3.594 sec
 * ratio c/w:    12.699 speedup

normal termination of xtb
