132
 energy: -240.973514215617 gnorm: 0.043252845228 xtb: 6.7.1pre (5071a88)
C           -2.97753700000000       -7.33638600000000       -0.00210900000000
C            1.33815200000000       -7.41252500000000        0.00095400000000
C           -0.83558500000000       -6.16992200000000       -0.00067400000000
C            5.68281100000000       -7.46081500000000        0.00249800000000
C            3.47363300000000       -6.24009000000000        0.00120000000000
C            1.34207500000000       -4.97820800000000        0.00061100000000
C           -1.60772000000000       -7.36281800000000       -0.00144500000000
C           -3.69367800000000       -6.11164800000000       -0.00159900000000
C            2.71168100000000       -7.43143200000000        0.00168000000000
C            0.61024400000000       -6.19736500000000        0.00025300000000
C           -1.51838300000000       -4.92637900000000       -0.00117000000000
C            7.76545800000000       -6.21016700000000        0.00121700000000
C            5.62608300000000       -5.02611400000000        0.00045000000000
C            3.50172300000000       -3.76348500000000        0.00091800000000
C            5.63961400000000       -2.55765900000000       -0.00029300000000
C            7.78976400000000       -1.38523700000000       -0.00191300000000
C            7.06968000000000       -7.42318100000000        0.00245000000000
C            4.93051500000000       -6.26444900000000        0.00162300000000
C            2.77614800000000       -5.00304600000000        0.00046700000000
C            0.64463100000000       -3.72298600000000       -0.00151100000000
C            7.04925600000000       -5.01370000000000        0.00042400000000
C            4.91377800000000       -3.77828200000000       -0.00008000000000
C            2.80590500000000       -2.51743300000000       -0.00187300000000
C            7.07389700000000       -2.56539400000000       -0.00105800000000
C            4.96046600000000       -1.31551500000000       -0.00163700000000
C            7.12803000000000       -0.12707800000000       -0.00162900000000
C           -7.25142000000000       -7.20533900000000       -0.00206500000000
C           -5.12528400000000       -6.05558000000000       -0.00160200000000
C           -7.25305500000000       -4.77781000000000       -0.00026300000000
C           -2.95285400000000       -4.89217600000000       -0.00044300000000
C           -5.05405600000000       -3.60802000000000        0.00029200000000
C           -7.18413200000000       -2.32711500000000        0.00128600000000
C           -0.77484900000000       -3.69677600000000        0.00136500000000
C           -2.89281200000000       -2.41834500000000        0.00222500000000
C           -5.00901000000000       -1.14801200000000        0.00191800000000
C           -7.12802900000000        0.12707800000000        0.00196300000000
C           -7.94713900000000       -6.04420200000000       -0.00090100000000
C           -5.80185900000000       -4.82574200000000       -0.00072200000000
C           -7.89974400000000       -3.56182100000000        0.00103000000000
C           -3.63251200000000       -3.63952900000000       -0.00173300000000
C           -5.74348500000000       -2.36289600000000        0.00008500000000
C           -7.83459000000000       -1.08954500000000        0.00231700000000
C            1.37729100000000       -2.49588600000000        0.00264000000000
C           -7.07389700000000        2.56539400000000        0.00164400000000
C            1.60772100000000        7.36281800000000        0.00005300000000
C           -0.73439300000000       -1.22597700000000        0.00387700000000
C            7.89974400000000        3.56182100000000       -0.00096000000000
C           -2.84217700000000        0.04757100000000        0.00334400000000
C            5.80185900000000        4.82574200000000        0.00046200000000
C           -4.96046600000000        1.31551500000000        0.00184000000000
C            3.69367800000000        6.11164800000000        0.00082700000000
C            3.53173100000000       -1.29688200000000        0.00202400000000
C           -4.91377800000000        3.77828200000000        0.00044400000000
C            1.42321900000000       -0.02382500000000        0.00419700000000
C           -7.04925600000000        5.01370000000000        0.00047200000000
C           -0.69140400000000        1.25139100000000        0.00383900000000
C            7.94713800000000        6.04420300000000        0.00083000000000
C           -2.80590400000000        2.51743300000000        0.00190900000000
C            5.69468700000000       -0.09639300000000       -0.00022000000000
C           -2.77614800000000        5.00304600000000       -0.00043800000000
C            3.57735200000000        1.17589200000000        0.00235200000000
C           -4.93051500000000        6.26444900000000       -0.00100900000000
C            1.46441000000000        2.44675600000000        0.00298100000000
C           -7.06968000000000        7.42318100000000       -0.00105900000000
C           -0.64463000000000        3.72298600000000        0.00126900000000
C            7.83459000000000        1.08954500000000       -0.00203300000000
C           -0.61024400000000        6.19736500000000       -0.00082200000000
C            5.74348500000000        2.36289600000000       -0.00012300000000
C           -2.71168100000000        7.43143200000000       -0.00191100000000
C            3.63251200000000        3.63952900000000        0.00142900000000
C            1.51838300000000        4.92637900000000        0.00060500000000
C           -1.46441000000000       -2.44675600000000       -0.00320400000000
C            7.18413200000000        2.32711500000000       -0.00118400000000
C           -1.33815200000000        7.41252500000000       -0.00153100000000
C           -3.57735300000000       -1.17589200000000       -0.00242200000000
C            5.05405600000000        3.60802000000000       -0.00051300000000
C           -5.69468700000000        0.09639300000000        0.00040900000000
C            2.95285400000000        4.89217600000000       -0.00009700000000
C           -7.78976400000000        1.38523700000000        0.00245900000000
C            0.83558500000000        6.16992200000000       -0.00015800000000
C            0.69140400000000       -1.25139100000000       -0.00396200000000
C           -1.42321900000000        0.02382500000000       -0.00429700000000
C            7.25305500000000        4.77781000000000        0.00017700000000
C           -3.53173100000000        1.29688200000000       -0.00195500000000
C            5.12528300000000        6.05558000000000        0.00115700000000
C           -5.63961400000000        2.55765900000000        0.00067700000000
C            2.97753700000000        7.33638600000000        0.00075000000000
C            2.84217700000000       -0.04757100000000       -0.00338600000000
C           -5.62608300000000        5.02611400000000        0.00015400000000
C            0.73439300000000        1.22597700000000       -0.00402500000000
C           -7.76545700000000        6.21016700000000        0.00004600000000
C           -1.37729100000000        2.49588500000000       -0.00274500000000
C            7.25141900000000        7.20534000000000        0.00192800000000
C           -3.50172300000000        3.76348500000000       -0.00075600000000
C            5.00901000000000        1.14801200000000       -0.00190400000000
C           -3.47363300000000        6.24009000000000       -0.00105800000000
C            2.89281200000000        2.41834400000000       -0.00242300000000
C           -5.68281100000000        7.46081600000000       -0.00141900000000
C            0.77484900000000        3.69677600000000       -0.00169700000000
C           -1.34207500000000        4.97820800000000       -0.00087900000000
H           -3.49698400000000       -8.28918400000000       -0.00230100000000
H            0.81685500000000       -8.36169700000000        0.00156300000000
H            5.18843100000000       -8.42440300000000        0.00360900000000
H           -5.41108200000000       -8.10855200000000       -0.00372000000000
H           -1.11808100000000       -8.32826200000000       -0.00213900000000
H            3.20956600000000       -8.39370100000000        0.00186200000000
H            8.85176200000000       -6.19275700000000        0.00115000000000
H            8.87659400000000       -1.41114700000000       -0.00197700000000
H            7.63010000000000       -8.35390500000000        0.00318700000000
H           -7.71990300000000       -8.18187800000000       -0.00272300000000
H           -9.03131400000000       -6.06541600000000       -0.00064000000000
H           -8.98664400000000       -3.53384400000000        0.00117300000000
H           -8.92196700000000       -1.06624900000000        0.00245500000000
H            1.11808100000000        8.32826200000000        0.00020300000000
H            8.98664400000000        3.53384500000000       -0.00098200000000
H            9.03131300000000        6.06541700000000        0.00067600000000
H            5.41108000000000        8.10855100000000        0.00374700000000
H           -7.63010000000000        8.35390600000000       -0.00143100000000
H            8.92196700000000        1.06624900000000       -0.00205800000000
H           -3.20956600000000        8.39370100000000       -0.00219000000000
H           -0.81685600000000        8.36169700000000       -0.00237100000000
H           -8.87659400000000        1.41114700000000        0.00266600000000
H            3.49698600000000        8.28918300000000        0.00033200000000
H           -8.85176200000000        6.19275700000000        0.00034000000000
H            7.71990100000000        8.18187900000000        0.00267500000000
H           -5.18843200000000        8.42440400000000       -0.00232400000000
N            7.70396400000000       -3.79601200000000       -0.00087300000000
N           -7.70396400000000        3.79601200000000        0.00170500000000
H            8.71577800000000       -3.80672800000000       -0.00074400000000
H           -8.71577800000000        3.80672800000000        0.00179500000000
N            5.87665300000000        7.21401500000000        0.00194800000000
N           -5.87665500000000       -7.21401500000000       -0.00228100000000
132
 energy: -240.984547091682 gnorm: 0.018299980937 xtb: 6.7.1pre (5071a88)
C           -2.97068891114664       -7.30935469732303       -0.00192027497620
C            1.33825705692474       -7.38476097715557        0.00101461943332
C           -0.83254591189969       -6.14962314523133       -0.00058990313396
C            5.67344908512762       -7.43166107015305        0.00248347126589
C            3.46716247228459       -6.21961516944332        0.00122410427936
C            1.33983110494138       -4.96316216631868        0.00036627737853
C           -1.60595175874590       -7.33502896332572       -0.00153129850962
C           -3.68735165969078       -6.09099315577823       -0.00153139548232
C            2.70649072348622       -7.40423596600348        0.00150445212521
C            0.60883686489267       -6.17715361671484        0.00015837426402
C           -1.51517330609987       -4.91127626968638       -0.00075574006549
C            7.74149590179266       -6.19027247665951        0.00121330867397
C            5.61088881060579       -5.01154913887802        0.00055479243458
C            3.49141484987502       -3.75380969247998        0.00047101331853
C            5.62375883763291       -2.55103003947943       -0.00040193929541
C            7.76309430514889       -1.38221327880102       -0.00165551555441
C            7.05224986722288       -7.39706976179643        0.00239069058806
C            4.91779118227704       -6.24408849848526        0.00148100986840
C            2.76857780420343       -4.98836874770133        0.00053918139904
C            0.64341441213155       -3.71342896181080       -0.00045421566613
C            7.02851565895448       -4.99788916926472        0.00036273101348
C            4.89996422650478       -3.76875841450012       -0.00005258624955
C            2.79790050061970       -2.51114178252387       -0.00049449265431
C            7.05225927686011       -2.55994124471662       -0.00102996803288
C            4.94601995067538       -1.31228711683691       -0.00087695121295
C            7.10525584524885       -0.12641470370780       -0.00154423435797
C           -7.23348077570303       -7.18048560621371       -0.00203415202759
C           -5.11320087266394       -6.03724600089894       -0.00151736422643
C           -7.22925244953201       -4.76164654186971       -0.00019969380146
C           -2.94453940840398       -4.87739116803235       -0.00075794901148
C           -5.04161870866417       -3.59705652609085       -0.00002199946588
C           -7.16023178285557       -2.32012825437439        0.00122872359019
C           -0.77338159333076       -3.68714500399193        0.00018685365049
C           -2.88568334963738       -2.41201570962321        0.00043358641573
C           -4.99564858061078       -1.14441821952189        0.00095770103972
C           -7.10525526998366        0.12641465911640        0.00187540476297
C           -7.92366027163940       -6.02429669047542       -0.00090441459650
C           -5.78532296957630       -4.81043955225265       -0.00069376821879
C           -7.87291354308852       -3.55119048831685        0.00085847162532
C           -3.62348196567705       -3.63007407124832       -0.00082332380685
C           -5.72758741944743       -2.35582905985475        0.00039122596578
C           -7.80850049229119       -1.08671541811243        0.00198580035122
C            1.37364586674887       -2.48993293646707        0.00067070926677
C           -7.05225916033347        2.55994115097239        0.00161288175161
C            1.60595211533554        7.33502917853206        0.00014438169246
C           -0.73271184920133       -1.22294429743221        0.00085442530646
C            7.87291352338919        3.55119063432330       -0.00078815310703
C           -2.83564125412475        0.04742648058645        0.00094950933777
C            5.78532285855093        4.81043956327526        0.00043558633463
C           -4.94601988839804        1.31228712184214        0.00108227221773
C            3.68735155516235        6.09099310626514        0.00077123928035
C            3.52209123918252       -1.29365525577639        0.00035072295881
C           -4.89996418317817        3.76875840768043        0.00041474671375
C            1.41937123214682       -0.02373149271844        0.00101414987034
C           -7.02851565928633        4.99788916508179        0.00053396054321
C           -0.68946272370865        1.24815843394832        0.00086219900154
C            7.92365953652994        6.02429738479788        0.00083684659512
C           -2.79790015970257        2.51114180782505        0.00052996325752
C            5.67833139155284       -0.09679606499103       -0.00067580866676
C           -2.76857790281923        4.98836870729354       -0.00051356621420
C            3.56865337201663        1.17251142962189        0.00039842316712
C           -4.91779127653030        6.24408855300246       -0.00087869505595
C            1.46141382996885        2.44097153249233        0.00072082504820
C           -7.05224999475811        7.39707002796655       -0.00100480606057
C           -0.64341407005441        3.71342894754196        0.00021076739884
C            7.80850059248727        1.08671543515156       -0.00170301904220
C           -0.60883691423490        6.17715351716636       -0.00072376895867
C            5.72758745242103        2.35582902400736       -0.00042715716702
C           -2.70649089154992        7.40423589911182       -0.00173076048019
C            3.62348190645496        3.63007405197366        0.00052056559535
C            1.51517322009320        4.91127620808432        0.00019614210510
C           -1.46141386197827       -2.44097166498491       -0.00094204491007
C            7.16023182732164        2.32012832955563       -0.00112759782497
C           -1.33825720945375        7.38476087104146       -0.00158544661849
C           -3.56865371072624       -1.17251150362433       -0.00047074403761
C            5.04161859878988        3.59705656315599       -0.00019849478856
C           -5.67833130102577        0.09679603613991        0.00086141028769
C            2.94453931651135        4.87739111919082        0.00021943300729
C           -7.76309417830740        1.38221318222708        0.00219894740529
C            0.83254582291537        6.14962307147227       -0.00023311141073
C            0.68946264022293       -1.24815847929631       -0.00098321123826
C           -1.41937120550622        0.02373140069903       -0.00111536006045
C            7.22925230622731        4.76164670232014        0.00011360604125
C           -3.52209117366121        1.29365516560018       -0.00028435233812
C            5.11320028306255        6.03724603637907        0.00106870387333
C           -5.62375875642185        2.55102998340298        0.00078203863852
C            2.97068882128007        7.30935485858167        0.00056753176954
C            2.83564124840110       -0.04742648294317       -0.00099145925129
C           -5.61088878497261        5.01154918213794        0.00004771944902
C            0.73271186625442        1.22294428474613       -0.00100284453171
C           -7.74149557117112        6.19027262511436        0.00004537755805
C           -1.37364592683614        2.48993248378620       -0.00077600190270
C            7.23348002013366        7.18048622670146        0.00190575702842
C           -3.49141488996589        3.75380966847148       -0.00031207734447
C            4.99564872907695        1.14441818709196       -0.00094000555639
C           -3.46716262972520        6.21961514049401       -0.00107892493663
C            2.88568332032461        2.41201529888264       -0.00063056895476
C           -5.67344922501598        7.43166170368724       -0.00141350599766
C            0.77338148098229        3.68714501951457       -0.00051955954271
C           -1.33983117446016        4.96316209084788       -0.00063153446254
H           -3.49153040346189       -8.25944859233320       -0.00242080247585
H            0.82125752969982       -8.33294774794280        0.00142781128359
H            5.18637935769644       -8.39459292655157        0.00350608601520
H           -5.39748819074958       -8.08564306710585       -0.00361444867552
H           -1.11982541127361       -8.29906464797390       -0.00201372112794
H            3.20195099082863       -8.36445284215201        0.00196487848908
H            8.82415679092797       -6.17717790799261        0.00112327142877
H            8.84666153802895       -1.40684393780098       -0.00203115085003
H            7.61169994837457       -8.32475802403760        0.00317646823584
H           -7.70652205685106       -8.15286818752123       -0.00269624866335
H           -9.00400352173557       -6.04190578657213       -0.00064452557901
H           -8.95613750447577       -3.52409617603928        0.00122582918373
H           -8.89236837829336       -1.06418955916912        0.00255527435277
H            1.11982518589664        8.29906476082725        0.00011029775244
H            8.95613753620811        3.52409685682084       -0.00103509316319
H            9.00400282640823        6.04190655839157        0.00067829961209
H            5.39748698300123        8.08564255560823        0.00358765918091
H           -7.61169962593742        8.32475902677293       -0.00143724137963
H            8.89236857209640        1.06418958400007       -0.00216053609232
H           -3.20195122421955        8.36445270004421       -0.00225526245073
H           -0.82125820099095        8.33294769545182       -0.00223836763762
H           -8.84666132018646        1.40684374650272        0.00271722790605
H            3.49153154904253        8.25944828197383        0.00051759779361
H           -8.82415675239302        6.17717806839042        0.00035613341439
H            7.70652050737264        8.15286896869588        0.00263927781310
H           -5.18637995374792        8.39459371341916       -0.00226372577465
N            7.68238083975108       -3.78670848525687       -0.00083262433961
N           -7.68238071941241        3.78670840608661        0.00166225856276
H            8.69351731709998       -3.79862001267242       -0.00072902751104
H           -8.69351719582681        3.79861993985590        0.00177115014161
N            5.86417278393207        7.19243635173268        0.00191754451891
N           -5.86417397996964       -7.19243625846834       -0.00225016510239
132
 energy: -240.988889030955 gnorm: 0.005992252639 xtb: 6.7.1pre (5071a88)
C           -2.96150788990577       -7.28703938668303       -0.00190054286918
C            1.33419713063996       -7.36175743426637        0.00099417916612
C           -0.82885458045384       -6.13040223369222       -0.00062459820114
C            5.65764545633148       -7.40656451040379        0.00245968930576
C            3.45796830654683       -6.20003542655913        0.00121009889018
C            1.33620994738794       -4.94719206340159        0.00019167158231
C           -1.59974933214599       -7.31212098868526       -0.00149720364902
C           -3.67785189921789       -6.07192832189947       -0.00144920692796
C            2.69990664561911       -7.38160501975563        0.00148160125292
C            0.60675031902033       -6.15805176055589        0.00017763298417
C           -1.51057778763593       -4.89543798260688       -0.00053934676699
C            7.71974716806348       -6.16942147390793        0.00122199157990
C            5.59468947517269       -4.99518449329199        0.00058320684810
C            3.47959534551950       -3.74214612161618        0.00017750939289
C            5.60736348900473       -2.54277019788261       -0.00053977382936
C            7.73988849622678       -1.37780897351832       -0.00154215379761
C            7.03334519674086       -7.37401080200419        0.00234624103030
C            4.90228127001073       -6.22370868080754        0.00144154470129
C            2.75951882148800       -4.97247148054645        0.00059431874193
C            0.64191040127169       -3.70205165448696        0.00007525023902
C            7.00863426651871       -4.97954635571472        0.00034761663249
C            4.88480027608483       -3.75695693953385        0.00006591172431
C            2.78840560742343       -2.50325972703280        0.00013987410007
C            7.03157740150656       -2.55255703594825       -0.00096869705343
C            4.92999160477755       -1.30817026703689       -0.00049029851075
C            7.08346849083045       -0.12587614579553       -0.00143629144442
C           -7.21307289129071       -7.15767797098942       -0.00200688652805
C           -5.09821793851912       -6.01944285137346       -0.00149304952148
C           -7.20594978587148       -4.74399189018951       -0.00019632123247
C           -2.93449767810931       -4.86196388801892       -0.00089646540122
C           -5.02658751096323       -3.58486711054824       -0.00021278866295
C           -7.13721750136222       -2.31129191990681        0.00114809504347
C           -0.77146195280849       -3.67575432128770       -0.00038837275840
C           -2.87625158089736       -2.40425745648802       -0.00034669402002
C           -4.97974734393457       -1.14009650539022        0.00052801976726
C           -7.08346833281929        0.12587608396569        0.00176552212916
C           -7.90127140627496       -6.00343444049115       -0.00091052396097
C           -5.76730371207116       -4.79434372999467       -0.00062395601927
C           -7.84926746238782       -3.53794784148075        0.00078542756075
C           -3.61180179392713       -3.61901297523921       -0.00031765424782
C           -5.71037760121768       -2.34756883985372        0.00059635393072
C           -7.78581799082804       -1.08244938074972        0.00190013234148
C            1.36911869951532       -2.48236204450749       -0.00024118919143
C           -7.03157724248012        2.55255694946254        0.00154919290263
C            1.59974940549891        7.31212127401873        0.00012464462733
C           -0.73030164657025       -1.21880306990855       -0.00040920452596
C            7.84926746801508        3.53794799968905       -0.00071224085340
C           -2.82706231348964        0.04734325892400       -0.00010747817265
C            5.76730355014182        4.79434377083010        0.00037090408619
C           -4.92999153152679        1.30817024431285        0.00069486171740
C            3.67785170911311        6.07192831168574        0.00071063842424
C            3.51086018614955       -1.28947737946575       -0.00042779954075
C           -4.88480028286328        3.75695694081229        0.00029468466699
C            1.41438411069944       -0.02368742016168       -0.00042278402421
C           -7.00863425869824        4.97954641950278        0.00054756876454
C           -0.68705819899095        1.24389992282318       -0.00035379900470
C            7.90127099778913        6.00343478882749        0.00084358135333
C           -2.78840569456900        2.50325972313396       -0.00010623206444
C            5.66112297654086       -0.09697377081236       -0.00096417677543
C           -2.75951896655773        4.97247143120870       -0.00057202491447
C            3.55755762207770        1.16829249279590       -0.00047013148463
C           -4.90228147371455        6.22370880183158       -0.00084700402438
C            1.45700425124213        2.43354418797538       -0.00026828441245
C           -7.03334541580464        7.37401125659440       -0.00097699362894
C           -0.64191051615829        3.70205163367776       -0.00031925004592
C            7.78581814326236        1.08244935625878       -0.00161859335089
C           -0.60675040056136        6.15805165700448       -0.00074848817948
C            5.71037762326292        2.34756880567921       -0.00063173349771
C           -2.69990696318162        7.38160487907925       -0.00169072050390
C            3.61180169488196        3.61901295839238        0.00001849084697
C            1.51057766001719        4.89543796508100       -0.00001897996026
C           -1.45700429201877       -2.43354429411106        0.00004856958201
C            7.13721756966166        2.31129200050831       -0.00104713780925
C           -1.33419740265327        7.36175726634221       -0.00156088739206
C           -3.55755755586566       -1.16829256329280        0.00039716336310
C            5.02658738177003        3.58486715783571       -0.00000458250551
C           -5.66112287887745        0.09697372191306        0.00114726996601
C            2.93449752840336        4.86196385407809        0.00036346908355
C           -7.73988829760824        1.37780885290466        0.00208355423111
C            0.82885454190564        6.13040222617183       -0.00020122769496
C            0.68705813579984       -1.24389997851553        0.00023266795290
C           -1.41438411312576        0.02368732603670        0.00032112603824
C            7.20594960901214        4.74399210432314        0.00011279520718
C           -3.51086015079637        1.28947729107968        0.00049213493397
C            5.09821765911520        6.01944293669889        0.00104781075866
C           -5.60736341062138        2.54277013560696        0.00091700063306
C            2.96150790000019        7.28703968618013        0.00058079313873
C            2.82706231376948       -0.04734329266330        0.00006545082354
C           -5.59468950809250        4.99518455694019        0.00001883615033
C            0.73030165475938        1.21880301667088        0.00026147404453
C           -7.71974728720037        6.16942174142048        0.00003302095448
C           -1.36911878212527        2.48236201863973        0.00013458167578
C            7.21307232333986        7.15767825908936        0.00187443305370
C           -3.47959542327019        3.74214609030871       -0.00002192179305
C            4.97974745955527        1.14009645530640       -0.00050996037985
C           -3.45796855069653        6.20003537802127       -0.00106133898523
C            2.87625153481038        2.40425745351555        0.00015080712785
C           -5.65764573049716        7.40656485475946       -0.00141467447661
C            0.77146182685406        3.67575429606281        0.00005638479874
C           -1.33621004485214        4.94719197809598       -0.00045770405900
H           -3.48472701235639       -8.23420700368204       -0.00251627814161
H            0.81770563734790       -8.30837975840891        0.00129127746710
H            5.17241959136389       -8.36852770898673        0.00336518660029
H           -5.37674409750765       -8.06285990696063       -0.00346030745318
H           -1.11320204560601       -8.27418860563047       -0.00190312167091
H            3.19566557447921       -8.33950749373442        0.00205185352177
H            8.80038005463454       -6.15668817047910        0.00107134854266
H            8.82135828472563       -1.40087211538190       -0.00200342033752
H            7.59161344214389       -8.29950483374186        0.00314860635636
H           -7.69049465295778       -8.12648328958274       -0.00267671150881
H           -8.97917162572890       -6.01398422118540       -0.00062526479302
H           -8.92997664065814       -3.51013257197784        0.00122472719195
H           -8.86725985124371       -1.06034044517541        0.00248286755070
H            1.11320211342360        8.27418890897717        0.00003224986084
H            8.92997670004609        3.51013281353663       -0.00103148118350
H            8.97917125888767        6.01398468936024        0.00066510477658
H            5.37674340610411        8.06285978463055        0.00335013950144