132
 energy: -240.989333190055 gnorm: 0.000640467039 xtb: 6.7.1pre (5071a88)
C           -2.95628525996471       -7.28193504331543       -0.00187119467997
C            1.33056823356996       -7.35684534891099        0.00091312325243
C           -0.82713842310025       -6.12422315597018       -0.00057357503298
C            5.64694561630624       -7.39942743810473        0.00226184955587
C            3.45146351680335       -6.19338506266465        0.00112664144901
C            1.33358646577880       -4.94100032590398        0.00018119638377
C           -1.59520251422259       -7.30734206569315       -0.00143196604203
C           -3.67019231754465       -6.06537563056448       -0.00136757097709
C            2.69570359763281       -7.37638593278434        0.00144999823059
C            0.60588934182268       -6.15197607698967        0.00013852744046
C           -1.50717349118039       -4.88929010344998       -0.00051095989444
C            7.71005443528702       -6.16192213568152        0.00118195846395
C            5.58630964315657       -4.98767593683265        0.00055104496727
C            3.47367360075790       -3.73682885424899        0.00015260594111
C            5.60007882396944       -2.53885761595847       -0.00048101111490
C            7.73315031658140       -1.37543375571972       -0.00133396733646
C            7.02307966390245       -7.36680285377278        0.00219732596931
C            4.89389458563150       -6.21572547399606        0.00135290090403
C            2.75467696544550       -4.96598843872071        0.00048956757436
C            0.64115588766914       -3.69705279911111       -0.00009751926784
C            6.99950227249012       -4.97197689870305        0.00038866063265
C            4.87739713709319       -3.75107194421106        0.00002027798487
C            2.78368816568353       -2.49959506363556       -0.00014968978822
C            7.02332477251418       -2.54870543105663       -0.00081724024701
C            4.92272570690987       -1.30616647269632       -0.00061827150068
C            7.07510002545029       -0.12607063153968       -0.00127163283644
C           -7.20122429045701       -7.14968255249204       -0.00190175245871
C           -5.08886877853894       -6.01144423140120       -0.00139780306568
C           -7.19504351958050       -4.73662178532985       -0.00021563725155
C           -2.92877505731686       -4.85557170733887       -0.00072901212819
C           -5.01770781073562       -3.57872381477810       -0.00007271575838
C           -7.12795048340499       -2.30704710319088        0.00103813050691
C           -0.77002325968161       -3.67066719470658       -0.00017107861886
C           -2.87071648850153       -2.40037018785968        0.00002607288033
C           -4.97165191028567       -1.13767603270129        0.00069427331169
C           -7.07509994314533        0.12607051558007        0.00160719823692
C           -7.88987271393316       -5.99492038778687       -0.00089328701172
C           -5.75770532552380       -4.78659342132014       -0.00056870571050
C           -7.84069306979356       -3.53155967235111        0.00068965086676
C           -3.60466720281016       -3.61347536054633       -0.00030463028072
C           -5.70196464533032       -2.34335778779511        0.00055690658780
C           -7.77873338630421       -1.07997901078776        0.00168702689239
C            1.36671790537289       -2.47879587995634       -0.00006105128940
C           -7.02332473080164        2.54870535084477        0.00140270718600
C            1.59520263042842        7.30734236112134        0.00014529902602
C           -0.72886017211977       -1.21665631945039        0.00000979054740
C            7.84069312419241        3.53155959114682       -0.00059819326193
C           -2.82228335578967        0.04754215489313        0.00032543515343
C            5.75770529778868        4.78659346590874        0.00031848796881
C           -4.92272571649883        1.30616644376477        0.00082112733068
C            3.67019227800597        6.06537581581511        0.00064054165284
C            3.50536489443881       -1.28752690078713       -0.00032721596093
C           -4.87739722708898        3.75107195026717        0.00033669766037
C            1.41169946635124       -0.02376721819918       -0.00012592264287
C           -6.99950237911826        4.97197694754826        0.00050283109080
C           -0.68594823976415        1.24190788585860        0.00002805186879
C            7.88987263838784        5.99492042785436        0.00083608468574
C           -2.78368822019355        2.49959510204980        0.00017032643989
C            5.65348843339495       -0.09703758059587       -0.00086065593254
C           -2.75467714855517        4.96598847103859       -0.00047721855691
C            3.55145041232441        1.16609440837594       -0.00036545674276
C           -4.89389490045516        6.21572557808630       -0.00078220467001
C            1.45393756821117        2.42987870226525       -0.00010512149867
C           -7.02308005343728        7.36680316208140       -0.00088196772724
C           -0.64115596181102        3.69705286266370       -0.00016000172692
C            7.77873348032504        1.07997887374987       -0.00139414555436
C           -0.60588948765453        6.15197611308399       -0.00069951272533
C            5.70196465233641        2.34335776053002       -0.00058497646179
C           -2.69570400985031        7.37638588857166       -0.00161649570106
C            3.60466715774405        3.61347541931699       -0.00000089895055
C            1.50717342820597        4.88929021818370       -0.00004912879700
C           -1.45393762754907       -2.42987862238287       -0.00012855342268
C            7.12795053402882        2.30704701720209       -0.00092407083923
C           -1.33056855877030        7.35684529522137       -0.00144407107379
C           -3.55145046180153       -1.16609438038890        0.00028771057377
C            5.01770778636155        3.57872384056549       -0.00013947675567
C           -5.65348841335581        0.09703752738005        0.00104679121428
C            2.92877499819182        4.85557182910020        0.00019429808966
C           -7.73315022051483        1.37543362597387        0.00188165698508
C            0.82713838859851        6.12422329085478       -0.00023091794068
C            0.68594818519499       -1.24190781305839       -0.00016203042598
C           -1.41169952399414        0.02376728736221        0.00001291003616
C            7.19504352339306        4.73662178082898        0.00014428048083
C           -3.50536494335136        1.28752692321682        0.00038439143469
C            5.08886869087276        6.01144435563265        0.00093852653251
C           -5.60007884245683        2.53885758569137        0.00086003731730
C            2.95628534706870        7.28193538503982        0.00063634195686
C            2.82228332491733       -0.04754212343119       -0.00037552554716
C           -5.58630981187352        4.98767597904655        0.00004291593624
C            0.72886011487352        1.21665638989043       -0.00017075031633
C           -7.71005463859274        6.16192230119856        0.00006295410870
C           -1.36671797999177        2.47879593241052       -0.00005977678188
C            7.20122412704502        7.14968263983913        0.00172679261704
C           -3.47367371788886        3.73682888851449       -0.00000974293440
C            4.97165190335229        1.13767600988160       -0.00067497683358
C           -3.45146383329039        6.19338508666939       -0.00097820281532
C            2.87071644726793        2.40037021799385       -0.00023189582240
C           -5.64694605838569        7.39942771396711       -0.00128587192763
C            0.77002318971758        3.67066728073618       -0.00017419667129
C           -1.33358660213868        4.94100037528773       -0.00045476780623
H           -3.47999445244131       -8.22805090025185       -0.00255678600798
H            0.81258010872478       -8.30193511556917        0.00119990708430
H            5.15772315927852       -8.35909703085085        0.00307158443333
H           -5.35784963361076       -8.05020925293024       -0.00301757517182
H           -1.10634047683296       -8.26751756825742       -0.00184771976948
H            3.19243721546880       -8.33302461875145        0.00206834266501
H            8.79046282491223       -6.14353183786321        0.00106703288960
H            8.81418641688834       -1.39706048677520       -0.00164428239419
H            7.58014264539301       -8.29229589078969        0.00293595563321
H           -7.67946833572404       -8.11741451747794       -0.00254003599121
H           -8.96741642776580       -5.99731330176783       -0.00065853556598
H           -8.92082148217162       -3.50053473851850        0.00102750874327
H           -8.85962483228849       -1.05742150152508        0.00212474869613
H            1.10634076650756        8.26751803843599        0.00011657076290
H            8.92082156723684        3.50053459962755       -0.00080903262221
H            8.96741637342592        5.99731332630822        0.00073268395018
H            5.35784929746196        8.05020931334951        0.00268659416873
H           -7.58014303256529        8.29229641593961       -0.00129667044553
H            8.85962496621871        1.05742131274797       -0.00171883654393
H           -3.19243774218705        8.33302452102123       -0.00221995662208
H           -0.81258058016620        8.30193503810589       -0.00195700314738
H           -8.81418627117269        1.39706033479293        0.00233586138201
H            3.47999468967859        8.22805138916255        0.00089681180414
H           -8.79046299439773        6.14353198757950        0.00041661540949
H            7.67946812248226        8.11741459166817        0.00241064787203
H           -5.15772376896560        8.35909744253184       -0.00201079021576
N            7.65445713636192       -3.76861377488603       -0.00055974964950
N           -7.65445710788835        3.76861370810210        0.00139304819950
H            8.66429155886808       -3.77862353188237       -0.00067643210339
H           -8.66429148808777        3.77862345865343        0.00170535818610
N            5.83642768209775        7.16434570209338        0.00175693030561
N           -5.83642787913798       -7.16434556325666       -0.00213750474458
