      -----------------------------------------------------------      
     |                   =====================                   |     
     |                           x T B                           |     
     |                   =====================                   |     
     |                         S. Grimme                         |     
     |          Mulliken Center for Theoretical Chemistry        |     
     |                    University of Bonn                     |     
      -----------------------------------------------------------      

   * xtb version 6.7.1pre (5071a88) compiled by 'Marcel@Raven' on 2024-07-23

   xtb is free software: you can redistribute it and/or modify it under
   the terms of the GNU Lesser General Public License as published by
   the Free Software Foundation, either version 3 of the License, or
   (at your option) any later version.
   
   xtb is distributed in the hope that it will be useful,
   but WITHOUT ANY WARRANTY; without even the implied warranty of
   MERCHANTABILITY or FITNESS FOR A PARTICULAR PURPOSE.  See the
   GNU Lesser General Public License for more details.
   
   Cite this work as:
   * C. Bannwarth, E. Caldeweyher, S. Ehlert, A. Hansen, P. Pracht,
     J. Seibert, S. Spicher, S. Grimme, WIREs Comput. Mol. Sci., 2020, 11,
     e01493. DOI: 10.1002/wcms.1493
   
   for GFN2-xTB:
   * C. Bannwarth, S. Ehlert and S. Grimme., J. Chem. Theory Comput., 2019,
     15, 1652-1671. DOI: 10.1021/acs.jctc.8b01176
   for GFN1-xTB:
   * S. Grimme, C. Bannwarth, P. Shushkov, J. Chem. Theory Comput., 2017,
     13, 1989-2009. DOI: 10.1021/acs.jctc.7b00118
   for GFN0-xTB:
   * P. Pracht, E. Caldeweyher, S. Ehlert, S. Grimme, ChemRxiv, 2019, preprint.
     DOI: 10.26434/chemrxiv.8326202.v1
   for GFN-FF:
   * S. Spicher and S. Grimme, Angew. Chem. Int. Ed., 2020, 59, 15665-15673.
     DOI: 10.1002/anie.202004239
   
   for ALPB and GBSA implicit solvation:
   * S. Ehlert, M. Stahn, S. Spicher, S. Grimme, J. Chem. Theory Comput.,
     2021, 17, 4250-4261. DOI: 10.1021/acs.jctc.1c00471
   
   for ddCOSMO and CPCM-X implicit solvation:
   * M. Stahn, S. Ehlert, S. Grimme, J. Phys. Chem. A,
     2023, XX, XXXX-XXXX. DOI: 10.1021/acs.jpca.3c04382
   
   for DFT-D4:
   * E. Caldeweyher, C. Bannwarth and S. Grimme, J. Chem. Phys., 2017,
     147, 034112. DOI: 10.1063/1.4993215
   * E. Caldeweyher, S. Ehlert, A. Hansen, H. Neugebauer, S. Spicher,
     C. Bannwarth and S. Grimme, J. Chem. Phys., 2019, 150, 154122.
     DOI: 10.1063/1.5090222
   * E. Caldeweyher, J.-M. Mewes, S. Ehlert and S. Grimme, Phys. Chem. Chem. Phys.
     2020, 22, 8499-8512. DOI: 10.1039/D0CP00502A
   
   for sTDA-xTB:
   * S. Grimme and C. Bannwarth, J. Chem. Phys., 2016, 145, 054103.
     DOI: 10.1063/1.4959605
   
   in the mass-spec context:
   * V. Asgeirsson, C. Bauer and S. Grimme, Chem. Sci., 2017, 8, 4879.
     DOI: 10.1039/c7sc00601b
   * J. Koopman and S. Grimme, ACS Omega 2019, 4, 12, 15120-15133.
     DOI: 10.1021/acsomega.9b02011
   
   for metadynamics refer to:
   * S. Grimme, J. Chem. Theory Comput., 2019, 155, 2847-2862
     DOI: 10.1021/acs.jctc.9b00143
   
   for SPH calculations refer to:
   * S. Spicher and S. Grimme, J. Chem. Theory Comput., 2021, 17, 1701-1714
     DOI: 10.1021/acs.jctc.0c01306
   
   for ONIOM refer to:
   * C. Plett, A. Katbashev, S. Ehlert, S. Grimme, M. Bursch,
     Phys. Chem. Chem. Phys., 2023, 25, 17860-17868. DOI: 10.1039/D3CP02178E
   
   for DIPRO refer to:
   * J. Kohn, N. Gildemeister, S. Grimme, D. Fazzi, A. Hansen,
     J. Chem. Phys., 2023, just accepted.
   
   for PTB refer to:
   * S. Grimme, M. Mueller, A. Hansen, J. Chem. Phys., 2023, 158, 124111.
     DOI: 10.1063/5.0137838
   
   with help from (in alphabetical order)
   P. Atkinson, C. Bannwarth, F. Bohle, G. Brandenburg, E. Caldeweyher
   M. Checinski, S. Dohm, S. Ehlert, S. Ehrlich, I. Gerasimov, C. Hölzer
   A. Katbashev, J. Kohn, J. Koopman, C. Lavigne, S. Lehtola, F. März, M. Müller,
   F. Musil, H. Neugebauer, J. Pisarek, C. Plett, P. Pracht, F. Pultar,
   J. Seibert, P. Shushkov, S. Spicher, M. Stahn, M. Steiner, T. Strunk,
   J. Stückrath, T. Rose, and J. Unsleber
   
 * started run on 2025/12/08 at 00:39:11.753     
   ID    Z sym.   atoms
    1    6 C      1-158
    2    1 H      159-188, 201-206
    3    8 O      189-200

           -------------------------------------------------
          |                Calculation Setup                |
           -------------------------------------------------

          program call               : xtb "C:\Users\LENOVO GAMING\Documents\GitHub\molecular-conductivity-sim\results\2nm-12Odoped-7percent\xtbopt.xyz" --sp
          coordinate file            : C:\Users\LENOVO GAMING\Documents\GitHub\molecular-conductivity-sim\results\2nm-12Odoped-7percent\xtbopt.xyz
          omp threads                :                    16


           -------------------------------------------------
          |                 G F N 2 - x T B                 |
           -------------------------------------------------

        Reference                      10.1021/acs.jctc.8b01176
      * Hamiltonian:
        H0-scaling (s, p, d)           1.850000    2.230000    2.230000
        zeta-weighting                 0.500000
      * Dispersion:
        s8                             2.700000
        a1                             0.520000
        a2                             5.000000
        s9                             5.000000
      * Repulsion:
        kExp                           1.500000    1.000000
        rExp                           1.000000
      * Coulomb:
        alpha                          2.000000
        third order                    shell-resolved
        anisotropic                    true
        a3                             3.000000
        a5                             4.000000
        cn-shift                       1.200000
        cn-exp                         4.000000
        max-rad                        5.000000

q/qsh data taken from xtbrestart
CAMM data taken from xtbrestart

          ...................................................
          :                      SETUP                      :
          :.................................................:
          :  # basis functions                 716          :
          :  # atomic orbitals                 716          :
          :  # shells                          376          :
          :  # electrons                       740          :
          :  max. iterations                   250          :
          :  Hamiltonian                  GFN2-xTB          :
          :  restarted?                       true          :
          :  GBSA solvation                  false          :
          :  PC potential                    false          :
          :  electronic temp.          300.0000000     K    :
          :  accuracy                    1.0000000          :
          :  -> integral cutoff          0.2500000E+02      :
          :  -> integral neglect         0.1000000E-07      :
          :  -> SCF convergence          0.1000000E-05 Eh   :
          :  -> wf. convergence          0.1000000E-03 e    :
          :  Broyden damping             0.4000000          :
          :  net charge                          0          :
          :  unpaired electrons                  0          :
          ...................................................

 iter      E             dE          RMSdq      gap      omega  full diag
   1   -413.3485254 -0.413349E+03  0.282E-05    0.23       0.0  T
   2   -413.3485254  0.310348E-08  0.863E-05    0.23      80.7  T
   3   -413.3485254 -0.326435E-08  0.167E-05    0.23     416.7  T

   *** convergence criteria satisfied after 3 iterations ***

         #    Occupation            Energy/Eh            Energy/eV
      -------------------------------------------------------------
         1        2.0000           -0.7660018             -20.8440
       ...           ...                  ...                  ...
       364        2.0000           -0.3547465              -9.6531
       365        2.0000           -0.3520075              -9.5786
       366        2.0000           -0.3407592              -9.2725
       367        2.0000           -0.3318821              -9.0310
       368        1.9999           -0.3280509              -8.9267
       369        1.9986           -0.3253481              -8.8532
       370        1.9777           -0.3227086              -8.7813 (HOMO)
       371        0.0237           -0.3142456              -8.5511 (LUMO)
       372        0.0000           -0.3046439              -8.2898
       373                         -0.3021351              -8.2215
       374                         -0.3002420              -8.1700
       375                         -0.2946876              -8.0189
       ...                                ...                  ...
       716                          0.7700810              20.9550
      -------------------------------------------------------------
                  HL-Gap            0.0084630 Eh            0.2303 eV
             Fermi-level           -0.3184462 Eh           -8.6654 eV

 SCC (total)                   0 d,  0 h,  0 min,  0.668 sec
 SCC setup                      ...        0 min,  0.004 sec (  0.599%)
 Dispersion                     ...        0 min,  0.022 sec (  3.293%)
 classical contributions        ...        0 min,  0.000 sec (  0.000%)
 integral evaluation            ...        0 min,  0.051 sec (  7.635%)
 iterations                     ...        0 min,  0.393 sec ( 58.832%)
 molecular gradient             ...        0 min,  0.187 sec ( 27.994%)
 printout                       ...        0 min,  0.011 sec (  1.647%)

         :::::::::::::::::::::::::::::::::::::::::::::::::::::
         ::                     SUMMARY                     ::
         :::::::::::::::::::::::::::::::::::::::::::::::::::::
         :: total energy            -406.330445790088 Eh    ::
         :: gradient norm              0.000575754923 Eh/a0 ::
         :: HOMO-LUMO gap              0.230291182893 eV    ::
         ::.................................................::
         :: SCC energy              -413.361222453660 Eh    ::
         :: -> isotropic ES            0.129483645790 Eh    ::
         :: -> anisotropic ES          0.016239176296 Eh    ::
         :: -> anisotropic XC          0.097310915687 Eh    ::
         :: -> dispersion             -0.483370907476 Eh    ::
         :: repulsion energy           7.030776663572 Eh    ::
         :: add. restraining           0.000000000000 Eh    ::
         :: total charge              -0.000000000000 e     ::
         :::::::::::::::::::::::::::::::::::::::::::::::::::::

           -------------------------------------------------
          |                Property Printout                |
           -------------------------------------------------

    * Orbital Energies and Occupations

         #    Occupation            Energy/Eh            Energy/eV
      -------------------------------------------------------------
         1        2.0000           -0.7660018             -20.8440
       ...           ...                  ...                  ...
       358        2.0000           -0.3751098             -10.2073
       359        2.0000           -0.3705692             -10.0837
       360        2.0000           -0.3678735             -10.0103
       361        2.0000           -0.3650912              -9.9346
       362        2.0000           -0.3617194              -9.8429
       363        2.0000           -0.3596230              -9.7858
       364        2.0000           -0.3547465              -9.6531
       365        2.0000           -0.3520075              -9.5786
       366        2.0000           -0.3407592              -9.2725
       367        2.0000           -0.3318821              -9.0310
       368        1.9999           -0.3280509              -8.9267
       369        1.9986           -0.3253481              -8.8532
       370        1.9777           -0.3227086              -8.7813 (HOMO)
       371        0.0237           -0.3142456              -8.5511 (LUMO)
       372        0.0000           -0.3046439              -8.2898
       373                         -0.3021351              -8.2215
       374                         -0.3002420              -8.1700
       375                         -0.2946876              -8.0189
       376                         -0.2839417              -7.7264
       377                         -0.2825592              -7.6888
       378                         -0.2755750              -7.4988
       379                         -0.2714237              -7.3858
       380                         -0.2677013              -7.2845
       381                         -0.2640040              -7.1839
       ...                                ...                  ...
       716                          0.7700810              20.9550
      -------------------------------------------------------------
                  HL-Gap            0.0084630 Eh            0.2303 eV
             Fermi-level           -0.3184462 Eh           -8.6654 eV

     #   Z          covCN         q      C6AA      α(0)
     1   6 C        2.915    -0.061    29.529     8.911
     2   6 C        2.918    -0.029    28.724     8.789
     3   6 C        2.917    -0.046    29.145     8.853
     4   6 C        2.981     0.003    27.952     8.672
     5   6 C        2.881     0.140    24.944     8.188
     6   6 C        2.996    -0.019    28.468     8.752
     7   6 C        2.996     0.007    27.855     8.658
     8   6 C        2.914    -0.072    29.791     8.950
     9   6 C        2.877     0.138    24.980     8.193
    10   6 C        2.992    -0.018    28.438     8.748
    11   6 C        2.997    -0.003    28.078     8.692
    12   6 C        2.907    -0.072    29.803     8.952
    13   6 C        2.980     0.021    27.523     8.606
    14   6 C        2.993    -0.020    28.490     8.756
    15   6 C        2.872     0.128    25.193     8.228
    16   6 C        2.898    -0.098    30.473     9.051
    17   6 C        2.850     0.145    24.846     8.169
    18   6 C        2.929    -0.020    28.511     8.757
    19   6 C        2.849     0.147    24.803     8.162
    20   6 C        2.984    -0.013    28.327     8.730
    21   6 C        3.010     0.008    27.821     8.652
    22   6 C        2.916    -0.070    29.745     8.943
    23   6 C        2.861     0.138    24.994     8.195
    24   6 C        2.997    -0.017    28.432     8.747
    25   6 C        2.992    -0.003    28.085     8.693
    26   6 C        2.919    -0.041    29.029     8.835
    27   6 C        2.979     0.015    27.666     8.628
    28   6 C        2.999    -0.005    28.145     8.702
    29   6 C        2.972    -0.004    28.121     8.698
    30   6 C        2.913    -0.028    28.707     8.786
    31   6 C        2.917    -0.041    29.013     8.833
    32   6 C        2.973    -0.017    28.435     8.747
    33   6 C        2.918    -0.032    28.804     8.801
    34   6 C        2.904    -0.050    29.232     8.865
    35   6 C        2.858     0.122    25.316     8.247
    36   6 C        2.967    -0.021    28.518     8.760
    37   6 C        2.874     0.137    25.007     8.198
    38   6 C        2.929    -0.016    28.421     8.743
    39   6 C        2.991    -0.003    28.084     8.693
    40   6 C        2.975     0.006    27.894     8.663
    41   6 C        2.984     0.005    27.910     8.666
    42   6 C        3.001    -0.004    28.111     8.697
    43   6 C        2.973    -0.023    28.578     8.769
    44   6 C        2.993     0.000    28.013     8.682
    45   6 C        2.998    -0.003    28.098     8.695
    46   6 C        2.992    -0.018    28.441     8.748
    47   6 C        2.991     0.009    27.801     8.649
    48   6 C        2.979    -0.001    28.057     8.689
    49   6 C        3.001     0.007    27.840     8.655
    50   6 C        2.992    -0.018    28.449     8.749
    51   6 C        3.005    -0.004    28.098     8.695
    52   6 C        3.008     0.002    27.965     8.675
    53   6 C        3.004    -0.002    28.065     8.690
    54   6 C        2.996    -0.007    28.184     8.709
    55   6 C        2.997    -0.006    28.159     8.705
    56   6 C        2.999     0.003    27.949     8.672
    57   6 C        3.004     0.002    27.957     8.673
    58   6 C        2.981     0.005    27.915     8.667
    59   6 C        2.891     0.101    25.762     8.322
    60   6 C        2.981    -0.011    28.279     8.723
    61   6 C        2.986    -0.000    28.031     8.685
    62   6 C        2.952    -0.032    28.790     8.801
    63   6 C        2.831     0.092    25.952     8.348
    64   6 C        2.963    -0.022    28.558     8.765
    65   6 C        2.919    -0.043    29.074     8.842
    66   6 C        2.919    -0.043    29.073     8.842
    67   6 C        2.964    -0.023    28.576     8.768
    68   6 C        2.984     0.004    27.926     8.669
    69   6 C        2.980     0.006    27.886     8.662
    70   6 C        2.980     0.006    27.871     8.660
    71   6 C        2.984     0.006    27.890     8.663
    72   6 C        2.994    -0.003    28.080     8.692
    73   6 C        3.000     0.002    27.968     8.675
    74   6 C        3.001     0.001    27.999     8.680
    75   6 C        2.993    -0.000    28.026     8.684
    76   6 C        2.876     0.126    25.230     8.234
    77   6 C        2.973    -0.014    28.360     8.735
    78   6 C        2.977     0.002    27.975     8.676
    79   6 C        2.984     0.008    27.844     8.656
    80   6 C        2.874     0.131    25.128     8.217
    81   6 C        2.932    -0.018    28.455     8.748
    82   6 C        2.983     0.007    27.849     8.656
    83   6 C        2.998     0.001    27.988     8.678
    84   6 C        2.972    -0.018    28.465     8.751
    85   6 C        2.978     0.000    28.020     8.683
    86   6 C        2.985     0.003    27.944     8.671
    87   6 C        2.930    -0.022    28.565     8.765
    88   6 C        2.981     0.005    27.911     8.666
    89   6 C        2.975     0.004    27.938     8.670
    90   6 C        2.964    -0.023    28.579     8.769
    91   6 C        2.853     0.098    25.815     8.328
    92   6 C        2.862     0.130    25.160     8.222
    93   6 C        2.974    -0.026    28.642     8.779
    94   6 C        2.906    -0.051    29.276     8.872
    95   6 C        2.917    -0.044    29.085     8.844
    96   6 C        2.860     0.125    25.258     8.238
    97   6 C        2.905    -0.050    29.242     8.867
    98   6 C        2.920    -0.030    28.747     8.792
    99   6 C        2.974    -0.016    28.402     8.742
   100   6 C        2.930    -0.017    28.441     8.746
   101   6 C        2.871     0.136    25.025     8.200
   102   6 C        2.968    -0.019    28.482     8.754
   103   6 C        2.999     0.000    28.013     8.682
   104   6 C        2.982     0.006    27.872     8.660
   105   6 C        2.972     0.009    27.818     8.651
   106   6 C        2.988    -0.002    28.070     8.691
   107   6 C        3.002     0.002    27.964     8.674
   108   6 C        2.994     0.001    27.991     8.679
   109   6 C        2.988     0.001    27.991     8.679
   110   6 C        2.976     0.005    27.908     8.666
   111   6 C        3.006    -0.001    28.034     8.685
   112   6 C        3.007    -0.002    28.070     8.691
   113   6 C        2.985     0.009    27.809     8.650
   114   6 C        2.931    -0.019    28.483     8.752
   115   6 C        2.990     0.001    27.992     8.679
   116   6 C        3.001     0.000    28.004     8.681
   117   6 C        2.989     0.005    27.899     8.664
   118   6 C        2.979     0.000    28.018     8.683
   119   6 C        2.989    -0.005    28.133     8.701
   120   6 C        2.987     0.002    27.968     8.675
   121   6 C        2.988     0.002    27.970     8.675
   122   6 C        2.988    -0.007    28.198     8.711
   123   6 C        2.895     0.120    25.366     8.258
   124   6 C        2.987    -0.018    28.447     8.749
   125   6 C        3.000     0.008    27.839     8.655
   126   6 C        2.964    -0.015    28.378     8.738
   127   6 C        2.823     0.089    26.019     8.358
   128   6 C        2.980     0.005    27.911     8.666
   129   6 C        2.920    -0.041    29.026     8.835
   130   6 C        2.914    -0.029    28.732     8.790
   131   6 C        2.922    -0.041    29.008     8.832
   132   6 C        2.990    -0.001    28.049     8.688
   133   6 C        2.996    -0.008    28.211     8.713
   134   6 C        2.985     0.015    27.661     8.627
   135   6 C        2.917    -0.075    29.880     8.964
   136   6 C        2.995     0.010    27.776     8.645
   137   6 C        2.992    -0.015    28.370     8.737
   138   6 C        2.874     0.136    25.030     8.201
   139   6 C        2.971    -0.014    28.355     8.734
   140   6 C        2.994    -0.022    28.547     8.764
   141   6 C        2.876     0.135    25.043     8.204
   142   6 C        2.918    -0.075    29.874     8.963
   143   6 C        2.878     0.116    25.442     8.269
   144   6 C        2.977    -0.000    28.030     8.684
   145   6 C        2.916    -0.077    29.922     8.970
   146   6 C        2.971    -0.017    28.429     8.746
   147   6 C        2.871     0.105    25.678     8.307
   148   6 C        2.866     0.129    25.176     8.225
   149   6 C        2.989    -0.000    28.023     8.684
   150   6 C        2.995    -0.019    28.477     8.754
   151   6 C        2.876     0.132    25.119     8.216
   152   6 C        2.917    -0.070    29.749     8.944
   153   6 C        2.975     0.005    27.917     8.667
   154   6 C        2.994    -0.000    28.023     8.684
   155   6 C        2.985     0.013    27.713     8.635
   156   6 C        2.920    -0.038    28.946     8.823
   157   6 C        2.920    -0.044    29.088     8.844
   158   6 C        2.914    -0.029    28.721     8.788
   159   1 H        0.926     0.050     2.323     2.383
   160   1 H        0.926     0.041     2.433     2.439
   161   1 H        0.926     0.040     2.451     2.448
   162   1 H        0.926     0.051     2.306     2.375
   163   1 H        0.926     0.046     2.365     2.405
   164   1 H        0.926     0.057     2.229     2.334
   165   1 H        0.926     0.048     2.340     2.392
   166   1 H        0.926     0.034     2.531     2.488
   167   1 H        0.926     0.037     2.485     2.465
   168   1 H        0.926     0.045     2.384     2.414
   169   1 H        0.926     0.031     2.579     2.511
   170   1 H        0.926     0.031     2.574     2.509
   171   1 H        0.926     0.045     2.381     2.413
   172   1 H        0.926     0.039     2.465     2.455
   173   1 H        0.926     0.033     2.550     2.497
   174   1 H        0.926     0.031     2.565     2.505
   175   1 H        0.926     0.034     2.529     2.487
   176   1 H        0.926     0.048     2.348     2.396
   177   1 H        0.926     0.057     2.235     2.338
   178   1 H        0.926     0.050     2.314     2.379
   179   1 H        0.926     0.050     2.316     2.380
   180   1 H        0.926     0.037     2.495     2.470
   181   1 H        0.926     0.034     2.533     2.489
   182   1 H        0.926     0.033     2.546     2.495
   183   1 H        0.926     0.036     2.505     2.475
   184   1 H        0.926     0.060     2.196     2.317
   185   1 H        0.926     0.034     2.526     2.485
   186   1 H        0.926     0.042     2.418     2.432
   187   1 H        0.926     0.059     2.215     2.328
   188   1 H        0.926     0.027     2.626     2.534
   189   8 O        1.710    -0.138    16.393     5.467
   190   8 O        1.714    -0.222    17.686     5.678
   191   8 O        1.709    -0.188    17.147     5.591
   192   8 O        1.710    -0.229    17.800     5.696
   193   8 O        1.712    -0.231    17.831     5.701
   194   8 O        1.710    -0.224    17.719     5.683
   195   8 O        1.712    -0.232    17.839     5.703
   196   8 O        1.715    -0.223    17.705     5.681
   197   8 O        1.708    -0.231    17.833     5.702
   198   8 O        1.712    -0.230    17.819     5.699
   199   8 O        1.710    -0.221    17.667     5.675
   200   8 O        1.712    -0.231    17.821     5.700
   201   1 H        0.926     0.038     2.471     2.458
   202   1 H        0.926     0.037     2.485     2.465
   203   1 H        0.926     0.033     2.547     2.496
   204   1 H        0.926     0.036     2.504     2.474
   205   1 H        0.926     0.036     2.498     2.472
   206   1 H        0.926     0.034     2.527     2.486

 Mol. C6AA /au·bohr⁶  :     883593.084172
 Mol. C8AA /au·bohr⁸  :   24054054.433182
 Mol. α(0) /au        :       1524.026988


Wiberg/Mayer (AO) data.
largest (>0.10) Wiberg bond orders for each atom

 ---------------------------------------------------------------------------
     #   Z sym  total        # sym  WBO       # sym  WBO       # sym  WBO
 ---------------------------------------------------------------------------
     1   6 C    3.958 --     5 C    1.415     2 C    1.379   159 H    0.968
     2   6 C    3.973 --     3 C    1.497     1 C    1.379   160 H    0.970
     3   6 C    3.967 --     2 C    1.497     4 C    1.320   161 H    0.964
     4   6 C    3.967 --     3 C    1.320     6 C    1.269    32 C    1.182
     5   6 C    3.919 --     1 C    1.415     6 C    1.261   199 O    1.053
     6   6 C    3.978 --     4 C    1.269     5 C    1.261     7 C    1.212
     7   6 C    3.956 --    36 C    1.311     6 C    1.212    10 C    1.209
     8   6 C    3.943 --     9 C    1.388    13 C    1.355   162 H    0.966
     9   6 C    3.876 --     8 C    1.388    10 C    1.264   199 O    1.057
    10   6 C    3.964 --     9 C    1.264    11 C    1.252     7 C    1.209
    11   6 C    3.964 --    14 C    1.258    10 C    1.252    39 C    1.233
    12   6 C    3.931 --    17 C    1.533    13 C    1.206   163 H    0.966
    13   6 C    3.933 --     8 C    1.355    14 C    1.218    12 C    1.206
    14   6 C    3.966 --    11 C    1.258    15 C    1.258    13 C    1.218
    15   6 C    3.832 --    43 C    1.350    14 C    1.258   198 O    1.030
    16   6 C    3.919 --    19 C    1.528    17 C    1.176   164 H    0.959
    17   6 C    3.886 --    12 C    1.533    16 C    1.176   198 O    1.030
    18   6 C    3.904 --    20 C    1.378    47 C    1.306   201 H    0.965
    19   6 C    3.875 --    16 C    1.528    20 C    1.129   197 O    1.053
    20   6 C    3.941 --    18 C    1.378    21 C    1.236    19 C    1.129
    21   6 C    3.957 --    51 C    1.266    20 C    1.236    24 C    1.229
    22   6 C    3.920 --    23 C    1.485    27 C    1.246   165 H    0.966
    23   6 C    3.916 --    22 C    1.485    24 C    1.210   197 O    1.042
    24   6 C    3.935 --    25 C    1.279    21 C    1.229    23 C    1.210
    25   6 C    3.976 --    24 C    1.279    28 C    1.252    55 C    1.225
    26   6 C    3.899 --    30 C    1.466    27 C    1.311   166 H    0.969
    27   6 C    3.980 --    26 C    1.311    28 C    1.253    22 C    1.246
    28   6 C    3.964 --    27 C    1.253    25 C    1.252    29 C    1.234
    29   6 C    3.977 --    31 C    1.352    28 C    1.234    59 C    1.192
    30   6 C    3.982 --    26 C    1.466    31 C    1.420   182 H    0.970
    31   6 C    3.911 --    30 C    1.420    29 C    1.352   183 H    0.970
    32   6 C    3.961 --    37 C    1.389     4 C    1.182    33 C    1.173
    33   6 C    3.892 --    34 C    1.629    32 C    1.173   167 H    0.963
    34   6 C    3.963 --    33 C    1.629    35 C    1.212   168 H    0.960
    35   6 C    3.799 --    64 C    1.412    34 C    1.212   200 O    1.001
    36   6 C    3.962 --     7 C    1.311    37 C    1.215    40 C    1.178
    37   6 C    3.884 --    32 C    1.389    36 C    1.215   200 O    1.054
    38   6 C    3.879 --    68 C    1.387    41 C    1.294   202 H    0.964
    39   6 C    3.976 --    40 C    1.278    44 C    1.238    11 C    1.233
    40   6 C    3.906 --    39 C    1.278    41 C    1.233    36 C    1.178
    41   6 C    3.954 --    38 C    1.294    40 C    1.233    42 C    1.224
    42   6 C    3.969 --    45 C    1.264    72 C    1.253    41 C    1.224
    43   6 C    3.958 --    15 C    1.350    44 C    1.232    48 C    1.126
    44   6 C    3.947 --    45 C    1.258    39 C    1.238    43 C    1.232
    45   6 C    3.958 --    42 C    1.264    44 C    1.258    46 C    1.214
    46   6 C    3.964 --    76 C    1.365    45 C    1.214    49 C    1.160
    47   6 C    3.944 --    18 C    1.306    52 C    1.254    48 C    1.188
    48   6 C    3.947 --    49 C    1.401    47 C    1.188    43 C    1.126
    49   6 C    3.958 --    48 C    1.401    50 C    1.178    46 C    1.160
    50   6 C    3.964 --    80 C    1.296    53 C    1.265    49 C    1.178
    51   6 C    3.972 --    21 C    1.266    52 C    1.254    56 C    1.223
    52   6 C    3.968 --    47 C    1.254    51 C    1.254    53 C    1.231
    53   6 C    3.951 --    50 C    1.265    54 C    1.239    52 C    1.231
    54   6 C    3.971 --    57 C    1.255    83 C    1.251    53 C    1.239
    55   6 C    3.949 --    56 C    1.280    25 C    1.225    60 C    1.220
    56   6 C    3.974 --    55 C    1.280    57 C    1.246    51 C    1.223
    57   6 C    3.955 --    54 C    1.255    56 C    1.246    58 C    1.223
    58   6 C    3.969 --    61 C    1.289    87 C    1.249    57 C    1.223
    59   6 C    3.825 --    60 C    1.244    29 C    1.192   189 O    1.082
                            63 C    0.102
    60   6 C    3.972 --    61 C    1.292    59 C    1.244    55 C    1.220
    61   6 C    3.930 --    60 C    1.292    58 C    1.289    62 C    1.071
    62   6 C    3.957 --    63 C    1.375    91 C    1.287    61 C    1.071
    63   6 C    3.849 --    62 C    1.375   189 O    1.219   184 H    0.950
                            59 C    0.102
    64   6 C    3.948 --    35 C    1.412    65 C    1.162    69 C    1.132
    65   6 C    3.955 --    66 C    1.686    64 C    1.162   169 H    0.960
    66   6 C    3.956 --    65 C    1.686    67 C    1.164   170 H    0.961
    67   6 C    3.949 --    96 C    1.405    66 C    1.164    70 C    1.137
    68   6 C    3.953 --    38 C    1.387    73 C    1.218    69 C    1.155
    69   6 C    3.948 --    70 C    1.436    68 C    1.155    64 C    1.132
    70   6 C    3.947 --    69 C    1.436    71 C    1.149    67 C    1.137
    71   6 C    3.954 --   100 C    1.375    74 C    1.234    70 C    1.149
    72   6 C    3.970 --    42 C    1.253    73 C    1.253    77 C    1.231
    73   6 C    3.964 --    74 C    1.263    72 C    1.253    68 C    1.218
    74   6 C    3.948 --    73 C    1.263    71 C    1.234    75 C    1.234
    75   6 C    3.973 --    78 C    1.285    74 C    1.234   103 C    1.226
    76   6 C    3.845 --    46 C    1.365    77 C    1.236   196 O    1.027
    77   6 C    3.953 --    78 C    1.241    76 C    1.236    72 C    1.231
    78   6 C    3.907 --    75 C    1.285    77 C    1.241    79 C    1.168
    79   6 C    3.959 --    81 C    1.392   107 C    1.205    78 C    1.168
    80   6 C    3.834 --    50 C    1.296    84 C    1.287   196 O    1.043
    81   6 C    3.866 --    79 C    1.392    82 C    1.271   203 H    0.965
    82   6 C    3.951 --    81 C    1.271    85 C    1.263   111 C    1.214
    83   6 C    3.954 --    54 C    1.251    84 C    1.249    88 C    1.227
    84   6 C    3.950 --    80 C    1.287    83 C    1.249    85 C    1.171
    85   6 C    3.889 --    82 C    1.263    86 C    1.242    84 C    1.171
    86   6 C    3.971 --    89 C    1.305    85 C    1.242   115 C    1.201
    87   6 C    3.863 --    88 C    1.366    58 C    1.249   204 H    0.965
    88   6 C    3.960 --    87 C    1.366    83 C    1.227    89 C    1.169
    89   6 C    3.895 --    86 C    1.305    90 C    1.207    88 C    1.169
    90   6 C    3.946 --    92 C    1.267   119 C    1.230    89 C    1.207
    91   6 C    3.808 --    62 C    1.287    94 C    1.279   190 O    0.994
    92   6 C    3.851 --    93 C    1.320    90 C    1.267   190 O    1.047
    93   6 C    3.964 --    92 C    1.320   123 C    1.261    95 C    1.168
    94   6 C    3.971 --    95 C    1.574    91 C    1.279   185 H    0.961
    95   6 C    3.862 --    94 C    1.574    93 C    1.168   186 H    0.968
    96   6 C    3.802 --    67 C    1.405    97 C    1.214   195 O    1.009
    97   6 C    3.957 --    98 C    1.623    96 C    1.214   171 H    0.960
    98   6 C    3.896 --    97 C    1.623    99 C    1.181   172 H    0.963
    99   6 C    3.945 --   101 C    1.402    98 C    1.181   128 C    1.158
   100   6 C    3.866 --    71 C    1.375   104 C    1.302   205 H    0.965
   101   6 C    3.885 --    99 C    1.402   102 C    1.208   195 O    1.047
   102   6 C    3.942 --   105 C    1.250   132 C    1.235   101 C    1.208
   103   6 C    3.946 --   104 C    1.275   108 C    1.226    75 C    1.226
   104   6 C    3.941 --   100 C    1.302   103 C    1.275   105 C    1.170
   105   6 C    3.926 --   106 C    1.282   102 C    1.250   104 C    1.170
   106   6 C    3.967 --   105 C    1.282   136 C    1.269   109 C    1.192
   107   6 C    3.960 --   108 C    1.281   112 C    1.246    79 C    1.205
   108   6 C    3.940 --   107 C    1.281   103 C    1.226   109 C    1.224
   109   6 C    3.966 --   110 C    1.327   108 C    1.224   106 C    1.192
   110   6 C    3.912 --   109 C    1.327   113 C    1.207   139 C    1.160
   111   6 C    3.972 --   112 C    1.261   116 C    1.256    82 C    1.214
   112   6 C    3.965 --   111 C    1.261   107 C    1.246   113 C    1.227
   113   6 C    3.958 --   114 C    1.322   112 C    1.227   110 C    1.207
   114   6 C    3.869 --   117 C    1.336   113 C    1.322   206 H    0.964
   115   6 C    3.954 --   120 C    1.269   116 C    1.259    86 C    1.201
   116   6 C    3.961 --   115 C    1.259   111 C    1.256   117 C    1.219
   117   6 C    3.960 --   114 C    1.336   116 C    1.219   118 C    1.204
   118   6 C    3.922 --   121 C    1.336   117 C    1.204   146 C    1.158
   119   6 C    3.951 --   120 C    1.256   124 C    1.243    90 C    1.230
   120   6 C    3.966 --   115 C    1.269   119 C    1.256   121 C    1.212
   121   6 C    3.959 --   118 C    1.336   120 C    1.212   122 C    1.195
   122   6 C    3.979 --   125 C    1.390   121 C    1.195   149 C    1.159
   123   6 C    3.835 --   124 C    1.311    93 C    1.261   191 O    1.053
   124   6 C    3.972 --   123 C    1.311   119 C    1.243   125 C    1.191
   125   6 C    3.920 --   122 C    1.390   124 C    1.191   126 C    1.134
   126   6 C    3.966 --   127 C    1.561   125 C    1.134   153 C    1.099
   127   6 C    3.841 --   126 C    1.561   191 O    1.110   187 H    0.953
   128   6 C    3.978 --   129 C    1.367   133 C    1.257    99 C    1.158
   129   6 C    3.931 --   130 C    1.425   128 C    1.367   173 H    0.964
   130   6 C    3.981 --   131 C    1.459   129 C    1.425   174 H    0.971
   131   6 C    3.936 --   130 C    1.459   134 C    1.331   175 H    0.969
   132   6 C    3.974 --   137 C    1.264   133 C    1.248   102 C    1.235
   133   6 C    3.981 --   128 C    1.257   132 C    1.248   134 C    1.244
   134   6 C    3.984 --   131 C    1.331   133 C    1.244   135 C    1.237
   135   6 C    3.945 --   138 C    1.507   134 C    1.237   176 H    0.965
   136   6 C    3.948 --   137 C    1.269   106 C    1.269   140 C    1.194
   137   6 C    3.955 --   136 C    1.269   132 C    1.264   138 C    1.191
   138   6 C    3.922 --   135 C    1.507   137 C    1.191   194 O    1.043
   139   6 C    3.958 --   143 C    1.300   140 C    1.260   110 C    1.160
   140   6 C    3.947 --   141 C    1.261   139 C    1.260   136 C    1.194
   141   6 C    3.915 --   142 C    1.417   140 C    1.261   194 O    1.058
   142   6 C    3.935 --   141 C    1.417   144 C    1.316   177 H    0.965
   143   6 C    3.853 --   144 C    1.302   139 C    1.300   193 O    1.023
   144   6 C    3.971 --   142 C    1.316   143 C    1.302   145 C    1.184
   145   6 C    3.858 --   148 C    1.491   144 C    1.184   178 H    0.966
   146   6 C    3.942 --   147 C    1.379   118 C    1.158   150 C    1.153
   147   6 C    3.805 --   146 C    1.379   148 C    1.192   193 O    1.026
   148   6 C    3.915 --   145 C    1.491   147 C    1.192   192 O    1.060
   149   6 C    3.967 --   150 C    1.345   154 C    1.239   122 C    1.159
   150   6 C    3.948 --   149 C    1.345   151 C    1.223   146 C    1.153
   151   6 C    3.918 --   152 C    1.483   150 C    1.223   192 O    1.034
   152   6 C    3.950 --   151 C    1.483   155 C    1.263   179 H    0.965
   153   6 C    3.980 --   157 C    1.428   154 C    1.259   126 C    1.099
   154   6 C    3.979 --   153 C    1.259   155 C    1.251   149 C    1.239
   155   6 C    3.981 --   156 C    1.297   152 C    1.263   154 C    1.251
   156   6 C    3.968 --   158 C    1.507   155 C    1.297   180 H    0.969
   157   6 C    3.970 --   153 C    1.428   158 C    1.376   188 H    0.966
   158   6 C    3.981 --   156 C    1.507   157 C    1.376   181 H    0.970
   159   1 H    0.997 --     1 C    0.968
   160   1 H    0.997 --     2 C    0.970
   161   1 H    0.998 --     3 C    0.964
   162   1 H    0.996 --     8 C    0.966
   163   1 H    0.997 --    12 C    0.966
   164   1 H    0.995 --    16 C    0.959
   165   1 H    0.996 --    22 C    0.966
   166   1 H    0.998 --    26 C    0.969
   167   1 H    0.997 --    33 C    0.963
   168   1 H    0.997 --    34 C    0.960
   169   1 H    0.997 --    65 C    0.960
   170   1 H    0.997 --    66 C    0.961
   171   1 H    0.996 --    97 C    0.960
   172   1 H    0.997 --    98 C    0.963
   173   1 H    0.998 --   129 C    0.964
   174   1 H    0.998 --   130 C    0.971
   175   1 H    0.998 --   131 C    0.969
   176   1 H    0.996 --   135 C    0.965
   177   1 H    0.996 --   142 C    0.965
   178   1 H    0.996 --   145 C    0.966
   179   1 H    0.996 --   152 C    0.965
   180   1 H    0.998 --   156 C    0.969
   181   1 H    0.998 --   158 C    0.970
   182   1 H    0.998 --    30 C    0.970
   183   1 H    0.998 --    31 C    0.970
   184   1 H    0.995 --    63 C    0.950
   185   1 H    0.998 --    94 C    0.961
   186   1 H    0.997 --    95 C    0.968
   187   1 H    0.995 --   127 C    0.953
   188   1 H    0.999 --   157 C    0.966
   189   8 O    2.492 --    63 C    1.219    59 C    1.082
   190   8 O    2.331 --    92 C    1.047    91 C    0.994
   191   8 O    2.360 --   127 C    1.110   123 C    1.053
   192   8 O    2.338 --   148 C    1.060   151 C    1.034
   193   8 O    2.309 --   147 C    1.026   143 C    1.023
   194   8 O    2.348 --   141 C    1.058   138 C    1.043
   195   8 O    2.322 --   101 C    1.047    96 C    1.009
   196   8 O    2.330 --    80 C    1.043    76 C    1.027
   197   8 O    2.337 --    19 C    1.053    23 C    1.042
   198   8 O    2.325 --    17 C    1.030    15 C    1.030
   199   8 O    2.348 --     9 C    1.057     5 C    1.053
   200   8 O    2.322 --    37 C    1.054    35 C    1.001
   201   1 H    0.997 --    18 C    0.965
   202   1 H    0.997 --    38 C    0.964
   203   1 H    0.997 --    81 C    0.965
   204   1 H    0.997 --    87 C    0.965
   205   1 H    0.997 --   100 C    0.965
   206   1 H    0.997 --   114 C    0.964
 ---------------------------------------------------------------------------

Topologies differ in total number of bonds
Writing topology from bond orders to xtbtopo.mol

molecular dipole:
                 x           y           z       tot (Debye)
 q only:        0.655      -0.535       0.842
   full:        0.598      -0.479       0.465       2.277
molecular quadrupole (traceless):
                xx          xy          yy          xz          yz          zz
 q only:      -25.927      18.443      69.188      -0.319       2.378     -43.261
  q+dip:       -3.474      24.936     100.156       0.130       0.792     -96.682
   full:      -29.297      25.704      76.596       0.341      -0.511     -47.298


           -------------------------------------------------
          | TOTAL ENERGY             -406.330445790088 Eh   |
          | GRADIENT NORM               0.000575754923 Eh/α |
          | HOMO-LUMO GAP               0.230291182893 eV   |
           -------------------------------------------------

------------------------------------------------------------------------
 * finished run on 2025/12/08 at 00:39:12.546     
------------------------------------------------------------------------
 total:
 * wall-time:     0 d,  0 h,  0 min,  0.790 sec
 *  cpu-time:     0 d,  0 h,  0 min, 11.578 sec
 * ratio c/w:    14.656 speedup
 SCF:
 * wall-time:     0 d,  0 h,  0 min,  0.673 sec
 *  cpu-time:     0 d,  0 h,  0 min, 10.078 sec
 * ratio c/w:    14.975 speedup

normal termination of xtb
