      -----------------------------------------------------------      
     |                   =====================                   |     
     |                           x T B                           |     
     |                   =====================                   |     
     |                         S. Grimme                         |     
     |          Mulliken Center for Theoretical Chemistry        |     
     |                    University of Bonn                     |     
      -----------------------------------------------------------      

   * xtb version 6.7.1pre (5071a88) compiled by 'Marcel@Raven' on 2024-07-23

   xtb is free software: you can redistribute it and/or modify it under
   the terms of the GNU Lesser General Public License as published by
   the Free Software Foundation, either version 3 of the License, or
   (at your option) any later version.
   
   xtb is distributed in the hope that it will be useful,
   but WITHOUT ANY WARRANTY; without even the implied warranty of
   MERCHANTABILITY or FITNESS FOR A PARTICULAR PURPOSE.  See the
   GNU Lesser General Public License for more details.
   
   Cite this work as:
   * C. Bannwarth, E. Caldeweyher, S. Ehlert, A. Hansen, P. Pracht,
     J. Seibert, S. Spicher, S. Grimme, WIREs Comput. Mol. Sci., 2020, 11,
     e01493. DOI: 10.1002/wcms.1493
   
   for GFN2-xTB:
   * C. Bannwarth, S. Ehlert and S. Grimme., J. Chem. Theory Comput., 2019,
     15, 1652-1671. DOI: 10.1021/acs.jctc.8b01176
   for GFN1-xTB:
   * S. Grimme, C. Bannwarth, P. Shushkov, J. Chem. Theory Comput., 2017,
     13, 1989-2009. DOI: 10.1021/acs.jctc.7b00118
   for GFN0-xTB:
   * P. Pracht, E. Caldeweyher, S. Ehlert, S. Grimme, ChemRxiv, 2019, preprint.
     DOI: 10.26434/chemrxiv.8326202.v1
   for GFN-FF:
   * S. Spicher and S. Grimme, Angew. Chem. Int. Ed., 2020, 59, 15665-15673.
     DOI: 10.1002/anie.202004239
   
   for ALPB and GBSA implicit solvation:
   * S. Ehlert, M. Stahn, S. Spicher, S. Grimme, J. Chem. Theory Comput.,
     2021, 17, 4250-4261. DOI: 10.1021/acs.jctc.1c00471
   
   for ddCOSMO and CPCM-X implicit solvation:
   * M. Stahn, S. Ehlert, S. Grimme, J. Phys. Chem. A,
     2023, XX, XXXX-XXXX. DOI: 10.1021/acs.jpca.3c04382
   
   for DFT-D4:
   * E. Caldeweyher, C. Bannwarth and S. Grimme, J. Chem. Phys., 2017,
     147, 034112. DOI: 10.1063/1.4993215
   * E. Caldeweyher, S. Ehlert, A. Hansen, H. Neugebauer, S. Spicher,
     C. Bannwarth and S. Grimme, J. Chem. Phys., 2019, 150, 154122.
     DOI: 10.1063/1.5090222
   * E. Caldeweyher, J.-M. Mewes, S. Ehlert and S. Grimme, Phys. Chem. Chem. Phys.
     2020, 22, 8499-8512. DOI: 10.1039/D0CP00502A
   
   for sTDA-xTB:
   * S. Grimme and C. Bannwarth, J. Chem. Phys., 2016, 145, 054103.
     DOI: 10.1063/1.4959605
   
   in the mass-spec context:
   * V. Asgeirsson, C. Bauer and S. Grimme, Chem. Sci., 2017, 8, 4879.
     DOI: 10.1039/c7sc00601b
   * J. Koopman and S. Grimme, ACS Omega 2019, 4, 12, 15120-15133.
     DOI: 10.1021/acsomega.9b02011
   
   for metadynamics refer to:
   * S. Grimme, J. Chem. Theory Comput., 2019, 155, 2847-2862
     DOI: 10.1021/acs.jctc.9b00143
   
   for SPH calculations refer to:
   * S. Spicher and S. Grimme, J. Chem. Theory Comput., 2021, 17, 1701-1714
     DOI: 10.1021/acs.jctc.0c01306
   
   for ONIOM refer to:
   * C. Plett, A. Katbashev, S. Ehlert, S. Grimme, M. Bursch,
     Phys. Chem. Chem. Phys., 2023, 25, 17860-17868. DOI: 10.1039/D3CP02178E
   
   for DIPRO refer to:
   * J. Kohn, N. Gildemeister, S. Grimme, D. Fazzi, A. Hansen,
     J. Chem. Phys., 2023, just accepted.
   
   for PTB refer to:
   * S. Grimme, M. Mueller, A. Hansen, J. Chem. Phys., 2023, 158, 124111.
     DOI: 10.1063/5.0137838
   
   with help from (in alphabetical order)
   P. Atkinson, C. Bannwarth, F. Bohle, G. Brandenburg, E. Caldeweyher
   M. Checinski, S. Dohm, S. Ehlert, S. Ehrlich, I. Gerasimov, C. Hölzer
   A. Katbashev, J. Kohn, J. Koopman, C. Lavigne, S. Lehtola, F. März, M. Müller,
   F. Musil, H. Neugebauer, J. Pisarek, C. Plett, P. Pracht, F. Pultar,
   J. Seibert, P. Shushkov, S. Spicher, M. Stahn, M. Steiner, T. Strunk,
   J. Stückrath, T. Rose, and J. Unsleber
   
 * started run on 2025/12/08 at 00:38:23.543     
   ID    Z sym.   atoms
    1    6 C      1-158
    2    1 H      159-188, 201-206
    3    8 O      189-200

           -------------------------------------------------
          |                Calculation Setup                |
           -------------------------------------------------

          program call               : xtb "C:\Users\LENOVO GAMING\Documents\GitHub\molecular-conductivity-sim\dataset\2nm-12Odoped-7percent.xyz" --opt --parallel 4
          coordinate file            : C:\Users\LENOVO GAMING\Documents\GitHub\molecular-conductivity-sim\dataset\2nm-12Odoped-7percent.xyz
          omp threads                :                     4


           -------------------------------------------------
          |                 G F N 2 - x T B                 |
           -------------------------------------------------

        Reference                      10.1021/acs.jctc.8b01176
      * Hamiltonian:
        H0-scaling (s, p, d)           1.850000    2.230000    2.230000
        zeta-weighting                 0.500000
      * Dispersion:
        s8                             2.700000
        a1                             0.520000
        a2                             5.000000
        s9                             5.000000
      * Repulsion:
        kExp                           1.500000    1.000000
        rExp                           1.000000
      * Coulomb:
        alpha                          2.000000
        third order                    shell-resolved
        anisotropic                    true
        a3                             3.000000
        a5                             4.000000
        cn-shift                       1.200000
        cn-exp                         4.000000
        max-rad                        5.000000


          ...................................................
          :                      SETUP                      :
          :.................................................:
          :  # basis functions                 716          :
          :  # atomic orbitals                 716          :
          :  # shells                          376          :
          :  # electrons                       740          :
          :  max. iterations                   250          :
          :  Hamiltonian                  GFN2-xTB          :
          :  restarted?                      false          :
          :  GBSA solvation                  false          :
          :  PC potential                    false          :
          :  electronic temp.          300.0000000     K    :
          :  accuracy                    1.0000000          :
          :  -> integral cutoff          0.2500000E+02      :
          :  -> integral neglect         0.1000000E-07      :
          :  -> SCF convergence          0.1000000E-05 Eh   :
          :  -> wf. convergence          0.1000000E-03 e    :
          :  Broyden damping             0.4000000          :
          :  net charge                          0          :
          :  unpaired electrons                  0          :
          ...................................................

 iter      E             dE          RMSdq      gap      omega  full diag
   1   -412.4787105 -0.412479E+03  0.487E+00    0.02       0.0  T
   2   -410.3496365  0.212907E+01  0.356E+00    0.16       1.0  T
   3   -297.1523574  0.113197E+03  0.709E+00    0.12       1.0  T
   4   -252.2804342  0.448719E+02  0.857E+00    0.10       1.0  T
   5   -395.8609263 -0.143580E+03  0.433E+00    0.11       1.0  T
   6   -405.9158944 -0.100550E+02  0.276E+00    0.21       1.0  T
   7   -403.3585262  0.255737E+01  0.273E+00    0.13       1.0  T
   8   -408.9100038 -0.555148E+01  0.165E+00    0.24       1.0  T
   9   -411.3794881 -0.246948E+01  0.112E+00    0.16       1.0  T
  10   -411.6912254 -0.311737E+00  0.958E-01    0.09       1.0  T
  11   -412.0749754 -0.383750E+00  0.848E-01    0.05       1.0  T
  12   -412.1240881 -0.491127E-01  0.819E-01    0.04       1.0  T
  13   -412.4856616 -0.361573E+00  0.739E-01    0.08       1.0  T
  14   -412.5231702 -0.375086E-01  0.702E-01    0.05       1.0  T
  15   -412.5921038 -0.689336E-01  0.664E-01    0.08       1.0  T
  16   -412.7940025 -0.201899E+00  0.594E-01    0.09       1.0  T
  17   -412.7391591  0.548434E-01  0.525E-01    0.07       1.0  T
  18   -412.8758974 -0.136738E+00  0.335E-01    0.13       1.0  T
  19   -412.9084153 -0.325179E-01  0.196E-01    0.21       1.0  T
  20   -412.9161839 -0.776855E-02  0.165E-01    0.24       1.0  T
  21   -412.9230562 -0.687232E-02  0.130E-01    0.23       1.0  T
  22   -412.9247933 -0.173711E-02  0.117E-01    0.22       1.0  T
  23   -412.9254401 -0.646790E-03  0.101E-01    0.21       1.0  T
  24   -412.9249777  0.462380E-03  0.767E-02    0.16       1.0  T
  25   -412.9259562 -0.978531E-03  0.679E-02    0.19       1.0  T
  26   -412.9261857 -0.229494E-03  0.490E-02    0.19       1.0  T
  27   -412.9265080 -0.322222E-03  0.375E-02    0.19       1.0  T
  28   -412.9266629 -0.154921E-03  0.275E-02    0.19       1.0  T
  29   -412.9267363 -0.734060E-04  0.232E-02    0.20       1.0  T
  30   -412.9268258 -0.894774E-04  0.178E-02    0.20       1.0  T
  31   -412.9268801 -0.542938E-04  0.132E-02    0.20       1.0  T
  32   -412.9269387 -0.586131E-04  0.758E-03    0.20       1.0  T
  33   -412.9269569 -0.182628E-04  0.478E-03    0.21       1.5  T
  34   -412.9269608 -0.387684E-05  0.390E-03    0.21       1.8  T
  35   -412.9269635 -0.273647E-05  0.293E-03    0.21       2.4  T
  36   -412.9269659 -0.236855E-05  0.176E-03    0.21       4.0  T
  37   -412.9269665 -0.586687E-06  0.118E-03    0.21       5.9  T
  38   -412.9269669 -0.373479E-06  0.834E-04    0.21       8.4  T
  39   -412.9269671 -0.256194E-06  0.579E-04    0.21      12.0  T

   *** convergence criteria satisfied after 39 iterations ***

         #    Occupation            Energy/Eh            Energy/eV
      -------------------------------------------------------------
         1        2.0000           -0.7613447             -20.7172
       ...           ...                  ...                  ...
       364        2.0000           -0.3578596              -9.7379
       365        2.0000           -0.3535606              -9.6209
       366        2.0000           -0.3428507              -9.3294
       367        2.0000           -0.3334751              -9.0743
       368        2.0000           -0.3302149              -8.9856
       369        1.9991           -0.3266081              -8.8875
       370        1.9640           -0.3230347              -8.7902 (HOMO)
       371        0.0368           -0.3154570              -8.5840 (LUMO)
       372        0.0000           -0.3067118              -8.3461
       373                         -0.3023180              -8.2265
       374                         -0.3019041              -8.2152
       375                         -0.2961767              -8.0594
       ...                                ...                  ...
       716                          0.7407328              20.1564
      -------------------------------------------------------------
                  HL-Gap            0.0075777 Eh            0.2062 eV
             Fermi-level           -0.3192343 Eh           -8.6868 eV

 SCC (total)                   0 d,  0 h,  0 min,  7.527 sec
 SCC setup                      ...        0 min,  0.005 sec (  0.066%)
 Dispersion                     ...        0 min,  0.015 sec (  0.199%)
 classical contributions        ...        0 min,  0.001 sec (  0.013%)
 integral evaluation            ...        0 min,  0.090 sec (  1.196%)
 iterations                     ...        0 min,  6.953 sec ( 92.374%)
 molecular gradient             ...        0 min,  0.445 sec (  5.912%)
 printout                       ...        0 min,  0.018 sec (  0.239%)

         :::::::::::::::::::::::::::::::::::::::::::::::::::::
         ::                     SUMMARY                     ::
         :::::::::::::::::::::::::::::::::::::::::::::::::::::
         :: total energy            -406.295481649670 Eh    ::
         :: gradient norm              0.084516407816 Eh/a0 ::
         :: HOMO-LUMO gap              0.206200784661 eV    ::
         ::.................................................::
         :: SCC energy              -412.939356686062 Eh    ::
         :: -> isotropic ES            0.142121483437 Eh    ::
         :: -> anisotropic ES          0.012998322164 Eh    ::
         :: -> anisotropic XC          0.107542545675 Eh    ::
         :: -> dispersion             -0.475904310801 Eh    ::
         :: repulsion energy           6.643875036392 Eh    ::
         :: add. restraining           0.000000000000 Eh    ::
         :: total charge               0.000000000000 e     ::
         :::::::::::::::::::::::::::::::::::::::::::::::::::::

      ----------------------------------------------------------- 
     |                   =====================                   |
     |                        A N C O P T                        |
     |                   =====================                   |
     |               Approximate Normal Coordinate               |
     |                Rational Function Optimizer                |
      ----------------------------------------------------------- 
      ----------------------------------------------------------- 
     |                   =====================                   |
     |                        A N C O P T                        |
     |                   =====================                   |
     |               Approximate Normal Coordinate               |
     |                Rational Function Optimizer                |
      ----------------------------------------------------------- 

          ...................................................
          :                      SETUP                      :
          :.................................................:
          :   optimization level            normal          :
          :   max. optcycles                   618          :
          :   ANC micro-cycles                  20          :
          :   degrees of freedom               612          :
          :.................................................:
          :   RF solver                   davidson          :
          :   write xtbopt.log                true          :
          :   linear?                        false          :
          :   energy convergence         0.5000000E-05 Eh   :
          :   grad. convergence          0.1000000E-02 Eh/α :
          :   maxmium RF displ.          1.0000000          :
          :   Hlow (freq-cutoff)         0.1000000E-01      :
          :   Hmax (freq-cutoff)         5.0000000          :
          :   S6 in model hess.         20.0000000          :
          ...................................................

generating ANC from exact Hessian ...
Using Lindh-Hessian (1995)
 Shifting diagonal of input Hessian by   9.940966151598479E-003
 Lowest  eigenvalues of input Hessian
    0.000000    0.000000    0.000000    0.000000    0.000000    0.000000
    0.010000    0.010084    0.010174    0.010248    0.010277    0.010770
    0.010801    0.010849    0.010942    0.011085    0.011624    0.011728
 Highest eigenvalues
    2.134753    2.139317    2.142695    2.163570    2.164654    2.171866
 

........................................................................
.............................. CYCLE    1 ..............................
........................................................................

 iter      E             dE          RMSdq      gap      omega  full diag
   1   -412.9269673 -0.412927E+03  0.379E-04    0.21       0.0  T
   2   -412.9269672  0.110609E-06  0.696E-04    0.21      10.0  T
   3   -412.9269673 -0.169394E-06  0.301E-04    0.21      23.2  T
     SCC iter.                  ...        0 min,  0.549 sec
     gradient                   ...        0 min,  0.455 sec
 * total energy  :  -406.2954818 Eh     change       -0.1940068E-06 Eh
   gradient norm :     0.0845161 Eh/α   predicted     0.0000000E+00 (-100.00%)
   displ. norm   :     0.5417292 α      lambda       -0.2432415E-01
   maximum displ.:     0.1595902 α      in ANC's #43, #39, #50, ...

........................................................................
.............................. CYCLE    2 ..............................
........................................................................

 iter      E             dE          RMSdq      gap      omega  full diag
   1   -413.0735753 -0.413074E+03  0.133E-01    0.21       0.0  T
   2   -413.0704089  0.316640E-02  0.121E-01    0.23       1.0  T
   3   -413.0491369  0.212720E-01  0.241E-01    0.19       1.0  T
   4   -413.0678222 -0.186853E-01  0.117E-01    0.25       1.0  T
   5   -413.0706733 -0.285106E-02  0.901E-02    0.21       1.0  T
   6   -413.0740806 -0.340728E-02  0.226E-02    0.22       1.0  T
   7   -413.0742449 -0.164316E-03  0.122E-02    0.21       1.0  T
   8   -413.0742729 -0.279970E-04  0.771E-03    0.21       1.0  T
   9   -413.0742935 -0.206151E-04  0.409E-03    0.21       1.7  T
  10   -413.0742974 -0.384750E-05  0.239E-03    0.21       2.9  T
  11   -413.0742977 -0.302552E-06  0.176E-03    0.21       4.0  T
  12   -413.0742990 -0.133134E-05  0.482E-04    0.21      14.5  T
  13   -413.0742991 -0.746198E-07  0.141E-04    0.21      49.4  T
  14   -413.0742991 -0.284604E-08  0.936E-05    0.21      74.4  T
     SCC iter.                  ...        0 min,  2.521 sec
     gradient                   ...        0 min,  0.457 sec
 * total energy  :  -406.3143790 Eh     change       -0.1889712E-01 Eh
   gradient norm :     0.0465355 Eh/α   predicted    -0.1573362E-01 ( -16.74%)
   displ. norm   :     0.6254316 α      lambda       -0.1482045E-01
   maximum displ.:     0.2279535 α      in ANC's #43, #39, #45, ...

........................................................................
.............................. CYCLE    3 ..............................
........................................................................

 iter      E             dE          RMSdq      gap      omega  full diag
   1   -413.2073807 -0.413207E+03  0.130E-01    0.21       0.0  T
   2   -413.2051590  0.222174E-02  0.111E-01    0.23       1.0  T
   3   -413.1911387  0.140202E-01  0.200E-01    0.20       1.0  T
   4   -413.1999609 -0.882214E-02  0.130E-01    0.25       1.0  T
   5   -413.2042103 -0.424948E-02  0.915E-02    0.21       1.0  T
   6   -413.2078736 -0.366327E-02  0.238E-02    0.22       1.0  T
   7   -413.2080649 -0.191267E-03  0.123E-02    0.21       1.0  T
   8   -413.2081128 -0.479514E-04  0.546E-03    0.21       1.3  T
   9   -413.2081213 -0.843534E-05  0.332E-03    0.22       2.1  T
  10   -413.2081239 -0.261418E-05  0.214E-03    0.22       3.3  T
  11   -413.2081241 -0.192562E-06  0.189E-03    0.21       3.7  T
  12   -413.2081254 -0.137413E-05  0.412E-04    0.22      16.9  T
  13   -413.2081255 -0.492305E-07  0.127E-04    0.21      54.7  T
  14   -413.2081255 -0.183161E-08  0.813E-05    0.21      85.7  T
     SCC iter.                  ...        0 min,  2.511 sec
     gradient                   ...        0 min,  0.431 sec
 * total energy  :  -406.3249376 Eh     change       -0.1055865E-01 Eh
   gradient norm :     0.0180587 Eh/α   predicted    -0.1030988E-01 (  -2.36%)
   displ. norm   :     0.5131850 α      lambda       -0.5548173E-02
   maximum displ.:     0.1893374 α      in ANC's #43, #39, #33, ...

........................................................................
.............................. CYCLE    4 ..............................
........................................................................

 iter      E             dE          RMSdq      gap      omega  full diag
   1   -413.2939501 -0.413294E+03  0.803E-02    0.22       0.0  T
   2   -413.2932851  0.665017E-03  0.651E-02    0.22       1.0  T
   3   -413.2896906  0.359454E-02  0.101E-01    0.21       1.0  T
   4   -413.2920118 -0.232126E-02  0.708E-02    0.23       1.0  T
   5   -413.2919953  0.165055E-04  0.654E-02    0.21       1.0  T
   6   -413.2940807 -0.208538E-02  0.169E-02    0.22       1.0  T
   7   -413.2941887 -0.107975E-03  0.825E-03    0.22       1.0  T
   8   -413.2942135 -0.248033E-04  0.337E-03    0.22       2.1  T
   9   -413.2942180 -0.453601E-05  0.115E-03    0.22       6.1  T
  10   -413.2942184 -0.377858E-06  0.515E-04    0.22      13.5  T
  11   -413.2942183  0.594828E-07  0.526E-04    0.22      13.2  T
     SCC iter.                  ...        0 min,  1.951 sec
     gradient                   ...        0 min,  0.449 sec
 * total energy  :  -406.3287513 Eh     change       -0.3813668E-02 Eh
   gradient norm :     0.0112728 Eh/α   predicted    -0.3504670E-02 (  -8.10%)
   displ. norm   :     0.3604400 α      lambda       -0.1773447E-02
   maximum displ.:     0.1296533 α      in ANC's #43, #39, #33, ...

........................................................................
.............................. CYCLE    5 ..............................
........................................................................

 iter      E             dE          RMSdq      gap      omega  full diag
   1   -413.3379432 -0.413338E+03  0.527E-02    0.22       0.0  T
   2   -413.3377412  0.202005E-03  0.377E-02    0.21       1.0  T
   3   -413.3326962  0.504502E-02  0.980E-02    0.25       1.0  T
   4   -413.3370467 -0.435048E-02  0.437E-02    0.22       1.0  T
   5   -413.3376695 -0.622828E-03  0.249E-02    0.22       1.0  T
   6   -413.3379641 -0.294539E-03  0.651E-03    0.22       1.1  T
   7   -413.3379788 -0.147210E-04  0.290E-03    0.22       2.4  T
   8   -413.3379809 -0.211861E-05  0.143E-03    0.22       4.9  T
   9   -413.3379813 -0.416193E-06  0.851E-04    0.22       8.2  T
  10   -413.3379815 -0.214905E-06  0.377E-04    0.22      18.5  T
     SCC iter.                  ...        0 min,  1.780 sec
     gradient                   ...        0 min,  0.465 sec
 * total energy  :  -406.3298447 Eh     change       -0.1093446E-02 Eh
   gradient norm :     0.0077459 Eh/α   predicted    -0.1001941E-02 (  -8.37%)
   displ. norm   :     0.1786144 α      lambda       -0.3828906E-03
   maximum displ.:     0.0527948 α      in ANC's #30, #33, #39, ...

........................................................................
.............................. CYCLE    6 ..............................
........................................................................

 iter      E             dE          RMSdq      gap      omega  full diag
   1   -413.3512502 -0.413351E+03  0.272E-02    0.22       0.0  T
   2   -413.3512364  0.138465E-04  0.175E-02    0.22       1.0  T
   3   -413.3508426  0.393777E-03  0.346E-02    0.22       1.0  T
   4   -413.3512324 -0.389846E-03  0.808E-03    0.22       1.0  T
   5   -413.3512519 -0.194524E-04  0.267E-03    0.22       2.6  T
   6   -413.3512507  0.119529E-05  0.294E-03    0.22       2.4  T
   7   -413.3512543 -0.362350E-05  0.102E-03    0.22       6.8  T
   8   -413.3512548 -0.477523E-06  0.393E-04    0.22      17.7  T
   9   -413.3512548 -0.269214E-07  0.324E-04    0.22      21.5  T
     SCC iter.                  ...        0 min,  1.594 sec
     gradient                   ...        0 min,  0.463 sec
 * total energy  :  -406.3300678 Eh     change       -0.2230439E-03 Eh
   gradient norm :     0.0043508 Eh/α   predicted    -0.1975535E-03 ( -11.43%)
   displ. norm   :     0.1261808 α      lambda       -0.1488763E-03
   maximum displ.:     0.0417160 α      in ANC's #12, #14, #20, ...

........................................................................
.............................. CYCLE    7 ..............................
........................................................................

 iter      E             dE          RMSdq      gap      omega  full diag
   1   -413.3517498 -0.413352E+03  0.192E-02    0.22       0.0  T
   2   -413.3517028  0.469674E-04  0.160E-02    0.22       1.0  T
   3   -413.3513390  0.363819E-03  0.320E-02    0.23       1.0  T
   4   -413.3515191 -0.180126E-03  0.214E-02    0.22       1.0  T
   5   -413.3517379 -0.218748E-03  0.662E-03    0.22       1.1  T
   6   -413.3517534 -0.155767E-04  0.241E-03    0.22       2.9  T
   7   -413.3517553 -0.181927E-05  0.148E-03    0.22       4.7  T
   8   -413.3517562 -0.902242E-06  0.513E-04    0.22      13.6  T
   9   -413.3517563 -0.941365E-07  0.224E-04    0.22      31.2  T
     SCC iter.                  ...        0 min,  1.574 sec
     gradient                   ...        0 min,  0.470 sec
 * total energy  :  -406.3301668 Eh     change       -0.9906081E-04 Eh
   gradient norm :     0.0023583 Eh/α   predicted    -0.7562739E-04 ( -23.66%)
   displ. norm   :     0.1371347 α      lambda       -0.9869690E-04
   maximum displ.:     0.0534726 α      in ANC's #12, #14, #5, ...

........................................................................
.............................. CYCLE    8 ..............................
........................................................................

 iter      E             dE          RMSdq      gap      omega  full diag
   1   -413.3487918 -0.413349E+03  0.199E-02    0.22       0.0  T
   2   -413.3487530  0.388419E-04  0.155E-02    0.22       1.0  T
   3   -413.3484466  0.306376E-03  0.290E-02    0.23       1.0  T
   4   -413.3486502 -0.203573E-03  0.172E-02    0.22       1.0  T
   5   -413.3487545 -0.104373E-03  0.909E-03    0.22       1.0  T
   6   -413.3487941 -0.395942E-04  0.293E-03    0.22       2.4  T
   7   -413.3487979 -0.374158E-05  0.910E-04    0.22       7.7  T
   8   -413.3487981 -0.250737E-06  0.506E-04    0.22      13.8  T
   9   -413.3487982 -0.717864E-07  0.262E-04    0.22      26.6  T
     SCC iter.                  ...        0 min,  1.590 sec
     gradient                   ...        0 min,  0.442 sec
 * total energy  :  -406.3302378 Eh     change       -0.7098112E-04 Eh
   gradient norm :     0.0030464 Eh/α   predicted    -0.5027970E-04 ( -29.16%)
   displ. norm   :     0.1609213 α      lambda       -0.8002802E-04
   maximum displ.:     0.0667732 α      in ANC's #12, #14, #5, ...

........................................................................
.............................. CYCLE    9 ..............................
........................................................................

 iter      E             dE          RMSdq      gap      omega  full diag
   1   -413.3462850 -0.413346E+03  0.221E-02    0.23       0.0  T
   2   -413.3462269  0.580066E-04  0.176E-02    0.22       1.0  T
   3   -413.3456865  0.540459E-03  0.369E-02    0.23       1.0  T
   4   -413.3460148 -0.328294E-03  0.230E-02    0.22       1.0  T
   5   -413.3462633 -0.248565E-03  0.708E-03    0.23       1.0  T
   6   -413.3462892 -0.258746E-04  0.218E-03    0.23       3.2  T
   7   -413.3462911 -0.183083E-05  0.771E-04    0.22       9.0  T
   8   -413.3462913 -0.231312E-06  0.328E-04    0.22      21.2  T
   9   -413.3462913 -0.647748E-08  0.279E-04    0.22      25.0  T
     SCC iter.                  ...        0 min,  1.601 sec
     gradient                   ...        0 min,  0.436 sec
 * total energy  :  -406.3302944 Eh     change       -0.5655392E-04 Eh
   gradient norm :     0.0031479 Eh/α   predicted    -0.4105464E-04 ( -27.41%)
   displ. norm   :     0.1618384 α      lambda       -0.6096546E-04
   maximum displ.:     0.0704345 α      in ANC's #12, #14, #5, ...

........................................................................
.............................. CYCLE   10 ..............................
........................................................................

 iter      E             dE          RMSdq      gap      omega  full diag
   1   -413.3457559 -0.413346E+03  0.207E-02    0.23       0.0  T
   2   -413.3457015  0.543588E-04  0.166E-02    0.23       1.0  T
   3   -413.3451627  0.538841E-03  0.367E-02    0.23       1.0  T
   4   -413.3455458 -0.383096E-03  0.207E-02    0.22       1.0  T
   5   -413.3457286 -0.182899E-03  0.752E-03    0.23       1.0  T
   6   -413.3457604 -0.317599E-04  0.134E-03    0.23       5.2  T
   7   -413.3457609 -0.516399E-06  0.811E-04    0.23       8.6  T
   8   -413.3457612 -0.241553E-06  0.309E-04    0.23      22.6  T
     SCC iter.                  ...        0 min,  1.424 sec
     gradient                   ...        0 min,  0.443 sec
 * total energy  :  -406.3303378 Eh     change       -0.4341606E-04 Eh
   gradient norm :     0.0023606 Eh/α   predicted    -0.3128404E-04 ( -27.94%)
   displ. norm   :     0.1503560 α      lambda       -0.4809697E-04
   maximum displ.:     0.0644998 α      in ANC's #5, #12, #14, ...

........................................................................
.............................. CYCLE   11 ..............................
........................................................................

 iter      E             dE          RMSdq      gap      omega  full diag
   1   -413.3469984 -0.413347E+03  0.181E-02    0.23       0.0  T
   2   -413.3469348  0.636458E-04  0.162E-02    0.23       1.0  T
   3   -413.3465293  0.405512E-03  0.325E-02    0.24       1.0  T
   4   -413.3468723 -0.343060E-03  0.172E-02    0.23       1.0  T
   5   -413.3469790 -0.106629E-03  0.685E-03    0.23       1.0  T
   6   -413.3470023 -0.233514E-04  0.146E-03    0.23       4.8  T
   7   -413.3470032 -0.873805E-06  0.823E-04    0.23       8.5  T
   8   -413.3470035 -0.277165E-06  0.319E-04    0.23      21.9  T
     SCC iter.                  ...        0 min,  1.443 sec
     gradient                   ...        0 min,  0.443 sec
 * total energy  :  -406.3303709 Eh     change       -0.3313922E-04 Eh
   gradient norm :     0.0016750 Eh/α   predicted    -0.2459390E-04 ( -25.79%)
   displ. norm   :     0.1611256 α      lambda       -0.2864948E-04
   maximum displ.:     0.0775757 α      in ANC's #5, #12, #14, ...

........................................................................
.............................. CYCLE   12 ..............................
........................................................................

 iter      E             dE          RMSdq      gap      omega  full diag
   1   -413.3490530 -0.413349E+03  0.180E-02    0.23       0.0  T
   2   -413.3489713  0.816587E-04  0.178E-02    0.23       1.0  T
   3   -413.3486923  0.279071E-03  0.288E-02    0.24       1.0  T
   4   -413.3488693 -0.177068E-03  0.208E-02    0.23       1.0  T
   5   -413.3490442 -0.174832E-03  0.577E-03    0.23       1.2  T
   6   -413.3490577 -0.135322E-04  0.191E-03    0.23       3.7  T
   7   -413.3490594 -0.172795E-05  0.625E-04    0.23      11.1  T
   8   -413.3490595 -0.985882E-07  0.421E-04    0.23      16.5  T
   9   -413.3490596 -0.655996E-07  0.210E-04    0.23      33.1  T
     SCC iter.                  ...        0 min,  1.597 sec
     gradient                   ...        0 min,  0.447 sec
 * total energy  :  -406.3303932 Eh     change       -0.2229064E-04 Eh
   gradient norm :     0.0019618 Eh/α   predicted    -0.1449176E-04 ( -34.99%)
   displ. norm   :     0.0457042 α      lambda       -0.1099864E-04
   maximum displ.:     0.0246686 α      in ANC's #5, #8, #3, ...

........................................................................
.............................. CYCLE   13 ..............................
........................................................................

 iter      E             dE          RMSdq      gap      omega  full diag
   1   -413.3491112 -0.413349E+03  0.578E-03    0.23       0.0  T
   2   -413.3490977  0.135076E-04  0.664E-03    0.23       1.0  T
   3   -413.3490943  0.332599E-05  0.650E-03    0.23       1.1  T
   4   -413.3490673  0.269944E-04  0.947E-03    0.23       1.0  T
   5   -413.3491112 -0.438734E-04  0.183E-03    0.23       3.8  T
   6   -413.3491121 -0.919071E-06  0.115E-03    0.23       6.1  T
   7   -413.3491126 -0.515848E-06  0.427E-04    0.23      16.3  T
   8   -413.3491127 -0.334351E-07  0.262E-04    0.23      26.5  T
     SCC iter.                  ...        0 min,  1.410 sec
     gradient                   ...        0 min,  0.453 sec
 * total energy  :  -406.3304043 Eh     change       -0.1108779E-04 Eh
   gradient norm :     0.0010922 Eh/α   predicted    -0.5504830E-05 ( -50.35%)
   displ. norm   :     0.0649874 α      lambda       -0.1056908E-04
   maximum displ.:     0.0344565 α      in ANC's #5, #8, #3, ...

........................................................................
.............................. CYCLE   14 ..............................
........................................................................

 iter      E             dE          RMSdq      gap      omega  full diag
   1   -413.3483078 -0.413348E+03  0.770E-03    0.23       0.0  T
   2   -413.3482953  0.125349E-04  0.708E-03    0.23       1.0  T
   3   -413.3482770  0.182816E-04  0.864E-03    0.23       1.0  T
   4   -413.3482859 -0.893212E-05  0.721E-03    0.23       1.0  T
   5   -413.3483006 -0.147266E-04  0.427E-03    0.23       1.6  T
   6   -413.3483087 -0.801084E-05  0.154E-03    0.23       4.5  T
   7   -413.3483097 -0.101057E-05  0.576E-04    0.23      12.1  T
   8   -413.3483097 -0.812066E-07  0.311E-04    0.23      22.4  T
   9   -413.3483098 -0.407314E-07  0.120E-04    0.23      58.0  T
     SCC iter.                  ...        0 min,  1.629 sec
     gradient                   ...        0 min,  0.449 sec
 * total energy  :  -406.3304142 Eh     change       -0.9897593E-05 Eh
   gradient norm :     0.0010454 Eh/α   predicted    -0.5295699E-05 ( -46.50%)
   displ. norm   :     0.0664380 α      lambda       -0.6550933E-05
   maximum displ.:     0.0404254 α      in ANC's #5, #3, #8, ...

........................................................................
.............................. CYCLE   15 ..............................
........................................................................

 iter      E             dE          RMSdq      gap      omega  full diag
   1   -413.3479606 -0.413348E+03  0.621E-03    0.23       0.0  T
   2   -413.3479579  0.275127E-05  0.451E-03    0.23       1.5  T
   3   -413.3479280  0.298878E-04  0.888E-03    0.23       1.0  T
   4   -413.3479494 -0.214358E-04  0.492E-03    0.23       1.4  T
   5   -413.3479594 -0.100038E-04  0.180E-03    0.23       3.9  T
   6   -413.3479609 -0.147778E-05  0.564E-04    0.23      12.4  T
   7   -413.3479610 -0.109893E-06  0.291E-04    0.23      24.0  T
   8   -413.3479610 -0.245822E-07  0.146E-04    0.23      47.6  T
     SCC iter.                  ...        0 min,  1.433 sec
     gradient                   ...        0 min,  0.472 sec
 * total energy  :  -406.3304220 Eh     change       -0.7798188E-05 Eh
   gradient norm :     0.0011367 Eh/α   predicted    -0.3283780E-05 ( -57.89%)
   displ. norm   :     0.1088047 α      lambda       -0.1015857E-04
   maximum displ.:     0.0650231 α      in ANC's #5, #3, #8, ...

........................................................................
.............................. CYCLE   16 ..............................
........................................................................

 iter      E             dE          RMSdq      gap      omega  full diag
   1   -413.3480736 -0.413348E+03  0.101E-02    0.23       0.0  T
   2   -413.3480696  0.408266E-05  0.676E-03    0.23       1.0  T
   3   -413.3478971  0.172484E-03  0.192E-02    0.23       1.0  T
   4   -413.3480404 -0.143302E-03  0.844E-03    0.23       1.0  T
   5   -413.3480733 -0.329208E-04  0.149E-03    0.23       4.7  T
   6   -413.3480740 -0.737466E-06  0.528E-04    0.23      13.2  T
   7   -413.3480741 -0.826764E-07  0.230E-04    0.23      30.3  T
     SCC iter.                  ...        0 min,  1.268 sec
     gradient                   ...        0 min,  0.450 sec
 * total energy  :  -406.3304327 Eh     change       -0.1069645E-04 Eh
   gradient norm :     0.0010228 Eh/α   predicted    -0.5110319E-05 ( -52.22%)
   displ. norm   :     0.1129687 α      lambda       -0.8492950E-05
   maximum displ.:     0.0699589 α      in ANC's #5, #3, #8, ...

........................................................................
.............................. CYCLE   17 ..............................
........................................................................

 iter      E             dE          RMSdq      gap      omega  full diag
   1   -413.3486330 -0.413349E+03  0.106E-02    0.23       0.0  T
   2   -413.3486313  0.170750E-05  0.651E-03    0.23       1.1  T
   3   -413.3485654  0.658275E-04  0.128E-02    0.23       1.0  T
   4   -413.3486259 -0.604578E-04  0.409E-03    0.23       1.7  T
   5   -413.3486314 -0.554259E-05  0.196E-03    0.23       3.6  T
   6   -413.3486331 -0.164796E-05  0.789E-04    0.23       8.8  T
   7   -413.3486334 -0.275415E-06  0.256E-04    0.23      27.2  T
   8   -413.3486334 -0.186340E-07  0.151E-04    0.23      46.1  T
     SCC iter.                  ...        0 min,  1.435 sec
     gradient                   ...        0 min,  0.434 sec
 * total energy  :  -406.3304411 Eh     change       -0.8430355E-05 Eh
   gradient norm :     0.0007923 Eh/α   predicted    -0.4271523E-05 ( -49.33%)
   displ. norm   :     0.0765193 α      lambda       -0.4289716E-05
   maximum displ.:     0.0496590 α      in ANC's #5, #3, #8, ...

........................................................................
.............................. CYCLE   18 ..............................
........................................................................

 iter      E             dE          RMSdq      gap      omega  full diag
   1   -413.3485250 -0.413349E+03  0.693E-03    0.23       0.0  T
   2   -413.3485218  0.328983E-05  0.491E-03    0.23       1.4  T
   3   -413.3484522  0.695629E-04  0.130E-02    0.23       1.0  T
   4   -413.3485076 -0.554171E-04  0.607E-03    0.23       1.1  T
   5   -413.3485233 -0.156533E-04  0.195E-03    0.23       3.6  T
   6   -413.3485253 -0.206178E-05  0.443E-04    0.23      15.7  T
   7   -413.3485254 -0.660740E-07  0.220E-04    0.23      31.6  T
   8   -413.3485254 -0.165907E-07  0.967E-05    0.23      72.1  T
     SCC iter.                  ...        0 min,  1.380 sec
     gradient                   ...        0 min,  0.457 sec
 * total energy  :  -406.3304458 Eh     change       -0.4671644E-05 Eh
   gradient norm :     0.0005745 Eh/α   predicted    -0.2152179E-05 ( -53.93%)
   displ. norm   :     0.0656480 α      lambda       -0.3997666E-05
   maximum displ.:     0.0442089 α      in ANC's #5, #3, #8, ...

   *** GEOMETRY OPTIMIZATION CONVERGED AFTER 18 ITERATIONS ***

------------------------------------------------------------------------
 total energy gain   :        -0.0349641 Eh      -21.9403 kcal/mol
 total RMSD          :         0.1724920 a0        0.0913 Å
 total power (kW/mol):        -5.0999072 (step)   -2.3349 (real)
------------------------------------------------------------------------

 ANCopt (total)                0 d,  0 h,  0 min, 39.316 sec
 optimizer setup                ...        0 min,  0.004 sec (  0.010%)
 model hessian                  ...        0 min,  0.233 sec (  0.593%)
 ANC generation                 ...        0 min,  0.086 sec (  0.219%)
 coordinate transformation      ...        0 min,  0.005 sec (  0.013%)
 single point calculation       ...        0 min, 38.910 sec ( 98.967%)
 optimization log               ...        0 min,  0.046 sec (  0.117%)
 hessian update                 ...        0 min,  0.010 sec (  0.025%)
 rational function              ...        0 min,  0.018 sec (  0.046%)

================
 final structure:
================
206
 xtb: 6.7.1pre (5071a88)
C           10.03821229771207        7.93687829091628       -1.37755312613771
C            9.42731515681810        9.18532762427812       -1.44703229147952
C            8.07032452574155        9.32422325939551       -1.28046734769299
C            7.26259444114681        8.20541569635070       -1.02332379078653
C            9.27136583787776        6.81907639142837       -1.11313802804594
C            7.88013726279285        6.94117614974928       -0.90695614456609
C            7.12045235987434        5.79268075383032       -0.55767566216597
C            9.85458477194797        3.27170527413419       -0.90474991719681
C            9.19233930495206        4.48937166738053       -0.83245024577543
C            7.81945305683176        4.55654246791531       -0.53056873404866
C            7.11028676285727        3.36574958819498       -0.29351998065799
C            9.77625170906664        0.78527290763615       -0.70657030382947
C            9.16003219028750        2.07473993782712       -0.72851485908806
C            7.76736225058168        2.12999697462314       -0.44336885345617
C            7.05090091415539        0.93024959033179       -0.27766330524081
C            9.56488960568364       -1.67699481999755       -0.46447740557329
C            9.01950696414164       -0.34989471530266       -0.59736398428431
C            7.00874842834912       -1.64348143103547        1.02522540036520
C            8.93860937490922       -2.81196483407456       -0.00741017224403
C            7.61628905293167       -2.80344696279493        0.56202313557606
C            6.84100417882413       -3.97401299109859        0.43653288278669
C            9.48013885822014       -6.39102761962979       -0.41400653256941
C            8.85687363554501       -5.19516097911381       -0.15842024329917
C            7.46477012920385       -5.19162489887937        0.10755671948440
C            6.71011223357327       -6.37723641165491        0.07378038301797
C            9.35366354193325       -8.83888920947258       -0.74242293005326
C            8.74263029771626       -7.60681236013685       -0.45724997838040
C            7.34153022634258       -7.59932701698507       -0.23196229526226
C            6.57179965039981       -8.79348671622200       -0.32096945104151
C            8.60586205036343       -9.99682949998343       -0.80994707767800
C            7.23345284871526       -9.98889410068607       -0.61134033843425
C            5.83678595066056        8.25226575201838       -0.90897018262756
C            5.08484782402512        9.45798081053987       -1.10815840856126
C            3.76964089165733        9.51148960327419       -0.78363599705215
C            3.07733300810758        8.33537902881901       -0.37142128462745
C            5.73970390423509        5.86042400384106       -0.29025559037272
C            5.10711987685904        7.10703771707281       -0.60126879206524
C            3.07249610566065        5.83612719468080        1.08297859847120
C            5.74303985889145        3.42234447132985        0.06552805276254
C            5.07457125513607        4.66762350793210        0.18307372386432
C            3.74063605021270        4.66842626812240        0.68053199345139
C            3.00060755358001        3.45733785119436        0.66704548797084
C            5.74676392741890        0.94234257817989        0.22686342107182
C            5.07109337204804        2.19629454827036        0.31125219567714
C            3.67822289841028        2.23670411078566        0.52679448509243
C            2.92199699237477        1.04495683839107        0.51589221574975
C            5.62330410119026       -1.50334979750145        0.85169273061014
C            4.99716145765341       -0.24831908156654        0.58379810768745
C            3.61155131739179       -0.20301974225499        0.55682959142506
C            2.80864659717785       -1.37284500578085        0.70779688459785
C            5.46159680897105       -3.92743196530589        0.66852601786976
C            4.84015280411679       -2.67591023577876        0.79953015048465
C            3.43323623193908       -2.61835128171587        0.82131665007573
C            2.65782840903028       -3.79292052468011        0.87321486540336
C            5.31509231425736       -6.32951650153853        0.32344117020421
C            4.69007886751289       -5.10670690488024        0.60288849440919
C            3.29512132532824       -5.04580427612048        0.78808587213157
C            2.52924276894069       -6.23614898541600        0.83462421675994
C            5.15654463515107       -8.70373027345450       -0.14001184606716
C            4.51323397245150       -7.48911781606368        0.18290325569561
C            3.11416656345616       -7.43219734821581        0.37364755218208
C            2.32674390290781       -8.60328478855195       -0.04741914896847
C            3.09372863646437       -9.75309902476277       -0.24710339359565
C            1.81043978708115        8.32698535504792        0.20490068689771
C            1.10438789712874        9.57331407539683        0.34157267998601
C           -0.24034944543004        9.62815052074371        0.38151886235593
C           -1.05178357505946        8.44360292570014        0.29812762629109
C            1.69593203815087        5.92286022320266        0.92301779962738
C            1.03776996293878        7.17282296329888        0.64120844165319
C           -0.35344674228907        7.23070840646277        0.68580689481578
C           -1.09600909585693        6.04263509461130        1.02628701579986
C            1.59679990492661        3.46702682178913        0.84136220521042
C            0.94477402935953        4.71902247745062        0.88023923772992
C           -0.45601043706839        4.78308078360508        0.94155571400708
C           -1.21119987944818        3.59321733716291        1.06105924250579
C            1.53628953906502        1.06195300868358        0.57352088279179
C            0.83392326150997        2.26125398641606        0.87753809851085
C           -0.56517570108465        2.34142088988856        1.13794522320678
C           -1.38181113776929        1.18218661803004        1.35445480679322
C            1.41204102702417       -1.29316446748637        0.64404562561473
C           -0.87209850419639       -0.04097130789290        1.77363737583229
C           -1.51378430918695       -1.23102157663667        1.37281035559277
C            1.24969664295131       -3.70103942234570        0.89870987029818
C            0.60745693064494       -2.43486730208951        0.87457530547747
C           -0.82013177746816       -2.42502999224806        1.06317453826903
C           -1.55330284233020       -3.62176337503876        0.80394069299890
C            1.17041177218705       -6.10856254588269        1.20394280108502
C            0.49992237605678       -4.90609886409055        0.98044410439793
C           -0.90507153117552       -4.86998827417227        0.68819121074559
C           -1.62861192094485       -6.03111771280532        0.23961621949733
C            0.94439062856367       -8.59023116721245       -0.34234249187971
C           -1.04849240814974       -7.25983674904195       -0.19372018199757
C           -1.83308297360116       -8.39706819169169       -0.43529698966605
C            0.16428221675384       -9.74349980654097       -0.55173063384307
C           -1.18671823850819       -9.65206577939010       -0.68122524783898
C           -2.35282635324881        8.55085381762467       -0.18439708807889
C           -2.96901357617145        9.78063519107220       -0.55491256303421
C           -4.31035549701006        9.83884050076054       -0.74187291310220
C           -5.13357773606834        8.70619760890784       -0.44033653468232
C           -2.45948890070200        6.06871176573827        1.30348946991441
C           -4.48748986414290        7.49722929750422       -0.22060230613500
C           -5.20188095853908        6.30031615187561        0.11692087674560
C           -2.62621834943798        3.68838720478797        0.98861013325049
C           -3.24865195992576        4.95287906144721        0.97878516698571
C           -4.61536697636641        5.06564676418789        0.54123688161893
C           -5.37718913685707        3.87320782637148        0.45135161456173
C           -2.77154672372637        1.26829091736295        1.06862716709708
C           -3.40119532348016        2.50912972223206        0.90282118526016
C           -4.79875401192358        2.58411986972630        0.67052466482398
C           -5.56876874613707        1.40693038481999        0.60126428499977
C           -2.90517602480893       -1.15671080186219        1.12360207538470
C           -3.54602433575934        0.09408895310717        1.07047546433245
C           -4.95509429195101        0.16917484193780        0.96173746770653
C           -5.66420132472571       -1.02696464007562        1.11692005255802
C           -2.97236160926413       -3.55141098873120        0.67104147826170
C           -3.63537001981513       -2.32054274325887        0.83388288943065
C           -5.04833438407125       -2.23347251576365        0.77131925539859
C           -5.78294576329076       -3.34499107104879        0.27432567471681
C           -3.05599490012670       -5.93381397717713        0.15130683816955
C           -3.72532920186050       -4.70334406096414        0.36802244850236
C           -5.13560172239789       -4.58356956574804        0.15666716140100
C           -5.88931851301404       -5.73703570846421       -0.20766513252734
C           -3.23159632537792       -8.29307803577704       -0.40326382943851
C           -3.84421820604703       -7.06111561285254       -0.18422974959591
C           -5.26034429648773       -6.96076278079175       -0.32290702570767
C           -5.99940253761948       -8.16860325721471       -0.60682386177700
C           -5.29252632011983       -9.32193350712704       -0.73283182142861
C           -6.56444987788575        8.79448754613759       -0.38748304594550
C           -7.25779938594567       10.00147067025006       -0.47903553142162
C           -8.64130750563616       10.02223582573518       -0.51887220958074
C           -9.36159916770706        8.84786036688134       -0.49044421134568
C           -6.61818565296668        6.35764990491117       -0.06379047616254
C           -7.29255151545235        7.58552307374084       -0.28238413247013
C           -8.70965456949421        7.61508340599853       -0.37612702786366
C           -9.43728718806894        6.40134203834646       -0.37562861744543
C           -6.75132106930239        3.92720201693652        0.16040849074029
C           -7.37994066323546        5.16946894512230       -0.02582873199917
C           -8.78545552413736        5.21093315457061       -0.24436913353122
C           -6.91716389334614        1.46171416619626        0.08347893193253
C           -7.52223855096399        2.73974570521902       -0.00360693246495
C           -8.89311781162906        2.85797444744332       -0.30767539693768
C           -9.65991830125995        1.73919722950839       -0.56111882368266
C           -7.67138525488188        0.37079303634884       -0.39887091911607
C           -9.04928661045247        0.48326468433302       -0.64374294792881
C           -9.78195690921107       -0.71467424419305       -0.91967382319951
C           -7.13444167000365       -3.18819365055402       -0.20309700258313
C           -7.75934424764514       -1.99197406864921       -0.54612566859118
C           -9.16118374983388       -1.92925149022447       -0.79307601538950
C           -7.29847018647041       -5.63597924422590       -0.44358230057047
C           -7.90233489214895       -4.37871716278250       -0.45694960440531
C           -9.27885465545246       -4.27546450494703       -0.77378547830995
C          -10.03442576766611       -5.39589805803643       -0.99286794041497
C           -7.44446375876932       -8.08499185281764       -0.76106441143019
C           -8.05503098605933       -6.80419918259242       -0.71657964475340
C           -9.44795821433510       -6.67924912333857       -0.95786128911264
C          -10.21128199923081       -7.83793511148369       -1.18143189102492
C           -8.24122779120298       -9.19744610409509       -0.98099447245161
C           -9.61429140043501       -9.07233722462366       -1.17857871955146
H           11.10003552477560        7.82409349716822       -1.52452629465586
H           10.03526976866803       10.05538550570884       -1.64394846641747
H            7.63240296993067       10.30655035560773       -1.34619606838363
H           10.91192225213998        3.26374498604803       -1.11691590333768
H           10.85122822395296        0.71455719373720       -0.72118573510537
H           10.57956939785865       -1.79092321796764       -0.81803162536642
H           10.54036540559740       -6.41478837437609       -0.61233426996683
H           10.41944810958638       -8.87102802015626       -0.91286779378222
H            5.58526208936820       10.34224213082001       -1.46440698763560
H            3.24130526988481       10.44604430587071       -0.84943935312149
H            1.66351287588386       10.49301976695422        0.39750046668530
H           -0.71906292852010       10.58991419840199        0.46791950242152
H           -2.36692865251945       10.66062620745840       -0.69609648344759
H           -4.76820544707740       10.75605882984576       -1.07117244660537
H           -6.72334158961391       10.93710683222670       -0.51309994160414
H           -9.15712812703498       10.96902616919307       -0.58642090474249
H          -10.43964966825123        8.86557663907140       -0.54867030302080
H          -10.50724940914338        6.41678671300853       -0.50761874497185
H          -10.71749308492929        1.84395832765235       -0.73899312339348
H          -10.84058340252052       -0.66475605467684       -1.10908734596734
H          -11.08618639634399       -5.29291998659335       -1.20804467267845
H          -11.27213748816382       -7.73901859677574       -1.35638489336738
H          -10.20563419707877       -9.96101051887984       -1.34344213106912
H            9.09813155324402      -10.93333407186820       -1.02944437127540
H            6.66821163751070      -10.90557260805465       -0.68068851830905
H            2.65922259078967      -10.72113924119896       -0.44690241362795
H            0.64060943589046      -10.70737753578344       -0.59036301860417
H           -1.79808246754320      -10.51650900937607       -0.87396155006076
H           -5.73071233480250      -10.28654623300478       -0.93392119708500
H           -7.80655697456974      -10.18378768661197       -1.00453393602097
O            4.40508004796473       -9.81599544714805       -0.26024124908591
O            0.29773112761894       -7.35767654508274       -0.44689199822268
O           -3.95600808459060       -9.41817112853617       -0.64800203044600
O           -9.90481889157427       -3.06241458642235       -0.84832108989113
O           -7.05498433767070       -0.82319828036106       -0.68170433198198
O           -9.51691405253162        4.06431715591574       -0.33987207929131
O           -3.13278076164353        7.42983314458391       -0.40161155874418
O            0.84820199001869       -0.09502799594180        0.31483698682221
O            9.56159142457775       -4.01778386578800       -0.21423594562614
O            7.65221804383413       -0.23968069228546       -0.66288609263436
O            9.91199573075844        5.61865133849449       -1.06412893123439
O            3.74348008872474        7.15371712589214       -0.65274277766235
H            7.59497278991716       -0.84048890376923        1.44320796320840
H            3.62986154333970        6.67424655334157        1.47380310702854
H            0.03914637415601       -0.08430410344817        2.35275204412951
H            0.65184784239283       -6.93869913729413        1.65807833518225
H           -2.91544751226331        6.95565178102776        1.71726394601880
H           -6.68515523618202       -1.01884841506218        1.46789519362688
 
 Bond Distances (Angstroems)
 ---------------------------
C1-C2=1.3916         C1-C5=1.3811         C1-H159=1.0779       C2-C1=1.3916         C2-C3=1.3742         C2-H160=1.0795       
C3-C2=1.3742         C3-C4=1.4037         C3-H161=1.0775       C4-C3=1.4037         C4-C6=1.4118         C4-C32=1.4312        
C5-C1=1.3811         C5-C6=1.4117         C5-O199=1.3616       C6-C4=1.4118         C6-C5=1.4117         C6-C7=1.4206         
C7-C6=1.4206         C7-C10=1.4203        C7-C36=1.4080        C8-C9=1.3880         C8-C13=1.3951        C8-H162=1.0784       
C9-C8=1.3880         C9-C10=1.4073        C9-O199=1.3590       C10-C7=1.4203        C10-C9=1.4073        C10-C11=1.4061       
C11-C10=1.4061       C11-C14=1.4076       C11-C39=1.4147       C12-C13=1.4293       C12-C17=1.3686       C12-H163=1.0774      
C13-C8=1.3951        C13-C12=1.4293       C13-C14=1.4226       C14-C11=1.4076       C14-C13=1.4226       C14-C15=1.4072       
C15-C14=1.4072       C15-C43=1.3984       C15-O198=1.3707      C16-C17=1.4409       C16-C19=1.3745       C16-H164=1.0805      
C17-C12=1.3686       C17-C16=1.4409       C17-O198=1.3733      C18-C20=1.3890       C18-C47=1.4033       C18-H201=1.0785      
C19-C16=1.3745       C19-C20=1.4397       C19-O197=1.3729      C20-C18=1.3890       C20-C19=1.4397       C20-C21=1.4096       
C21-C20=1.4096       C21-C24=1.4071       C21-C51=1.3996       C22-C23=1.3725       C22-C27=1.4226       C22-H165=1.0789      
C23-C22=1.3725       C23-C24=1.4173       C23-O197=1.3733      C24-C21=1.4071       C24-C23=1.4173       C24-C25=1.4058       
C25-C24=1.4058       C25-C28=1.4091       C25-C55=1.4180       C26-C27=1.4045       C26-C30=1.3801       C26-H166=1.0798      
C27-C22=1.4226       C27-C26=1.4045       C27-C28=1.4191       C28-C25=1.4091       C28-C27=1.4191       C28-C29=1.4235       
C29-C28=1.4235       C29-C31=1.3968       C29-C59=1.4296       C30-C26=1.3801       C30-C31=1.3867       C30-H182=1.0805      
C31-C29=1.3968       C31-C30=1.3867       C31-H183=1.0792      C32-C4=1.4312        C32-C33=1.4349       C32-C37=1.3924       
C33-C32=1.4349       C33-C34=1.3557       C33-H167=1.0767      C34-C33=1.3557       C34-C35=1.4256       C34-H168=1.0756      
C35-C34=1.4256       C35-C64=1.3918       C35-O200=1.3854      C36-C7=1.4080        C36-C37=1.4321       C36-C40=1.4454       
C37-C32=1.3924       C37-C36=1.4321       C37-O200=1.3654      C38-C41=1.4042       C38-C68=1.3885       C38-H202=1.0797      
C39-C11=1.4147       C39-C40=1.4182       C39-C44=1.4195       C40-C36=1.4454       C40-C39=1.4182       C40-C41=1.4237       
C41-C38=1.4042       C41-C40=1.4237       C41-C42=1.4194       C42-C41=1.4194       C42-C45=1.4031       C42-C72=1.4146       
C43-C15=1.3984       C43-C44=1.4269       C43-C48=1.4515       C44-C39=1.4195       C44-C43=1.4269       C44-C45=1.4100       
C45-C42=1.4031       C45-C44=1.4100       C45-C46=1.4115       C46-C45=1.4115       C46-C49=1.4264       C46-C76=1.3870       
C47-C18=1.4033       C47-C48=1.4279       C47-C52=1.4110       C48-C43=1.4515       C48-C47=1.4279       C48-C49=1.3866       
C49-C46=1.4264       C49-C48=1.3866       C49-C50=1.4269       C50-C49=1.4269       C50-C53=1.3980       C50-C80=1.4003       
C51-C21=1.3996       C51-C52=1.4034       C51-C56=1.4108       C52-C47=1.4110       C52-C51=1.4034       C52-C53=1.4083       
C53-C50=1.3980       C53-C52=1.4083       C53-C54=1.4084       C54-C53=1.4084       C54-C57=1.4082       C54-C83=1.4114       
C55-C25=1.4180       C55-C56=1.4014       C55-C60=1.4168       C56-C51=1.4108       C56-C55=1.4014       C56-C57=1.4085       
C57-C54=1.4082       C57-C56=1.4085       C57-C58=1.4162       C58-C57=1.4162       C58-C61=1.4090       C58-C87=1.4139       
C59-C29=1.4296       C59-C60=1.4119       C59-O189=1.3477      C60-C55=1.4168       C60-C59=1.4119       C60-C61=1.4132       
C61-C58=1.4090       C61-C60=1.4132       C61-C62=1.4727       C62-C61=1.4727       C62-C63=1.3965       C62-C91=1.4135       
C63-C62=1.3965       C63-H184=1.0797      C63-O189=1.3129      C64-C35=1.3918       C64-C65=1.4389       C64-C69=1.4558       
C65-C64=1.4389       C65-C66=1.3464       C65-H169=1.0778      C66-C65=1.3464       C66-C67=1.4382       C66-H170=1.0778      
C67-C66=1.4382       C67-C70=1.4523       C67-C96=1.3918       C68-C38=1.3885       C68-C69=1.4405       C68-C73=1.4196       
C69-C64=1.4558       C69-C68=1.4405       C69-C70=1.3931       C70-C67=1.4523       C70-C69=1.3931       C70-C71=1.4418       
C71-C70=1.4418       C71-C74=1.4154       C71-C100=1.3916      C72-C42=1.4146       C72-C73=1.4121       C72-C77=1.4273       
C73-C68=1.4196       C73-C72=1.4121       C73-C74=1.4036       C74-C71=1.4154       C74-C73=1.4036       C74-C75=1.4143       
C75-C74=1.4143       C75-C78=1.4108       C75-C103=1.4201      C76-C46=1.3870       C76-C77=1.4227       C76-O196=1.3708      
C77-C72=1.4273       C77-C76=1.4227       C77-C78=1.4254       C78-C75=1.4108       C78-C77=1.4254       C78-C79=1.4344       
C79-C78=1.4344       C79-C81=1.3898       C79-C107=1.4214      C80-C50=1.4003       C80-C84=1.4156       C80-O196=1.3645      
C81-C79=1.3898       C81-C82=1.4102       C81-H203=1.0806      C82-C81=1.4102       C82-C85=1.4152       C82-C111=1.4155      
C83-C54=1.4114       C83-C84=1.4199       C83-C88=1.4216       C84-C80=1.4156       C84-C83=1.4199       C84-C85=1.4400       
C85-C82=1.4152       C85-C84=1.4400       C85-C86=1.4272       C86-C85=1.4272       C86-C89=1.4113       C86-C115=1.4270      
C87-C58=1.4139       C87-C88=1.3948       C87-H204=1.0790      C88-C83=1.4216       C88-C87=1.3948       C88-C89=1.4355       
C89-C86=1.4113       C89-C88=1.4355       C89-C90=1.4398       C90-C89=1.4398       C90-C92=1.4262       C90-C119=1.4334      
C91-C62=1.4135       C91-C94=1.4080       C91-O190=1.3958      C92-C90=1.4262       C92-C93=1.4026       C92-O190=1.3733      
C93-C92=1.4026       C93-C95=1.4329       C93-C123=1.4027      C94-C91=1.4080       C94-C95=1.3603       C94-H185=1.0758      
C95-C93=1.4329       C95-C94=1.3603       C95-H186=1.0762      C96-C67=1.3918       C96-C97=1.4245       C96-O195=1.3828      
C97-C96=1.4245       C97-C98=1.3556       C97-H171=1.0756      C98-C97=1.3556       C98-C99=1.4323       C98-H172=1.0767      
C99-C98=1.4323       C99-C101=1.3883      C99-C128=1.4346      C100-C71=1.3916      C100-C104=1.4047     C100-H205=1.0797     
C101-C99=1.3883      C101-C102=1.4342     C101-O195=1.3684     C102-C101=1.4342     C102-C105=1.4312     C102-C132=1.4289     
C103-C75=1.4201      C103-C104=1.4094     C103-C108=1.4137     C104-C100=1.4047     C104-C103=1.4094     C104-C105=1.4395     
C105-C102=1.4312     C105-C104=1.4395     C105-C106=1.4179     C106-C105=1.4179     C106-C109=1.4298     C106-C136=1.4056     
C107-C79=1.4214      C107-C108=1.4013     C107-C112=1.4066     C108-C103=1.4137     C108-C107=1.4013     C108-C109=1.4187     
C109-C106=1.4298     C109-C108=1.4187     C109-C110=1.4084     C110-C109=1.4084     C110-C113=1.4278     C110-C139=1.4454     
C111-C82=1.4155      C111-C112=1.4064     C111-C116=1.4041     C112-C107=1.4066     C112-C111=1.4064     C112-C113=1.4153     
C113-C110=1.4278     C113-C112=1.4153     C113-C114=1.3992     C114-C113=1.3992     C114-C117=1.3980     C114-H206=1.0796     
C115-C86=1.4270      C115-C116=1.4075     C115-C120=1.4092     C116-C111=1.4041     C116-C115=1.4075     C116-C117=1.4170     
C117-C114=1.3980     C117-C116=1.4170     C117-C118=1.4220     C118-C117=1.4220     C118-C121=1.4025     C118-C146=1.4419     
C119-C90=1.4334      C119-C120=1.4174     C119-C124=1.4159     C120-C115=1.4092     C120-C119=1.4174     C120-C121=1.4310     
C121-C118=1.4025     C121-C120=1.4310     C121-C122=1.4252     C122-C121=1.4252     C122-C125=1.3807     C122-C149=1.4323     
C123-C93=1.4027      C123-C124=1.3932     C123-O191=1.3603     C124-C119=1.4159     C124-C123=1.3932     C124-C125=1.4264     
C125-C122=1.3807     C125-C124=1.4264     C125-C126=1.4442     C126-C125=1.4442     C126-C127=1.3586     C126-C153=1.4557     
C127-C126=1.3586     C127-H187=1.0784     C127-O191=1.3427     C128-C99=1.4346      C128-C129=1.3950     C128-C133=1.4152     
C129-C128=1.3950     C129-C130=1.3842     C129-H173=1.0781     C130-C129=1.3842     C130-C131=1.3780     C130-H174=1.0803     
C131-C130=1.3780     C131-C134=1.3992     C131-H175=1.0798     C132-C102=1.4289     C132-C133=1.4178     C132-C137=1.4119     
C133-C128=1.4152     C133-C132=1.4178     C133-C134=1.4205     C134-C131=1.3992     C134-C133=1.4205     C134-C135=1.4151     
C135-C134=1.4151     C135-C138=1.3635     C135-H176=1.0782     C136-C106=1.4056     C136-C137=1.4047     C136-C140=1.4252     
C137-C132=1.4119     C137-C136=1.4047     C137-C138=1.4230     C138-C135=1.3635     C138-C137=1.4230     C138-O194=1.3634     
C139-C110=1.4454     C139-C140=1.4167     C139-C143=1.4112     C140-C136=1.4252     C140-C139=1.4167     C140-C141=1.4092     
C141-C140=1.4092     C141-C142=1.3798     C141-O194=1.3585     C142-C141=1.3798     C142-C144=1.3990     C142-H177=1.0775     
C143-C139=1.4112     C143-C144=1.4040     C143-O193=1.3732     C144-C142=1.3990     C144-C143=1.4040     C144-C145=1.4311     
C145-C144=1.4311     C145-C148=1.3699     C145-H178=1.0766     C146-C118=1.4419     C146-C147=1.3925     C146-C150=1.4393     
C147-C146=1.3925     C147-C148=1.4248     C147-O193=1.3713     C148-C145=1.3699     C148-C147=1.4248     C148-O192=1.3565     
C149-C122=1.4323     C149-C150=1.3948     C149-C154=1.4183     C150-C146=1.4393     C150-C149=1.3948     C150-C151=1.4163     
C151-C150=1.4163     C151-C152=1.3690     C151-O192=1.3671     C152-C151=1.3690     C152-C155=1.4114     C152-H179=1.0785     
C153-C126=1.4557     C153-C154=1.4196     C153-C157=1.3859     C154-C149=1.4183     C154-C153=1.4196     C154-C155=1.4192     
C155-C152=1.4114     C155-C154=1.4192     C155-C156=1.4054     C156-C155=1.4054     C156-C158=1.3712     C156-H180=1.0797     
C157-C153=1.3859     C157-C158=1.3928     C157-H188=1.0781     C158-C156=1.3712     C158-C157=1.3928     C158-H181=1.0801     
H159-C1=1.0779       H160-C2=1.0795       H161-C3=1.0775       H162-C8=1.0784       H163-C12=1.0774      H164-C16=1.0805      
H165-C22=1.0789      H166-C26=1.0798      H167-C33=1.0767      H168-C34=1.0756      H169-C65=1.0778      H170-C66=1.0778      
H171-C97=1.0756      H172-C98=1.0767      H173-C129=1.0781     H174-C130=1.0803     H175-C131=1.0798     H176-C135=1.0782     
H177-C142=1.0775     H178-C145=1.0766     H179-C152=1.0785     H180-C156=1.0797     H181-C158=1.0801     H182-C30=1.0805      
H183-C31=1.0792      H184-C63=1.0797      H185-C94=1.0758      H186-C95=1.0762      H187-C127=1.0784     H188-C157=1.0781     
O189-C59=1.3477      O189-C63=1.3129      O190-C91=1.3958      O190-C92=1.3733      O191-C123=1.3603     O191-C127=1.3427     
O192-C148=1.3565     O192-C151=1.3671     O193-C143=1.3732     O193-C147=1.3713     O194-C138=1.3634     O194-C141=1.3585     
O195-C96=1.3828      O195-C101=1.3684     O196-C76=1.3708      O196-C80=1.3645      O197-C19=1.3729      O197-C23=1.3733      
O198-C15=1.3707      O198-C17=1.3733      O199-C5=1.3616       O199-C9=1.3590       O200-C35=1.3854      O200-C37=1.3654      
H201-C18=1.0785      H202-C38=1.0797      H203-C81=1.0806      H204-C87=1.0790      H205-C100=1.0797     H206-C114=1.0796     
 C  H  Rav=1.0784 sigma=0.0014  Rmin=1.0756  Rmax=1.0806    36
 C  C  Rav=1.4114 sigma=0.0203  Rmin=1.3464  Rmax=1.4727   207
 O  C  Rav=1.3654 sigma=0.0156  Rmin=1.3129  Rmax=1.3958    24
 
 selected bond angles (degree)
 --------------------
C5-C1-C2=119.47                H159-C1-C2=121.30              H159-C1-C5=119.24              C3-C2-C1=121.20                
H160-C2-C1=119.01              H160-C2-C3=119.79              C4-C3-C2=120.66                H161-C3-C2=119.08              
H161-C3-C4=120.26              C6-C4-C3=118.50                C32-C4-C3=124.18               C32-C4-C6=117.29               
C6-C5-C1=120.34                O199-C5-C1=117.34              O199-C5-C6=122.32              C5-C6-C4=119.77                
C7-C6-C4=120.68                C7-C6-C5=119.54                C10-C7-C6=116.43               C36-C7-C6=122.15               
C36-C7-C10=121.39              C13-C8-C9=120.57               H162-C8-C9=118.98              H162-C8-C13=120.44             
C10-C9-C8=121.23               O199-C9-C8=117.87              O199-C9-C10=120.90             C9-C10-C7=121.17               
C11-C10-C7=119.48              C11-C10-C9=119.19              
 
 selected dihedral angles (degree)
 ---------------------------------
C3-C2-C1-C5=358.85            C3-C2-C1-H159=178.95          H160-C2-C1-C5=179.37          H160-C2-C1-H159=359.47        
C4-C3-C2-C1=  0.54            C4-C3-C2-H160=180.02          H161-C3-C2-C1=180.32          H161-C3-C2-H160=359.79        
C6-C4-C3-C2=  1.55            C6-C4-C3-H161=181.78          C32-C4-C3-C2=183.51           C32-C4-C3-H161=  3.74         
C6-C5-C1-C2=359.63            C6-C5-C1-H159=179.53          O199-C5-C1-C2=179.55          O199-C5-C1-H159=359.45        
C5-C6-C4-C3=356.97            C5-C6-C4-C32=175.15           C7-C6-C4-C3=175.70            C7-C6-C4-C32=353.88           
C4-C6-C5-C1=  2.47            C4-C6-C5-O199=182.55          C7-C6-C5-C1=183.73            C7-C6-C5-O199=  3.81          
C10-C7-C6-C4=176.98           C10-C7-C6-C5=355.71           C36-C7-C6-C4=358.83           C36-C7-C6-C5=177.56           
C10-C9-C8-C13=  2.45          C10-C9-C8-H162=181.36         O199-C9-C8-C13=182.51         O199-C9-C8-H162=  1.43        
C9-C10-C7-C6=  0.17           C9-C10-C7-C36=178.34          C11-C10-C7-C6=184.84          C11-C10-C7-C36=  3.00         
C7-C10-C9-C8=184.90           C7-C10-C9-O199=  4.83         C11-C10-C9-C8=  0.24          C11-C10-C9-O199=180.17        
           -------------------------------------------------
          |                Final Singlepoint                |
           -------------------------------------------------

          ...................................................
          :                      SETUP                      :
          :.................................................:
          :  # basis functions                 716          :
          :  # atomic orbitals                 716          :
          :  # shells                          376          :
          :  # electrons                       740          :
          :  max. iterations                   250          :
          :  Hamiltonian                  GFN2-xTB          :
          :  restarted?                      false          :
          :  GBSA solvation                  false          :
          :  PC potential                    false          :
          :  electronic temp.          300.0000000     K    :
          :  accuracy                    1.0000000          :
          :  -> integral cutoff          0.2500000E+02      :
          :  -> integral neglect         0.1000000E-07      :
          :  -> SCF convergence          0.1000000E-05 Eh   :
          :  -> wf. convergence          0.1000000E-03 e    :
          :  Broyden damping             0.4000000          :
          :  net charge                          0          :
          :  unpaired electrons                  0          :
          ...................................................

 iter      E             dE          RMSdq      gap      omega  full diag
   1   -413.3485254 -0.413349E+03  0.678E-05    0.23       0.0  T
   2   -413.3485254  0.154741E-07  0.181E-04    0.23      38.4  T
   3   -413.3485254 -0.171269E-07  0.296E-05    0.23     235.2  T

   *** convergence criteria satisfied after 3 iterations ***

         #    Occupation            Energy/Eh            Energy/eV
      -------------------------------------------------------------
         1        2.0000           -0.7660016             -20.8440
       ...           ...                  ...                  ...
       364        2.0000           -0.3547466              -9.6531
       365        2.0000           -0.3520073              -9.5786
       366        2.0000           -0.3407592              -9.2725
       367        2.0000           -0.3318821              -9.0310
       368        1.9999           -0.3280508              -8.9267
       369        1.9986           -0.3253480              -8.8532
       370        1.9777           -0.3227084              -8.7813 (HOMO)
       371        0.0237           -0.3142455              -8.5511 (LUMO)
       372        0.0000           -0.3046439              -8.2898
       373                         -0.3021350              -8.2215
       374                         -0.3002418              -8.1700
       375                         -0.2946877              -8.0189
       ...                                ...                  ...
       716                          0.7700811              20.9550
      -------------------------------------------------------------
                  HL-Gap            0.0084629 Eh            0.2303 eV
             Fermi-level           -0.3184460 Eh           -8.6654 eV

 SCC (total)                   0 d,  0 h,  0 min,  1.127 sec
 SCC setup                      ...        0 min,  0.003 sec (  0.266%)
 Dispersion                     ...        0 min,  0.009 sec (  0.799%)
 classical contributions        ...        0 min,  0.001 sec (  0.089%)
 integral evaluation            ...        0 min,  0.082 sec (  7.276%)
 iterations                     ...        0 min,  0.540 sec ( 47.915%)
 molecular gradient             ...        0 min,  0.476 sec ( 42.236%)
 printout                       ...        0 min,  0.016 sec (  1.420%)

         :::::::::::::::::::::::::::::::::::::::::::::::::::::
         ::                     SUMMARY                     ::
         :::::::::::::::::::::::::::::::::::::::::::::::::::::
         :: total energy            -406.330445789915 Eh    ::
         :: gradient norm              0.000575355263 Eh/a0 ::
         :: HOMO-LUMO gap              0.230287995041 eV    ::
         ::.................................................::
         :: SCC energy              -413.361222453487 Eh    ::
         :: -> isotropic ES            0.129483750400 Eh    ::
         :: -> anisotropic ES          0.016239129533 Eh    ::
         :: -> anisotropic XC          0.097310928498 Eh    ::
         :: -> dispersion             -0.483370900140 Eh    ::
         :: repulsion energy           7.030776663572 Eh    ::
         :: add. restraining           0.000000000000 Eh    ::
         :: total charge              -0.000000000000 e     ::
         :::::::::::::::::::::::::::::::::::::::::::::::::::::

           -------------------------------------------------
          |                Property Printout                |
           -------------------------------------------------

    * Orbital Energies and Occupations

         #    Occupation            Energy/Eh            Energy/eV
      -------------------------------------------------------------
         1        2.0000           -0.7660016             -20.8440
       ...           ...                  ...                  ...
       358        2.0000           -0.3751099             -10.2073
       359        2.0000           -0.3705692             -10.0837
       360        2.0000           -0.3678735             -10.0103
       361        2.0000           -0.3650911              -9.9346
       362        2.0000           -0.3617193              -9.8429
       363        2.0000           -0.3596232              -9.7858
       364        2.0000           -0.3547466              -9.6531
       365        2.0000           -0.3520073              -9.5786
       366        2.0000           -0.3407592              -9.2725
       367        2.0000           -0.3318821              -9.0310
       368        1.9999           -0.3280508              -8.9267
       369        1.9986           -0.3253480              -8.8532
       370        1.9777           -0.3227084              -8.7813 (HOMO)
       371        0.0237           -0.3142455              -8.5511 (LUMO)
       372        0.0000           -0.3046439              -8.2898
       373                         -0.3021350              -8.2215
       374                         -0.3002418              -8.1700
       375                         -0.2946877              -8.0189
       376                         -0.2839417              -7.7264
       377                         -0.2825592              -7.6888
       378                         -0.2755750              -7.4988
       379                         -0.2714236              -7.3858
       380                         -0.2677014              -7.2845
       381                         -0.2640039              -7.1839
       ...                                ...                  ...
       716                          0.7700811              20.9550
      -------------------------------------------------------------
                  HL-Gap            0.0084629 Eh            0.2303 eV
             Fermi-level           -0.3184460 Eh           -8.6654 eV

     #   Z          covCN         q      C6AA      α(0)
     1   6 C        2.915    -0.061    29.529     8.911
     2   6 C        2.918    -0.029    28.724     8.789
     3   6 C        2.917    -0.046    29.145     8.853
     4   6 C        2.981     0.003    27.952     8.672
     5   6 C        2.881     0.140    24.944     8.188
     6   6 C        2.996    -0.019    28.468     8.752
     7   6 C        2.996     0.007    27.855     8.658
     8   6 C        2.914    -0.072    29.791     8.950
     9   6 C        2.877     0.138    24.980     8.193
    10   6 C        2.992    -0.018    28.438     8.748
    11   6 C        2.997    -0.003    28.078     8.692
    12   6 C        2.907    -0.072    29.803     8.952
    13   6 C        2.980     0.021    27.523     8.606
    14   6 C        2.993    -0.020    28.490     8.756
    15   6 C        2.872     0.128    25.193     8.228
    16   6 C        2.898    -0.098    30.473     9.051
    17   6 C        2.850     0.145    24.846     8.169
    18   6 C        2.929    -0.020    28.511     8.757
    19   6 C        2.849     0.147    24.803     8.162
    20   6 C        2.984    -0.013    28.327     8.730
    21   6 C        3.010     0.008    27.821     8.652
    22   6 C        2.916    -0.070    29.745     8.943
    23   6 C        2.861     0.138    24.994     8.195
    24   6 C        2.997    -0.017    28.432     8.747
    25   6 C        2.992    -0.003    28.085     8.693
    26   6 C        2.919    -0.041    29.029     8.835
    27   6 C        2.979     0.015    27.666     8.628
    28   6 C        2.999    -0.005    28.145     8.702
    29   6 C        2.972    -0.004    28.121     8.698
    30   6 C        2.913    -0.028    28.707     8.786
    31   6 C        2.917    -0.041    29.013     8.833
    32   6 C        2.973    -0.017    28.435     8.747
    33   6 C        2.918    -0.032    28.804     8.801
    34   6 C        2.904    -0.050    29.232     8.865
    35   6 C        2.858     0.122    25.316     8.247
    36   6 C        2.967    -0.021    28.518     8.760
    37   6 C        2.874     0.137    25.007     8.198
    38   6 C        2.929    -0.016    28.421     8.743
    39   6 C        2.991    -0.003    28.084     8.693
    40   6 C        2.975     0.006    27.894     8.663
    41   6 C        2.984     0.005    27.910     8.666
    42   6 C        3.001    -0.004    28.111     8.697
    43   6 C        2.973    -0.023    28.578     8.769
    44   6 C        2.993     0.000    28.013     8.682
    45   6 C        2.998    -0.003    28.098     8.695
    46   6 C        2.992    -0.018    28.441     8.748
    47   6 C        2.991     0.009    27.801     8.649
[...]
     2   6 C        3   6 C                                       1.3742124
     3   6 C        4   6 C                                       1.4036671
     1   6 C        5   6 C                                       1.3811047
     4   6 C        6   6 C                                       1.4118083
     5   6 C        6   6 C                                       1.4117141
     6   6 C        7   6 C                                       1.4206196
     8   6 C        9   6 C                                       1.3879871
     7   6 C       10   6 C                                       1.4203433
     9   6 C       10   6 C                                       1.4072887
    10   6 C       11   6 C                                       1.4060928
     8   6 C       13   6 C                                       1.3950586
    12   6 C       13   6 C                                       1.4293123
    11   6 C       14   6 C                                       1.4075822
    13   6 C       14   6 C                                       1.4226354
    14   6 C       15   6 C                                       1.4071849
    12   6 C       17   6 C                                       1.3686470
    16   6 C       19   6 C                                       1.3745162
    18   6 C       20   6 C                                       1.3889501
    20   6 C       21   6 C                                       1.4096239
    22   6 C       23   6 C                                       1.3725455
    21   6 C       24   6 C                                       1.4070851
    23   6 C       24   6 C                                       1.4172892
    24   6 C       25   6 C                                       1.4058181
    22   6 C       27   6 C                                       1.4226460
    26   6 C       27   6 C                                       1.4045280
    25   6 C       28   6 C                                       1.4091391
    27   6 C       28   6 C                                       1.4191168
    28   6 C       29   6 C                                       1.4235256
    26   6 C       30   6 C                                       1.3800698
    29   6 C       31   6 C                                       1.3968176
    30   6 C       31   6 C                                       1.3867282
     4   6 C       32   6 C                                       1.4311540
    33   6 C       34   6 C                                       1.3557093
    34   6 C       35   6 C                                       1.4256394
     7   6 C       36   6 C                                       1.4080374
    32   6 C       37   6 C                                       1.3923507
    36   6 C       37   6 C                                       1.4321096
    11   6 C       39   6 C                                       1.4147378
    39   6 C       40   6 C                                       1.4182339
    38   6 C       41   6 C                                       1.4042436
    40   6 C       41   6 C                                       1.4236744
    41   6 C       42   6 C                                       1.4193518
    15   6 C       43   6 C                                       1.3983802
    39   6 C       44   6 C                                       1.4195391
    43   6 C       44   6 C                                       1.4269016
    42   6 C       45   6 C                                       1.4031322
    44   6 C       45   6 C                                       1.4100283
    45   6 C       46   6 C                                       1.4114738
    18   6 C       47   6 C                                       1.4032843
    47   6 C       48   6 C                                       1.4279092
    46   6 C       49   6 C                                       1.4263965
    48   6 C       49   6 C                                       1.3866128
    49   6 C       50   6 C                                       1.4268632
    21   6 C       51   6 C                                       1.3995555
    47   6 C       52   6 C                                       1.4110086
    51   6 C       52   6 C                                       1.4034464
    50   6 C       53   6 C                                       1.3979575
    52   6 C       53   6 C                                       1.4082622
    53   6 C       54   6 C                                       1.4083906
    25   6 C       55   6 C                                       1.4179875
    51   6 C       56   6 C                                       1.4107579
    55   6 C       56   6 C                                       1.4014265
    54   6 C       57   6 C                                       1.4082284
    56   6 C       57   6 C                                       1.4085149
    57   6 C       58   6 C                                       1.4162121
    29   6 C       59   6 C                                       1.4295975
    55   6 C       60   6 C                                       1.4168286
    59   6 C       60   6 C                                       1.4118805
    58   6 C       61   6 C                                       1.4089597
    60   6 C       61   6 C                                       1.4131572
    62   6 C       63   6 C                                       1.3965001
    35   6 C       64   6 C                                       1.3918463
    65   6 C       66   6 C                                       1.3464478
    38   6 C       68   6 C                                       1.3885385
    69   6 C       70   6 C                                       1.3931346
    42   6 C       72   6 C                                       1.4146224
    68   6 C       73   6 C                                       1.4196105
    72   6 C       73   6 C                                       1.4121412
    71   6 C       74   6 C                                       1.4153639
    73   6 C       74   6 C                                       1.4035885
    74   6 C       75   6 C                                       1.4143435
    46   6 C       76   6 C                                       1.3870095
    72   6 C       77   6 C                                       1.4272974
    76   6 C       77   6 C                                       1.4226975
    75   6 C       78   6 C                                       1.4107634
    77   6 C       78   6 C                                       1.4253831
    78   6 C       79   6 C                                       1.4344317
    50   6 C       80   6 C                                       1.4003288
    79   6 C       81   6 C                                       1.3898333
    81   6 C       82   6 C                                       1.4101925
    54   6 C       83   6 C                                       1.4113566
    80   6 C       84   6 C                                       1.4156219
    83   6 C       84   6 C                                       1.4199460
    82   6 C       85   6 C                                       1.4151624
    85   6 C       86   6 C                                       1.4272047
    58   6 C       87   6 C                                       1.4138941
    83   6 C       88   6 C                                       1.4216225
    87   6 C       88   6 C                                       1.3947856
    86   6 C       89   6 C                                       1.4112645
    62   6 C       91   6 C                                       1.4135244
    90   6 C       92   6 C                                       1.4262082
    92   6 C       93   6 C                                       1.4025824
    91   6 C       94   6 C                                       1.4079920
    93   6 C       95   6 C                                       1.4329297
    94   6 C       95   6 C                                       1.3602689
    67   6 C       96   6 C                                       1.3917778
    96   6 C       97   6 C                                       1.4245459
    97   6 C       98   6 C                                       1.3555591
    98   6 C       99   6 C                                       1.4323056
    71   6 C      100   6 C                                       1.3916173
    99   6 C      101   6 C                                       1.3882786
   101   6 C      102   6 C                                       1.4341820
    75   6 C      103   6 C                                       1.4200647
   100   6 C      104   6 C                                       1.4047399
   103   6 C      104   6 C                                       1.4094184
   102   6 C      105   6 C                                       1.4312413
   105   6 C      106   6 C                                       1.4178728
    79   6 C      107   6 C                                       1.4214348
   103   6 C      108   6 C                                       1.4137177
   107   6 C      108   6 C                                       1.4012959
   106   6 C      109   6 C                                       1.4298154
   108   6 C      109   6 C                                       1.4187163
   109   6 C      110   6 C                                       1.4083661
    82   6 C      111   6 C                                       1.4154851
   107   6 C      112   6 C                                       1.4066164
   111   6 C      112   6 C                                       1.4064172
   110   6 C      113   6 C                                       1.4277872
   112   6 C      113   6 C                                       1.4152528
   113   6 C      114   6 C                                       1.3991656
    86   6 C      115   6 C                                       1.4270038
   111   6 C      116   6 C                                       1.4041459
   115   6 C      116   6 C                                       1.4075278
   114   6 C      117   6 C                                       1.3979963
   116   6 C      117   6 C                                       1.4170265
   117   6 C      118   6 C                                       1.4220163
    90   6 C      119   6 C                                       1.4334187
   115   6 C      120   6 C                                       1.4091596
   119   6 C      120   6 C                                       1.4174028
   118   6 C      121   6 C                                       1.4024888
   120   6 C      121   6 C                                       1.4310437
   121   6 C      122   6 C                                       1.4252409
    93   6 C      123   6 C                                       1.4027402
   119   6 C      124   6 C                                       1.4158708
   123   6 C      124   6 C                                       1.3932025
   122   6 C      125   6 C                                       1.3807236
   124   6 C      125   6 C                                       1.4264346
   126   6 C      127   6 C                                       1.3585739
    99   6 C      128   6 C                                       1.4345676 (max)
   128   6 C      129   6 C                                       1.3949638
   129   6 C      130   6 C                                       1.3842374
   130   6 C      131   6 C                                       1.3779645
   102   6 C      132   6 C                                       1.4289378
   128   6 C      133   6 C                                       1.4151937
   132   6 C      133   6 C                                       1.4178242
   131   6 C      134   6 C                                       1.3992282
   133   6 C      134   6 C                                       1.4205080
   134   6 C      135   6 C                                       1.4151388
   106   6 C      136   6 C                                       1.4056323
   132   6 C      137   6 C                                       1.4119087
   136   6 C      137   6 C                                       1.4046617
   135   6 C      138   6 C                                       1.3635202
   137   6 C      138   6 C                                       1.4230079
   136   6 C      140   6 C                                       1.4252255
   139   6 C      140   6 C                                       1.4167090
   140   6 C      141   6 C                                       1.4091650
   141   6 C      142   6 C                                       1.3798114
   139   6 C      143   6 C                                       1.4112479
   142   6 C      144   6 C                                       1.3989513
   143   6 C      144   6 C                                       1.4040031
   144   6 C      145   6 C                                       1.4310841
   146   6 C      147   6 C                                       1.3925206
   145   6 C      148   6 C                                       1.3698849
   147   6 C      148   6 C                                       1.4248063
   122   6 C      149   6 C                                       1.4323331
   149   6 C      150   6 C                                       1.3948260
   150   6 C      151   6 C                                       1.4162814
   151   6 C      152   6 C                                       1.3690349
   149   6 C      154   6 C                                       1.4183265
   153   6 C      154   6 C                                       1.4195779
   152   6 C      155   6 C                                       1.4114390
   154   6 C      155   6 C                                       1.4191814
   155   6 C      156   6 C                                       1.4054183
   153   6 C      157   6 C                                       1.3859138
   156   6 C      158   6 C                                       1.3711874
   157   6 C      158   6 C                                       1.3928373
     1   6 C      159   1 H                                       1.0778638
     2   6 C      160   1 H                                       1.0795303
     3   6 C      161   1 H                                       1.0775260
     8   6 C      162   1 H                                       1.0784436
    12   6 C      163   1 H                                       1.0773992
    16   6 C      164   1 H                                       1.0805349
    22   6 C      165   1 H                                       1.0788786
    26   6 C      166   1 H                                       1.0798061
    33   6 C      167   1 H                                       1.0766828
    34   6 C      168   1 H                                       1.0755749
    65   6 C      169   1 H                                       1.0777789
    66   6 C      170   1 H                                       1.0777853
    97   6 C      171   1 H                                       1.0755573 (min)
    98   6 C      172   1 H                                       1.0767332
   129   6 C      173   1 H                                       1.0780634
   130   6 C      174   1 H                                       1.0802990
   131   6 C      175   1 H                                       1.0797672
   135   6 C      176   1 H                                       1.0781833
   142   6 C      177   1 H                                       1.0775337
   145   6 C      178   1 H                                       1.0765963
   152   6 C      179   1 H                                       1.0784740
   156   6 C      180   1 H                                       1.0797257
   158   6 C      181   1 H                                       1.0800957
    30   6 C      182   1 H                                       1.0805320
    31   6 C      183   1 H                                       1.0791694
    63   6 C      184   1 H                                       1.0797302
    94   6 C      185   1 H                                       1.0758441
    95   6 C      186   1 H                                       1.0761858
   127   6 C      187   1 H                                       1.0783885
   157   6 C      188   1 H                                       1.0781293
    59   6 C      189   8 O                                       1.3476974
    63   6 C      189   8 O                                       1.3129248
    91   6 C      190   8 O                                       1.3958117
    92   6 C      190   8 O                                       1.3733123
   123   6 C      191   8 O                                       1.3603323
   127   6 C      191   8 O                                       1.3426612
   148   6 C      192   8 O                                       1.3565044
   151   6 C      192   8 O                                       1.3670688
   143   6 C      193   8 O                                       1.3731571
   147   6 C      193   8 O                                       1.3713284
   138   6 C      194   8 O                                       1.3634079
   141   6 C      194   8 O                                       1.3584629
    96   6 C      195   8 O                                       1.3828227
   101   6 C      195   8 O                                       1.3684092
    76   6 C      196   8 O                                       1.3707615
    80   6 C      196   8 O                                       1.3644868
    19   6 C      197   8 O                                       1.3729106
    23   6 C      197   8 O                                       1.3733025
    15   6 C      198   8 O                                       1.3706627
    17   6 C      198   8 O                                       1.3732879
     5   6 C      199   8 O                                       1.3615540
     9   6 C      199   8 O                                       1.3589898
    35   6 C      200   8 O                                       1.3853588
    37   6 C      200   8 O                                       1.3654092
    18   6 C      201   1 H                                       1.0785016
    38   6 C      202   1 H                                       1.0797427
    81   6 C      203   1 H                                       1.0805642
    87   6 C      204   1 H                                       1.0790156
   100   6 C      205   1 H                                       1.0797085
   114   6 C      206   1 H                                       1.0796280

 * 3 distinct bonds (by element types)

   Z      Z             #   av. dist./Å        max./Å        min./Å
   1 H    6 C          36     1.0784437     1.0805642     1.0755573
   6 C    6 C         186     1.4076151     1.4345676     1.3464478
   6 C    8 O          24     1.3654427     1.3958117     1.3129248


optimized geometry written to: xtbopt.xyz


           -------------------------------------------------
          | TOTAL ENERGY             -406.330445789915 Eh   |
          | GRADIENT NORM               0.000575355263 Eh/α |
          | HOMO-LUMO GAP               0.230287995041 eV   |
           -------------------------------------------------

------------------------------------------------------------------------
 * finished run on 2025/12/08 at 00:39:11.719     
------------------------------------------------------------------------
 total:
 * wall-time:     0 d,  0 h,  0 min, 48.173 sec
 *  cpu-time:     0 d,  0 h,  3 min,  8.344 sec
 * ratio c/w:     3.910 speedup
 SCF:
 * wall-time:     0 d,  0 h,  0 min,  7.530 sec
 *  cpu-time:     0 d,  0 h,  0 min, 29.656 sec
 * ratio c/w:     3.938 speedup
 ANC optimizer:
 * wall-time:     0 d,  0 h,  0 min, 40.456 sec
 *  cpu-time:     0 d,  0 h,  2 min, 38.031 sec
 * ratio c/w:     3.906 speedup

normal termination of xtb
