206
 energy: -406.295481843677 gnorm: 0.084516076759 xtb: 6.7.1pre (5071a88)
C           10.11834600000000        7.97640400000000       -1.42738800000000
C            9.50882300000000        9.23976100000000       -1.50304300000000
C            8.14441400000000        9.39446100000000       -1.32010300000000
C            7.32732800000000        8.27470600000000       -1.04151100000000
C            9.33189800000000        6.87470900000000       -1.14605900000000
C            7.93782300000000        6.99559600000000       -0.92337700000000
C            7.17272000000000        5.84366400000000       -0.56508500000000
C            9.91734800000000        3.30124900000000       -0.94340300000000
C            9.24082000000000        4.51738000000000       -0.85702300000000
C            7.86915600000000        4.59676000000000       -0.54233400000000
C            7.16429800000000        3.39763800000000       -0.29703200000000
C            9.85349200000000        0.79548900000000       -0.73288300000000
C            9.22340300000000        2.09575500000000       -0.75415000000000
C            7.82893200000000        2.15722900000000       -0.44633100000000
C            7.10902500000000        0.95753300000000       -0.25566900000000
C            9.62173500000000       -1.69868800000000       -0.46079100000000
C            9.10518500000000       -0.34220100000000       -0.60490600000000
C            7.07237500000000       -1.67402200000000        1.08387000000000
C            8.99256100000000       -2.81900500000000        0.03712800000000
C            7.68123600000000       -2.84016900000000        0.64617000000000
C            6.90573300000000       -4.02055800000000        0.53407100000000
C            9.54383200000000       -6.41630000000000       -0.44776900000000
C            8.91383500000000       -5.23737100000000       -0.13312800000000
C            7.52386000000000       -5.23310400000000        0.17307000000000
C            6.76454300000000       -6.42536600000000        0.11396100000000
C            9.40310300000000       -8.87288400000000       -0.86732200000000
C            8.79847800000000       -7.64608000000000       -0.51388100000000
C            7.39115300000000       -7.64379400000000       -0.25194500000000
C            6.60713700000000       -8.84105300000000       -0.38039800000000
C            8.63994900000000      -10.03353600000000       -0.97009000000000
C            7.26031800000000      -10.03268600000000       -0.74082500000000
C            5.89107400000000        8.33343100000000       -0.91563600000000
C            5.13296900000000        9.55093600000000       -1.09913900000000
C            3.80808300000000        9.60875200000000       -0.79717400000000
C            3.10289300000000        8.42479600000000       -0.38912300000000
C            5.78200800000000        5.91342300000000       -0.29394900000000
C            5.16872600000000        7.18332400000000       -0.61390000000000
C            3.08717000000000        5.86456400000000        1.07722900000000
C            5.79059300000000        3.44912100000000        0.08356600000000
C            5.10988800000000        4.70475500000000        0.19129000000000
C            3.77107700000000        4.69092800000000        0.70601100000000
C            3.03688800000000        3.46510000000000        0.72353300000000
C            5.81038100000000        0.94199300000000        0.27116600000000
C            5.12281700000000        2.21094900000000        0.35136600000000
C            3.72447100000000        2.24181700000000        0.58549700000000
C            2.97139900000000        1.03804600000000        0.58658500000000
C            5.67946600000000       -1.53139800000000        0.93164900000000
C            5.05665300000000       -0.26524800000000        0.64150800000000
C            3.66420800000000       -0.22072100000000        0.62638900000000
C            2.86323400000000       -1.39772100000000        0.79992000000000
C            5.52174400000000       -3.97229100000000        0.77700200000000
C            4.89571200000000       -2.71204600000000        0.90977200000000
C            3.48070800000000       -2.64927900000000        0.92708700000000
C            2.69572800000000       -3.82814000000000        0.98342900000000
C            5.36152700000000       -6.37836800000000        0.38626800000000
C            4.74301700000000       -5.15613500000000        0.70118300000000
C            3.33447300000000       -5.09223700000000        0.88912800000000
C            2.55683000000000       -6.28120300000000        0.90735100000000
C            5.19596300000000       -8.72624100000000       -0.15542100000000
C            4.54679600000000       -7.54431500000000        0.22533200000000
C            3.13316800000000       -7.48929700000000        0.41924300000000
C            2.34434100000000       -8.64774300000000       -0.04764700000000
C            3.09684100000000       -9.77950000000000       -0.35003100000000
C            1.82941400000000        8.38429700000000        0.18554200000000
C            1.10648500000000        9.64381700000000        0.29635700000000
C           -0.24340400000000        9.69620600000000        0.34098000000000
C           -1.06610600000000        8.49577300000000        0.28319700000000
C            1.70878200000000        5.94898700000000        0.94471800000000
C            1.04921000000000        7.21326400000000        0.64108600000000
C           -0.35405900000000        7.26876400000000        0.68819000000000
C           -1.09214900000000        6.06477900000000        1.05162800000000
C            1.62099400000000        3.47294400000000        0.90463600000000
C            0.95852500000000        4.72997100000000        0.93873900000000
C           -0.44774300000000        4.79304600000000        1.00330500000000
C           -1.21033400000000        3.59805200000000        1.11943800000000
C            1.58912300000000        1.05889200000000        0.64875400000000
C            0.85115500000000        2.25196400000000        0.94681200000000
C           -0.56078900000000        2.33361500000000        1.20080000000000
C           -1.39537500000000        1.17475900000000        1.43371700000000
C            1.46068700000000       -1.32663600000000        0.73110000000000
C           -0.88874400000000       -0.05156900000000        1.84093000000000
C           -1.52968000000000       -1.25234600000000        1.44042800000000
C            1.27855500000000       -3.73005000000000        1.00133500000000
C            0.62925500000000       -2.45279400000000        0.97008200000000
C           -0.82035900000000       -2.44329500000000        1.13128100000000
C           -1.55933000000000       -3.65675100000000        0.85949600000000
C            1.19132600000000       -6.14504200000000        1.26110300000000
C            0.51754600000000       -4.94347800000000        1.05428200000000
C           -0.89899100000000       -4.91149100000000        0.72989000000000
C           -1.63213400000000       -6.07995200000000        0.26269900000000
C            0.93393100000000       -8.69113400000000       -0.32522300000000
C           -1.08142500000000       -7.33154000000000       -0.18720300000000
C           -1.86042400000000       -8.47837000000000       -0.41685600000000
C            0.14425300000000       -9.83814300000000       -0.47526500000000
C           -1.22051000000000       -9.74354500000000       -0.62604900000000
C           -2.36835400000000        8.62977200000000       -0.20206900000000
C           -3.00013800000000        9.86729100000000       -0.56586100000000
C           -4.34773700000000        9.91859100000000       -0.73169600000000
C           -5.17836200000000        8.77054100000000       -0.44815800000000
C           -2.46238100000000        6.08771000000000        1.29296500000000
C           -4.53609300000000        7.56078400000000       -0.23346000000000
C           -5.23090900000000        6.33702000000000        0.11598800000000
C           -2.63854800000000        3.69262000000000        1.03408000000000
C           -3.25770400000000        4.96497100000000        0.99495600000000
C           -4.63976400000000        5.09137100000000        0.54696700000000
C           -5.41708500000000        3.89021600000000        0.47389300000000
C           -2.79895400000000        1.26399900000000        1.14594300000000
C           -3.42733200000000        2.50724000000000        0.96083800000000
C           -4.83353400000000        2.58725400000000        0.70218100000000
C           -5.60637700000000        1.39994200000000        0.62071600000000
C           -2.93138700000000       -1.17937200000000        1.19317800000000
C           -3.57287500000000        0.08197400000000        1.13817200000000
C           -4.98643500000000        0.15702000000000        0.99522700000000
C           -5.69781100000000       -1.04495700000000        1.11209700000000
C           -2.98969800000000       -3.58374800000000        0.71766800000000
C           -3.66020200000000       -2.34793800000000        0.89165100000000
C           -5.08192000000000       -2.25777600000000        0.79701700000000
C           -5.82619700000000       -3.36768800000000        0.27708300000000
C           -3.07858800000000       -5.97180700000000        0.16628500000000
C           -3.74895900000000       -4.73690600000000        0.38630000000000
C           -5.17924500000000       -4.61333900000000        0.16021100000000
C           -5.93486100000000       -5.77629600000000       -0.21472200000000
C           -3.26542900000000       -8.33139800000000       -0.39257800000000
C           -3.87931100000000       -7.10624700000000       -0.17566000000000
C           -5.30470300000000       -7.00163200000000       -0.32951000000000
C           -6.04710700000000       -8.21350400000000       -0.62757100000000
C           -5.34668000000000       -9.37086100000000       -0.76292900000000
C           -6.62171300000000        8.84759400000000       -0.40899300000000
C           -7.32442800000000       10.05684600000000       -0.54183600000000
C           -8.71833000000000       10.06848700000000       -0.59597700000000
C           -9.44035800000000        8.88305100000000       -0.53657800000000
C           -6.66415400000000        6.39167600000000       -0.05782400000000
C           -7.34945100000000        7.62728600000000       -0.28867600000000
C           -8.77953300000000        7.64859600000000       -0.39017700000000
C           -9.50700000000000        6.42143800000000       -0.36908300000000
C           -6.79947600000000        3.94474600000000        0.18714200000000
C           -7.42618300000000        5.19119300000000       -0.00895200000000
C           -8.83996400000000        5.24144700000000       -0.22068900000000
C           -6.97151200000000        1.45638100000000        0.09230800000000
C           -7.57873500000000        2.74711200000000        0.02966000000000
C           -8.95061400000000        2.85843900000000       -0.27817800000000
C           -9.73225700000000        1.75418300000000       -0.56633000000000
C           -7.74420100000000        0.38008400000000       -0.41610600000000
C           -9.12524500000000        0.48584100000000       -0.66588000000000
C           -9.85905800000000       -0.72440800000000       -0.96179100000000
C           -7.19242600000000       -3.19918800000000       -0.21511700000000
C           -7.82598100000000       -2.01527800000000       -0.57861900000000
C           -9.23041400000000       -1.93377200000000       -0.83005600000000
C           -7.35858200000000       -5.66729000000000       -0.46247400000000
C           -7.96404400000000       -4.40562300000000       -0.46680200000000
C           -9.34678100000000       -4.31060800000000       -0.79526600000000
C          -10.11653100000000       -5.41877700000000       -1.02889600000000
C           -7.50983900000000       -8.13434500000000       -0.79227200000000
C           -8.12427900000000       -6.84268100000000       -0.74653400000000
C           -9.52830000000000       -6.71460500000000       -0.99760700000000
C          -10.29589600000000       -7.87966400000000       -1.23312300000000
C           -8.31107700000000       -9.25142700000000       -1.02133900000000
C           -9.69383100000000       -9.12304500000000       -1.23281300000000
H           11.18373200000000        7.84875400000000       -1.58528400000000
H           10.12306100000000       10.10924000000000       -1.71707100000000
H            7.71148100000000       10.38495500000000       -1.39318000000000
H           10.97932800000000        3.30380800000000       -1.16604200000000
H           10.93568700000000        0.72230900000000       -0.74980000000000
H           10.63572800000000       -1.83506800000000       -0.82688500000000
H           10.60346400000000       -6.42284500000000       -0.68338300000000
H           10.47070100000000       -8.90281200000000       -1.06600900000000
H            5.63864400000000       10.45191000000000       -1.42465800000000
H            3.28768600000000       10.55510200000000       -0.85643200000000
H            1.65696100000000       10.57676100000000        0.32410600000000
H           -0.71760700000000       10.66846700000000        0.40378900000000
H           -2.40703300000000       10.76210300000000       -0.69843800000000
H           -4.80833000000000       10.85231300000000       -1.02934900000000
H           -6.79073500000000       10.99809500000000       -0.60156200000000
H           -9.24123100000000       11.01539800000000       -0.69659800000000
H          -10.52482200000000        8.89542100000000       -0.60145000000000
H          -10.58401700000000        6.42329500000000       -0.50160900000000
H          -10.79341300000000        1.87791300000000       -0.75498100000000
H          -10.92776900000000       -0.68274300000000       -1.13946500000000
H          -11.17228200000000       -5.30408100000000       -1.25243200000000
H          -11.36240700000000       -7.78102100000000       -1.41586600000000
H          -10.28809200000000      -10.01518600000000       -1.40809000000000
H            9.12609600000000      -10.96573200000000       -1.24417100000000
H            6.69203100000000      -10.95096300000000       -0.84356400000000
H            2.67728600000000      -10.72639000000000       -0.66224800000000
H            0.60605900000000      -10.81801000000000       -0.43207000000000
H           -1.82743500000000      -10.62806400000000       -0.76701000000000
H           -5.76673300000000      -10.34202800000000       -0.98332200000000
H           -7.87716300000000      -10.24539400000000       -1.04542700000000
O            4.42171700000000       -9.83733400000000       -0.35295600000000
O            0.27434300000000       -7.45763100000000       -0.48727500000000
O           -3.99706300000000       -9.45523300000000       -0.65539900000000
O           -9.97256900000000       -3.08176000000000       -0.86430200000000
O           -7.13901800000000       -0.82499900000000       -0.76386900000000
O           -9.57524900000000        4.08153400000000       -0.28406600000000
O           -3.16967300000000        7.51605800000000       -0.45690200000000
O            0.91517200000000       -0.11712300000000        0.36188700000000
O            9.62647200000000       -4.04399800000000       -0.15613700000000
O            7.72151000000000       -0.20795600000000       -0.66649400000000
O            9.96420900000000        5.65299300000000       -1.09374900000000
O            3.79139600000000        7.25105900000000       -0.70058600000000
H            7.67009700000000       -0.83598800000000        1.40592500000000
H            3.64837200000000        6.73807800000000        1.36911600000000
H            0.06135000000000       -0.09828200000000        2.35285300000000
H            0.63599800000000       -7.01288600000000        1.57681300000000
H           -2.93287800000000        7.00699700000000        1.60268700000000
H           -6.75088700000000       -1.02688300000000        1.34054000000000
206
 energy: -406.314378959126 gnorm: 0.046535463691 xtb: 6.7.1pre (5071a88)
C           10.09801566588964        7.96738166142687       -1.42306905365582
C            9.49349666463099        9.22320771742502       -1.49723295662380
C            8.13676987522484        9.37369586588746       -1.31485783491964
C            7.31882585072014        8.26075446694767       -1.03667221443128
C            9.31807661692568        6.86159726719486       -1.14266329931684
C            7.92633246013066        6.98575709732622       -0.92084589594229
C            7.16191862765503        5.83485046851357       -0.56532977382377
C            9.89749407626642        3.29550512146616       -0.93659496201955
C            9.22880531299985        4.51419944478179       -0.85640819709445
C            7.85776325326830        4.58981717457215       -0.54207205907897
C            7.15328444517964        3.39279248508509       -0.29265435104612
C            9.83247515712257        0.79500344454891       -0.72119967875193
C            9.20741392860105        2.09259048319638       -0.74420656003636
C            7.81537916958880        2.15273438720257       -0.43947102320721
C            7.09836567895926        0.94972767439931       -0.25042696938790
C            9.60677577278954       -1.69407806332617       -0.45389080262648
C            9.08434883105599       -0.34419664460720       -0.59006313989250
C            7.06000315382340       -1.66486548815723        1.06292434081036
C            8.98345789258171       -2.82106449814704        0.03105261350384
C            7.66695444730028       -2.83214615870067        0.62350697373513
C            6.89405466517151       -4.01341097140379        0.52437326613538
C            9.52320286888004       -6.41313202559711       -0.44380988598663
C            8.90091672740939       -5.22943138957769       -0.13261908673146
C            7.51242624606676       -5.22897021174837        0.17032620672708
C            6.75380612699827       -6.41839729273691        0.11502262600412
C            9.38368858453163       -8.85842370189287       -0.86145109772291
C            8.78160640561824       -7.63515520733108       -0.51046027203157
C            7.38105943104657       -7.63282782508860       -0.24868260646453
C            6.60207836544689       -8.82590981657300       -0.37526605254571
C            8.62746092833315      -10.01299573282869       -0.96328301479374
C            7.25668436519195      -10.01143560685355       -0.73466910070462
C            5.88719122343902        8.31565812201685       -0.90895465306544
C            5.13013528142522        9.52833849256349       -1.09069385087980
C            3.80903974814220        9.58530887312719       -0.78311357162321
C            3.10112359866714        8.40306472345734       -0.38536570459748
C            5.77582332471103        5.90257091678863       -0.29415002661150
C            5.15865198353129        7.16656262192882       -0.60694555094046
C            3.08406111210211        5.86283427089854        1.05703542854207
C            5.78258761858045        3.44502739319247        0.08168933424781
C            5.10659875951027        4.69808380364836        0.18637749819409
C            3.76595725071504        4.68894320502670        0.68789870052505
C            3.03133087939909        3.46601073043892        0.71340623244028
C            5.79779129424505        0.94496746253339        0.26992749564868
C            5.11526500398977        2.21033238099655        0.34929000921329
C            3.71931050518506        2.24327800673608        0.58365740104865
C            2.96444064759020        1.04156432934042        0.59113592012358
C            5.66933397708291       -1.52339943833618        0.91742123106558
C            5.04683661229723       -0.25813545253638        0.64132041429500
C            3.65594289720394       -0.21551467396841        0.63174825365623
C            2.85352204375819       -1.39398030135828        0.79833510664371
C            5.51174761958474       -3.96358020044830        0.76969184337836
C            4.88658021674327       -2.70504240801005        0.89775894433073
C            3.47318640547711       -2.64606303993673        0.92195661798129
C            2.68837382844558       -3.82451502643473        0.97311744908668
C            5.35450067116469       -6.37006099312618        0.38577657642317
C            4.73478783504904       -5.14699108016486        0.69610968567518
C            3.32977185552530       -5.08413505842057        0.87766116699880
C            2.55398451984525       -6.27375721696730        0.88775205022858
C            5.18965058702140       -8.72273301131983       -0.16106815053834
C            4.54268114509720       -7.53146121271395        0.21827108693175
C            3.13328274253383       -7.47684553471743        0.41022508378003
C            2.34327987445977       -8.63710506990391       -0.04799516906430
C            3.10289336559974       -9.76436361205622       -0.34738463315523
C            1.82625717977043        8.36918231330615        0.18151214359084
C            1.10329456389847        9.61821849890339        0.29653060059462
C           -0.24239060155661        9.67048434134517        0.34022958366872
C           -1.06480687193631        8.48077448087486        0.27861904037602
C            1.70502230230957        5.94728584491652        0.92403839215002
C            1.04523587208908        7.20684057196136        0.62935033781228
C           -0.35233867713531        7.26202258916529        0.67576156491139
C           -1.09220665400819        6.06243169550859        1.02826295944530
C            1.61855601867637        3.47583575832473        0.89703606395305
C            0.95637917478594        4.73073386201937        0.92357500476481
C           -0.44927038582106        4.79312509121441        0.98606232050626
C           -1.21179078324381        3.60006354920036        1.11025879446187
C            1.57778390084641        1.06130822829477        0.65377448674504
C            0.85012277625022        2.25980218794686        0.94461064351556
C           -0.55999430792306        2.34038765342947        1.19535250190984
C           -1.39104865541374        1.17735990373388        1.40919852825190
C            1.44971184560831       -1.31950911136861        0.73511266658473
C           -0.88550240991455       -0.05186155094906        1.81421908042705
C           -1.52705639374971       -1.25247036495158        1.42358555427921
C            1.27192142266591       -3.72832723289323        0.98605185969080
C            0.62523488132715       -2.45451485529295        0.96078606206686
C           -0.82035787940178       -2.44722258479143        1.12338625435252
C           -1.55929251007975       -3.65391365383681        0.85304256866358
C            1.18613693983303       -6.14272478292323        1.22778415994360
C            0.51196648359456       -4.94016822671875        1.02839922968499
C           -0.90549164671105       -4.90683891090995        0.72619814844108
C           -1.63791214912032       -6.07023542530012        0.26333847229914
C            0.93503710550776       -8.66292815887308       -0.31472227270523
C           -1.07597028848846       -7.31375616451203       -0.17596821934011
C           -1.85911444299181       -8.45825443743295       -0.40960002917944
C            0.14752927338381       -9.81269652708257       -0.46684420028169
C           -1.21314946786754       -9.71920643580743       -0.61274273193673
C           -2.36910914207348        8.60848914819863       -0.19794426833542
C           -3.00252262268052        9.84465314453207       -0.55180193735483
C           -4.34709854703180        9.89642725821677       -0.72443170270622
C           -5.17664787916940        8.75368773237024       -0.44326333507537
C           -2.46240773468808        6.08613349385927        1.27199676819227
C           -4.52918240647546        7.54445643197566       -0.22806504404840
C           -5.22849946101915        6.32842868227602        0.11621903433954
C           -2.63703576786816        3.69325783487572        1.02371961308697
C           -3.25737724530893        4.96386200430068        0.97890045507767
C           -4.63786728604396        5.08700901778994        0.54479103434994
C           -5.40747603019432        3.88782903356762        0.47200009283371
C           -2.79285555170382        1.26633730067118        1.13102400279541
C           -3.42294890026983        2.50966701370371        0.95123595474196
C           -4.82665952703842        2.58922690571362        0.69924874977177
C           -5.59787596709472        1.40519208029847        0.61702252435031
C           -2.92737970976874       -1.17708737006729        1.17825715802503
C           -3.56634005309278        0.08440689325934        1.12345377280548
C           -4.97846655912380        0.16128848534362        0.97771980236790
C           -5.68968630938094       -1.03991400833703        1.09248002375589
C           -2.98707863430040       -3.58035886605232        0.71058571440665
C           -3.65577778792675       -2.34534850681314        0.87724584251831
C           -5.07412579797290       -2.25364409917373        0.77758096725223
C           -5.81704047121849       -3.36603285270400        0.27127990476328
C           -3.07787281800450       -5.96476679335233        0.16692359005876
C           -3.74738547110520       -4.73125261818973        0.38527222189989
C           -5.17089667573214       -4.60868033600781        0.15937177434878
C           -5.92820743391091       -5.76705097698732       -0.21415897022194
C           -3.26476774530748       -8.32646579196460       -0.39239812652274
C           -3.87554816341773       -7.09547922477704       -0.17794270287478
C           -5.29951200073635       -6.99213829766943       -0.32850952024648
C           -6.04407396743459       -8.20071004792369       -0.62548878223096
C           -5.34078097194769       -9.35588318714637       -0.75847955256496
C           -6.61589418723195        8.83311983957502       -0.40658646464610
C           -7.31962673100902       10.03607867101328       -0.53805874010175
C           -8.70534848448909       10.04887028426229       -0.59207664942573
C           -9.42071483877491        8.86932062936634       -0.53442266243526
C           -6.65487194312353        6.38476001825898       -0.05785737203649
C           -7.33805289466997        7.61574440697719       -0.28816870942785
C           -8.76131346719244        7.63959319288166       -0.38873366019625
C           -9.48615813114299        6.41763168949683       -0.36778436895134
C           -6.78738214472002        3.94158540697809        0.18547656112901
C           -7.41483029660509        5.18801007917779       -0.00730684551151
C           -8.82566553541859        5.23330071028144       -0.21941236734850
C           -6.95692918837607        1.45922359100887        0.09173401923602
C           -7.56273247088768        2.74585434268211        0.02341827195088
C           -8.93516295879435        2.86016210297051       -0.28118257615861
C           -9.71165668560166        1.75056798067864       -0.56041049570469
C           -7.72461647310736        0.37774543559858       -0.40796485579221
C           -9.10512736304221        0.48676829935186       -0.65726076888783
C           -9.83652112280052       -0.72085356059363       -0.94576863620591
C           -7.17837927347240       -3.19996539949209       -0.21569054955879
C           -7.80845913643376       -2.00975654480753       -0.56908362740728
C           -9.21375167844815       -1.93537324588278       -0.81845458103108
C           -7.34644447953521       -5.66143752950778       -0.45996379255158
C           -7.94958615480815       -4.40081991328387       -0.46869900051636
C           -9.32950825298602       -4.30159543018229       -0.79396260882979
C          -10.09284351534438       -5.41591821034075       -1.02489943656184
C           -7.49942363874098       -8.11847400680558       -0.79079955416687
C           -8.11001178006033       -6.83217398659110       -0.74344734019605
C           -9.50757814610594       -6.70628433235651       -0.99307520214068
C          -10.27287162876478       -7.86690835416933       -1.22812864523804
C           -8.30020965076169       -9.23074561442807       -1.01960440023714
C           -9.67574728269888       -9.10386029152871       -1.22738297875658
H           11.15968116096639        7.84568053786684       -1.58142856171905
H           10.10641775240823       10.08965407905218       -1.71135145770228
H            7.70829727520912       10.36208271058094       -1.38869778783487
H           10.95492282961639        3.29657385735472       -1.16162276238631
H           10.91114135263193        0.72775504411689       -0.74760601180650
H           10.61521463216250       -1.82734236620767       -0.82703745648686
H           10.57942074595440       -6.42555312692835       -0.67589642583331
H           10.44753377809977       -8.89151656735623       -1.05908411034555
H            5.63382975503867       10.42453403580547       -1.42213872996554
H            3.29132143098888       10.52951818708779       -0.84838067590082
H            1.65346450801320       10.54764097236091        0.32682039776881
H           -0.71636864115855       10.63920951168736        0.40538076460671
H           -2.41252404861364       10.73731850913777       -0.68937109070433
H           -4.80553661724864       10.82576634901135       -1.02802510416844
H           -6.79223617831590       10.97683324470694       -0.59800351224185
H           -9.22746912415765       10.99264851757501       -0.69338553907999
H          -10.50131329878189        8.88428385545388       -0.59919447542258
H          -10.55921205278228        6.42434362115564       -0.49882538323559