206
 energy: -406.330445789915 gnorm: 0.000575355263 xtb: 6.7.1pre (5071a88)
C           10.03821229771207        7.93687829091628       -1.37755312613771
C            9.42731515681810        9.18532762427812       -1.44703229147952
C            8.07032452574155        9.32422325939551       -1.28046734769299
C            7.26259444114681        8.20541569635070       -1.02332379078653
C            9.27136583787776        6.81907639142837       -1.11313802804594
C            7.88013726279285        6.94117614974928       -0.90695614456609
C            7.12045235987434        5.79268075383032       -0.55767566216597
C            9.85458477194797        3.27170527413419       -0.90474991719681
C            9.19233930495206        4.48937166738053       -0.83245024577543
C            7.81945305683176        4.55654246791531       -0.53056873404866
C            7.11028676285727        3.36574958819498       -0.29351998065799
C            9.77625170906664        0.78527290763615       -0.70657030382947
C            9.16003219028750        2.07473993782712       -0.72851485908806
C            7.76736225058168        2.12999697462314       -0.44336885345617
C            7.05090091415539        0.93024959033179       -0.27766330524081
C            9.56488960568364       -1.67699481999755       -0.46447740557329
C            9.01950696414164       -0.34989471530266       -0.59736398428431
C            7.00874842834912       -1.64348143103547        1.02522540036520
C            8.93860937490922       -2.81196483407456       -0.00741017224403
C            7.61628905293167       -2.80344696279493        0.56202313557606
C            6.84100417882413       -3.97401299109859        0.43653288278669
C            9.48013885822014       -6.39102761962979       -0.41400653256941
C            8.85687363554501       -5.19516097911381       -0.15842024329917
C            7.46477012920385       -5.19162489887937        0.10755671948440
C            6.71011223357327       -6.37723641165491        0.07378038301797
C            9.35366354193325       -8.83888920947258       -0.74242293005326
C            8.74263029771626       -7.60681236013685       -0.45724997838040
C            7.34153022634258       -7.59932701698507       -0.23196229526226
C            6.57179965039981       -8.79348671622200       -0.32096945104151
C            8.60586205036343       -9.99682949998343       -0.80994707767800
C            7.23345284871526       -9.98889410068607       -0.61134033843425
C            5.83678595066056        8.25226575201838       -0.90897018262756
C            5.08484782402512        9.45798081053987       -1.10815840856126
C            3.76964089165733        9.51148960327419       -0.78363599705215
C            3.07733300810758        8.33537902881901       -0.37142128462745
C            5.73970390423509        5.86042400384106       -0.29025559037272
C            5.10711987685904        7.10703771707281       -0.60126879206524
C            3.07249610566065        5.83612719468080        1.08297859847120
C            5.74303985889145        3.42234447132985        0.06552805276254
C            5.07457125513607        4.66762350793210        0.18307372386432
C            3.74063605021270        4.66842626812240        0.68053199345139
C            3.00060755358001        3.45733785119436        0.66704548797084
C            5.74676392741890        0.94234257817989        0.22686342107182
C            5.07109337204804        2.19629454827036        0.31125219567714
C            3.67822289841028        2.23670411078566        0.52679448509243
C            2.92199699237477        1.04495683839107        0.51589221574975
C            5.62330410119026       -1.50334979750145        0.85169273061014
C            4.99716145765341       -0.24831908156654        0.58379810768745
C            3.61155131739179       -0.20301974225499        0.55682959142506
C            2.80864659717785       -1.37284500578085        0.70779688459785
C            5.46159680897105       -3.92743196530589        0.66852601786976
C            4.84015280411679       -2.67591023577876        0.79953015048465
C            3.43323623193908       -2.61835128171587        0.82131665007573
C            2.65782840903028       -3.79292052468011        0.87321486540336
C            5.31509231425736       -6.32951650153853        0.32344117020421
C            4.69007886751289       -5.10670690488024        0.60288849440919
C            3.29512132532824       -5.04580427612048        0.78808587213157
C            2.52924276894069       -6.23614898541600        0.83462421675994
C            5.15654463515107       -8.70373027345450       -0.14001184606716
C            4.51323397245150       -7.48911781606368        0.18290325569561
C            3.11416656345616       -7.43219734821581        0.37364755218208
C            2.32674390290781       -8.60328478855195       -0.04741914896847
C            3.09372863646437       -9.75309902476277       -0.24710339359565
C            1.81043978708115        8.32698535504792        0.20490068689771
C            1.10438789712874        9.57331407539683        0.34157267998601
C           -0.24034944543004        9.62815052074371        0.38151886235593
C           -1.05178357505946        8.44360292570014        0.29812762629109
C            1.69593203815087        5.92286022320266        0.92301779962738
C            1.03776996293878        7.17282296329888        0.64120844165319
C           -0.35344674228907        7.23070840646277        0.68580689481578
C           -1.09600909585693        6.04263509461130        1.02628701579986
C            1.59679990492661        3.46702682178913        0.84136220521042
C            0.94477402935953        4.71902247745062        0.88023923772992
C           -0.45601043706839        4.78308078360508        0.94155571400708
C           -1.21119987944818        3.59321733716291        1.06105924250579
C            1.53628953906502        1.06195300868358        0.57352088279179
C            0.83392326150997        2.26125398641606        0.87753809851085
C           -0.56517570108465        2.34142088988856        1.13794522320678
C           -1.38181113776929        1.18218661803004        1.35445480679322
C            1.41204102702417       -1.29316446748637        0.64404562561473
C           -0.87209850419639       -0.04097130789290        1.77363737583229
C           -1.51378430918695       -1.23102157663667        1.37281035559277
C            1.24969664295131       -3.70103942234570        0.89870987029818
C            0.60745693064494       -2.43486730208951        0.87457530547747
C           -0.82013177746816       -2.42502999224806        1.06317453826903
C           -1.55330284233020       -3.62176337503876        0.80394069299890
C            1.17041177218705       -6.10856254588269        1.20394280108502
C            0.49992237605678       -4.90609886409055        0.98044410439793
C           -0.90507153117552       -4.86998827417227        0.68819121074559
C           -1.62861192094485       -6.03111771280532        0.23961621949733
C            0.94439062856367       -8.59023116721245       -0.34234249187971
C           -1.04849240814974       -7.25983674904195       -0.19372018199757
C           -1.83308297360116       -8.39706819169169       -0.43529698966605
C            0.16428221675384       -9.74349980654097       -0.55173063384307
C           -1.18671823850819       -9.65206577939010       -0.68122524783898
C           -2.35282635324881        8.55085381762467       -0.18439708807889
C           -2.96901357617145        9.78063519107220       -0.55491256303421
C           -4.31035549701006        9.83884050076054       -0.74187291310220
C           -5.13357773606834        8.70619760890784       -0.44033653468232
C           -2.45948890070200        6.06871176573827        1.30348946991441
C           -4.48748986414290        7.49722929750422       -0.22060230613500
C           -5.20188095853908        6.30031615187561        0.11692087674560
C           -2.62621834943798        3.68838720478797        0.98861013325049
C           -3.24865195992576        4.95287906144721        0.97878516698571
C           -4.61536697636641        5.06564676418789        0.54123688161893
C           -5.37718913685707        3.87320782637148        0.45135161456173
C           -2.77154672372637        1.26829091736295        1.06862716709708
C           -3.40119532348016        2.50912972223206        0.90282118526016
C           -4.79875401192358        2.58411986972630        0.67052466482398
C           -5.56876874613707        1.40693038481999        0.60126428499977
C           -2.90517602480893       -1.15671080186219        1.12360207538470
C           -3.54602433575934        0.09408895310717        1.07047546433245
C           -4.95509429195101        0.16917484193780        0.96173746770653
C           -5.66420132472571       -1.02696464007562        1.11692005255802
C           -2.97236160926413       -3.55141098873120        0.67104147826170
C           -3.63537001981513       -2.32054274325887        0.83388288943065
C           -5.04833438407125       -2.23347251576365        0.77131925539859
C           -5.78294576329076       -3.34499107104879        0.27432567471681
C           -3.05599490012670       -5.93381397717713        0.15130683816955
C           -3.72532920186050       -4.70334406096414        0.36802244850236
C           -5.13560172239789       -4.58356956574804        0.15666716140100
C           -5.88931851301404       -5.73703570846421       -0.20766513252734
C           -3.23159632537792       -8.29307803577704       -0.40326382943851
C           -3.84421820604703       -7.06111561285254       -0.18422974959591
C           -5.26034429648773       -6.96076278079175       -0.32290702570767
C           -5.99940253761948       -8.16860325721471       -0.60682386177700
C           -5.29252632011983       -9.32193350712704       -0.73283182142861
C           -6.56444987788575        8.79448754613759       -0.38748304594550
C           -7.25779938594567       10.00147067025006       -0.47903553142162
C           -8.64130750563616       10.02223582573518       -0.51887220958074
C           -9.36159916770706        8.84786036688134       -0.49044421134568
C           -6.61818565296668        6.35764990491117       -0.06379047616254
C           -7.29255151545235        7.58552307374084       -0.28238413247013
C           -8.70965456949421        7.61508340599853       -0.37612702786366
C           -9.43728718806894        6.40134203834646       -0.37562861744543
C           -6.75132106930239        3.92720201693652        0.16040849074029
C           -7.37994066323546        5.16946894512230       -0.02582873199917
C           -8.78545552413736        5.21093315457061       -0.24436913353122
C           -6.91716389334614        1.46171416619626        0.08347893193253
C           -7.52223855096399        2.73974570521902       -0.00360693246495
C           -8.89311781162906        2.85797444744332       -0.30767539693768
C           -9.65991830125995        1.73919722950839       -0.56111882368266
C           -7.67138525488188        0.37079303634884       -0.39887091911607
C           -9.04928661045247        0.48326468433302       -0.64374294792881
C           -9.78195690921107       -0.71467424419305       -0.91967382319951
C           -7.13444167000365       -3.18819365055402       -0.20309700258313
C           -7.75934424764514       -1.99197406864921       -0.54612566859118
C           -9.16118374983388       -1.92925149022447       -0.79307601538950
C           -7.29847018647041       -5.63597924422590       -0.44358230057047
C           -7.90233489214895       -4.37871716278250       -0.45694960440531
C           -9.27885465545246       -4.27546450494703       -0.77378547830995
C          -10.03442576766611       -5.39589805803643       -0.99286794041497
C           -7.44446375876932       -8.08499185281764       -0.76106441143019
C           -8.05503098605933       -6.80419918259242       -0.71657964475340
C           -9.44795821433510       -6.67924912333857       -0.95786128911264
C          -10.21128199923081       -7.83793511148369       -1.18143189102492
C           -8.24122779120298       -9.19744610409509       -0.98099447245161
C           -9.61429140043501       -9.07233722462366       -1.17857871955146
H           11.10003552477560        7.82409349716822       -1.52452629465586
H           10.03526976866803       10.05538550570884       -1.64394846641747
H            7.63240296993067       10.30655035560773       -1.34619606838363
H           10.91192225213998        3.26374498604803       -1.11691590333768
H           10.85122822395296        0.71455719373720       -0.72118573510537
H           10.57956939785865       -1.79092321796764       -0.81803162536642
H           10.54036540559740       -6.41478837437609       -0.61233426996683
H           10.41944810958638       -8.87102802015626       -0.91286779378222
H            5.58526208936820       10.34224213082001       -1.46440698763560
H            3.24130526988481       10.44604430587071       -0.84943935312149
H            1.66351287588386       10.49301976695422        0.39750046668530
H           -0.71906292852010       10.58991419840199        0.46791950242152
H           -2.36692865251945       10.66062620745840       -0.69609648344759
H           -4.76820544707740       10.75605882984576       -1.07117244660537
H           -6.72334158961391       10.93710683222670       -0.51309994160414
H           -9.15712812703498       10.96902616919307       -0.58642090474249
H          -10.43964966825123        8.86557663907140       -0.54867030302080
H          -10.50724940914338        6.41678671300853       -0.50761874497185
H          -10.71749308492929        1.84395832765235       -0.73899312339348
H          -10.84058340252052       -0.66475605467684       -1.10908734596734
H          -11.08618639634399       -5.29291998659335       -1.20804467267845
H          -11.27213748816382       -7.73901859677574       -1.35638489336738
H          -10.20563419707877       -9.96101051887984       -1.34344213106912
H            9.09813155324402      -10.93333407186820       -1.02944437127540
H            6.66821163751070      -10.90557260805465       -0.68068851830905
H            2.65922259078967      -10.72113924119896       -0.44690241362795
H            0.64060943589046      -10.70737753578344       -0.59036301860417
H           -1.79808246754320      -10.51650900937607       -0.87396155006076
H           -5.73071233480250      -10.28654623300478       -0.93392119708500
H           -7.80655697456974      -10.18378768661197       -1.00453393602097
O            4.40508004796473       -9.81599544714805       -0.26024124908591
O            0.29773112761894       -7.35767654508274       -0.44689199822268
O           -3.95600808459060       -9.41817112853617       -0.64800203044600
O           -9.90481889157427       -3.06241458642235       -0.84832108989113
O           -7.05498433767070       -0.82319828036106       -0.68170433198198
O           -9.51691405253162        4.06431715591574       -0.33987207929131
O           -3.13278076164353        7.42983314458391       -0.40161155874418
O            0.84820199001869       -0.09502799594180        0.31483698682221
O            9.56159142457775       -4.01778386578800       -0.21423594562614
O            7.65221804383413       -0.23968069228546       -0.66288609263436
O            9.91199573075844        5.61865133849449       -1.06412893123439
O            3.74348008872474        7.15371712589214       -0.65274277766235
H            7.59497278991716       -0.84048890376923        1.44320796320840
H            3.62986154333970        6.67424655334157        1.47380310702854
H            0.03914637415601       -0.08430410344817        2.35275204412951
H            0.65184784239283       -6.93869913729413        1.65807833518225
H           -2.91544751226331        6.95565178102776        1.71726394601880
H           -6.68515523618202       -1.01884841506218        1.46789519362688
