      -----------------------------------------------------------      
     |                   =====================                   |     
     |                           x T B                           |     
     |                   =====================                   |     
     |                         S. Grimme                         |     
     |          Mulliken Center for Theoretical Chemistry        |     
     |                    University of Bonn                     |     
      -----------------------------------------------------------      

   * xtb version 6.7.1pre (5071a88) compiled by 'Marcel@Raven' on 2024-07-23

   xtb is free software: you can redistribute it and/or modify it under
   the terms of the GNU Lesser General Public License as published by
   the Free Software Foundation, either version 3 of the License, or
   (at your option) any later version.
   
   xtb is distributed in the hope that it will be useful,
   but WITHOUT ANY WARRANTY; without even the implied warranty of
   MERCHANTABILITY or FITNESS FOR A PARTICULAR PURPOSE.  See the
   GNU Lesser General Public License for more details.
   
   Cite this work as:
   * C. Bannwarth, E. Caldeweyher, S. Ehlert, A. Hansen, P. Pracht,
     J. Seibert, S. Spicher, S. Grimme, WIREs Comput. Mol. Sci., 2020, 11,
     e01493. DOI: 10.1002/wcms.1493
   
   for GFN2-xTB:
   * C. Bannwarth, S. Ehlert and S. Grimme., J. Chem. Theory Comput., 2019,
     15, 1652-1671. DOI: 10.1021/acs.jctc.8b01176
   for GFN1-xTB:
   * S. Grimme, C. Bannwarth, P. Shushkov, J. Chem. Theory Comput., 2017,
     13, 1989-2009. DOI: 10.1021/acs.jctc.7b00118
   for GFN0-xTB:
   * P. Pracht, E. Caldeweyher, S. Ehlert, S. Grimme, ChemRxiv, 2019, preprint.
     DOI: 10.26434/chemrxiv.8326202.v1
   for GFN-FF:
   * S. Spicher and S. Grimme, Angew. Chem. Int. Ed., 2020, 59, 15665-15673.
     DOI: 10.1002/anie.202004239
   
   for ALPB and GBSA implicit solvation:
   * S. Ehlert, M. Stahn, S. Spicher, S. Grimme, J. Chem. Theory Comput.,
     2021, 17, 4250-4261. DOI: 10.1021/acs.jctc.1c00471
   
   for ddCOSMO and CPCM-X implicit solvation:
   * M. Stahn, S. Ehlert, S. Grimme, J. Phys. Chem. A,
     2023, XX, XXXX-XXXX. DOI: 10.1021/acs.jpca.3c04382
   
   for DFT-D4:
   * E. Caldeweyher, C. Bannwarth and S. Grimme, J. Chem. Phys., 2017,
     147, 034112. DOI: 10.1063/1.4993215
   * E. Caldeweyher, S. Ehlert, A. Hansen, H. Neugebauer, S. Spicher,
     C. Bannwarth and S. Grimme, J. Chem. Phys., 2019, 150, 154122.
     DOI: 10.1063/1.5090222
   * E. Caldeweyher, J.-M. Mewes, S. Ehlert and S. Grimme, Phys. Chem. Chem. Phys.
     2020, 22, 8499-8512. DOI: 10.1039/D0CP00502A
   
   for sTDA-xTB:
   * S. Grimme and C. Bannwarth, J. Chem. Phys., 2016, 145, 054103.
     DOI: 10.1063/1.4959605
   
   in the mass-spec context:
   * V. Asgeirsson, C. Bauer and S. Grimme, Chem. Sci., 2017, 8, 4879.
     DOI: 10.1039/c7sc00601b
   * J. Koopman and S. Grimme, ACS Omega 2019, 4, 12, 15120-15133.
     DOI: 10.1021/acsomega.9b02011
   
   for metadynamics refer to:
   * S. Grimme, J. Chem. Theory Comput., 2019, 155, 2847-2862
     DOI: 10.1021/acs.jctc.9b00143
   
   for SPH calculations refer to:
   * S. Spicher and S. Grimme, J. Chem. Theory Comput., 2021, 17, 1701-1714
     DOI: 10.1021/acs.jctc.0c01306
   
   for ONIOM refer to:
   * C. Plett, A. Katbashev, S. Ehlert, S. Grimme, M. Bursch,
     Phys. Chem. Chem. Phys., 2023, 25, 17860-17868. DOI: 10.1039/D3CP02178E
   
   for DIPRO refer to:
   * J. Kohn, N. Gildemeister, S. Grimme, D. Fazzi, A. Hansen,
     J. Chem. Phys., 2023, just accepted.
   
   for PTB refer to:
   * S. Grimme, M. Mueller, A. Hansen, J. Chem. Phys., 2023, 158, 124111.
     DOI: 10.1063/5.0137838
   
   with help from (in alphabetical order)
   P. Atkinson, C. Bannwarth, F. Bohle, G. Brandenburg, E. Caldeweyher
   M. Checinski, S. Dohm, S. Ehlert, S. Ehrlich, I. Gerasimov, C. Hölzer
   A. Katbashev, J. Kohn, J. Koopman, C. Lavigne, S. Lehtola, F. März, M. Müller,
   F. Musil, H. Neugebauer, J. Pisarek, C. Plett, P. Pracht, F. Pultar,
   J. Seibert, P. Shushkov, S. Spicher, M. Stahn, M. Steiner, T. Strunk,
   J. Stückrath, T. Rose, and J. Unsleber
   
 * started run on 2025/12/08 at 00:31:35.299     
   ID    Z sym.   atoms
    1    6 C      1, 2, 4-6, 8-12, 14-55, 57-89, 91-99, 101-104
    2    5 B      3, 7, 13, 56, 90, 100
    3    1 H      105-132

           -------------------------------------------------
          |                Calculation Setup                |
           -------------------------------------------------

          program call               : xtb "C:\Users\LENOVO GAMING\Documents\GitHub\molecular-conductivity-sim\results\1.5nm-2Bdoped-1.5percent\xtbopt.xyz" --sp
          coordinate file            : C:\Users\LENOVO GAMING\Documents\GitHub\molecular-conductivity-sim\results\1.5nm-2Bdoped-1.5percent\xtbopt.xyz
          omp threads                :                    16


           -------------------------------------------------
          |                 G F N 2 - x T B                 |
           -------------------------------------------------

        Reference                      10.1021/acs.jctc.8b01176
      * Hamiltonian:
        H0-scaling (s, p, d)           1.850000    2.230000    2.230000
        zeta-weighting                 0.500000
      * Dispersion:
        s8                             2.700000
        a1                             0.520000
        a2                             5.000000
        s9                             5.000000
      * Repulsion:
        kExp                           1.500000    1.000000
        rExp                           1.000000
      * Coulomb:
        alpha                          2.000000
        third order                    shell-resolved
        anisotropic                    true
        a3                             3.000000
        a5                             4.000000
        cn-shift                       1.200000
        cn-exp                         4.000000
        max-rad                        5.000000

q/qsh data taken from xtbrestart
CAMM data taken from xtbrestart

          ...................................................
          :                      SETUP                      :
          :.................................................:
          :  # basis functions                 444          :
          :  # atomic orbitals                 444          :
          :  # shells                          236          :
          :  # electrons                       438          :
          :  max. iterations                   250          :
          :  Hamiltonian                  GFN2-xTB          :
          :  restarted?                       true          :
          :  GBSA solvation                  false          :
          :  PC potential                    false          :
          :  electronic temp.          300.0000000     K    :
          :  accuracy                    1.0000000          :
          :  -> integral cutoff          0.2500000E+02      :
          :  -> integral neglect         0.1000000E-07      :
          :  -> SCF convergence          0.1000000E-05 Eh   :
          :  -> wf. convergence          0.1000000E-03 e    :
          :  Broyden damping             0.4000000          :
          :  net charge                          0          :
          :  unpaired electrons                  0          :
          ...................................................

 iter      E             dE          RMSdq      gap      omega  full diag
   1   -236.6317602 -0.236632E+03  0.999E-06    0.34       0.0  T
   2   -236.6317602  0.646310E-10  0.170E-05    0.34     513.2  T
   3   -236.6317602 -0.303828E-10  0.133E-05    0.34     654.7  T

   *** convergence criteria satisfied after 3 iterations ***

         #    Occupation            Energy/Eh            Energy/eV
      -------------------------------------------------------------
         1        2.0000           -0.6668630             -18.1463
       ...           ...                  ...                  ...
       213        2.0000           -0.3749907             -10.2040
       214        2.0000           -0.3735242             -10.1641
       215        2.0000           -0.3723036             -10.1309
       216        2.0000           -0.3687947             -10.0354
       217        2.0000           -0.3616393              -9.8407
       218        2.0000           -0.3593378              -9.7781
       219        1.9972           -0.3537885              -9.6271 (HOMO)
       220        0.0028           -0.3413326              -9.2881 (LUMO)
       221                         -0.3127649              -8.5108
       222                         -0.3033402              -8.2543
       223                         -0.2948477              -8.0232
       224                         -0.2914175              -7.9299
       ...                                ...                  ...
       444                          0.7772680              21.1505
      -------------------------------------------------------------
                  HL-Gap            0.0124559 Eh            0.3389 eV
             Fermi-level           -0.3475591 Eh           -9.4576 eV

 SCC (total)                   0 d,  0 h,  0 min,  0.283 sec
 SCC setup                      ...        0 min,  0.001 sec (  0.353%)
 Dispersion                     ...        0 min,  0.009 sec (  3.180%)
 classical contributions        ...        0 min,  0.001 sec (  0.353%)
 integral evaluation            ...        0 min,  0.025 sec (  8.834%)
 iterations                     ...        0 min,  0.168 sec ( 59.364%)
 molecular gradient             ...        0 min,  0.076 sec ( 26.855%)
 printout                       ...        0 min,  0.003 sec (  1.060%)

         :::::::::::::::::::::::::::::::::::::::::::::::::::::
         ::                     SUMMARY                     ::
         :::::::::::::::::::::::::::::::::::::::::::::::::::::
         :: total energy            -232.154522251487 Eh    ::
         :: gradient norm              0.000666561914 Eh/a0 ::
         :: HOMO-LUMO gap              0.338941617161 eV    ::
         ::.................................................::
         :: SCC energy              -236.639490502149 Eh    ::
         :: -> isotropic ES            0.119871228542 Eh    ::
         :: -> anisotropic ES          0.023404879913 Eh    ::
         :: -> anisotropic XC          0.085010692649 Eh    ::
         :: -> dispersion             -0.284093318932 Eh    ::
         :: repulsion energy           4.484968250661 Eh    ::
         :: add. restraining           0.000000000000 Eh    ::
         :: total charge               0.000000000008 e     ::
         :::::::::::::::::::::::::::::::::::::::::::::::::::::

           -------------------------------------------------
          |                Property Printout                |
           -------------------------------------------------

    * Orbital Energies and Occupations

         #    Occupation            Energy/Eh            Energy/eV
      -------------------------------------------------------------
         1        2.0000           -0.6668630             -18.1463
       ...           ...                  ...                  ...
       207        2.0000           -0.3854131             -10.4876
       208        2.0000           -0.3844979             -10.4627
       209        2.0000           -0.3836549             -10.4398
       210        2.0000           -0.3825403             -10.4095
       211        2.0000           -0.3823163             -10.4034
       212        2.0000           -0.3758231             -10.2267
       213        2.0000           -0.3749907             -10.2040
       214        2.0000           -0.3735242             -10.1641
       215        2.0000           -0.3723036             -10.1309
       216        2.0000           -0.3687947             -10.0354
       217        2.0000           -0.3616393              -9.8407
       218        2.0000           -0.3593378              -9.7781
       219        1.9972           -0.3537885              -9.6271 (HOMO)
       220        0.0028           -0.3413326              -9.2881 (LUMO)
       221                         -0.3127649              -8.5108
       222                         -0.3033402              -8.2543
       223                         -0.2948477              -8.0232
       224                         -0.2914175              -7.9299
       225                         -0.2775690              -7.5530
       226                         -0.2673450              -7.2748
       227                         -0.2648882              -7.2080
       228                         -0.2610885              -7.1046
       229                         -0.2508944              -6.8272
       230                         -0.2498343              -6.7983
       ...                                ...                  ...
       444                          0.7772680              21.1505
      -------------------------------------------------------------
                  HL-Gap            0.0124559 Eh            0.3389 eV
             Fermi-level           -0.3475591 Eh           -9.4576 eV

     #   Z          covCN         q      C6AA      α(0)
     1   6 C        2.904    -0.021    28.537     8.759
     2   6 C        2.818    -0.112    30.835     9.098
     3   5 B        2.756     0.214    18.125     7.124
     4   6 C        2.889    -0.065    29.620     8.923
     5   6 C        2.966     0.006    27.878     8.661
     6   6 C        2.885    -0.067    29.675     8.931
     7   5 B        2.761     0.208    18.206     7.139
     8   6 C        2.889    -0.072    29.802     8.950
     9   6 C        2.926    -0.023    28.575     8.766
    10   6 C        2.981     0.006    27.871     8.660
    11   6 C        2.926    -0.025    28.639     8.776
    12   6 C        2.889    -0.072    29.802     8.950
    13   5 B        2.759     0.212    18.151     7.128
    14   6 C        2.892    -0.071    29.766     8.945
    15   6 C        2.924    -0.023    28.580     8.767
    16   6 C        2.910    -0.032    28.789     8.798
    17   6 C        2.926    -0.028    28.711     8.787
    18   6 C        2.980     0.005    27.894     8.663
    19   6 C        2.980     0.006    27.884     8.662
    20   6 C        2.975    -0.004    28.119     8.698
    21   6 C        2.981     0.007    27.864     8.659
    22   6 C        2.986    -0.000    28.031     8.685
    23   6 C        2.995     0.007    27.851     8.657
    24   6 C        2.987     0.001    27.995     8.679
    25   6 C        2.981     0.002    27.970     8.675
    26   6 C        2.972    -0.003    28.100     8.695
    27   6 C        2.980     0.001    28.008     8.681
    28   6 C        2.980     0.007    27.859     8.658
    29   6 C        2.976     0.022    27.518     8.605
    30   6 C        2.918    -0.042    29.048     8.838
    31   6 C        2.916    -0.032    28.792     8.799
    32   6 C        2.972     0.016    27.657     8.626
    33   6 C        2.975     0.001    27.989     8.678
    34   6 C        2.979    -0.000    28.031     8.685
    35   6 C        2.987     0.000    28.010     8.682
    36   6 C        2.985    -0.002    28.068     8.690
    37   6 C        2.988    -0.000    28.029     8.684
    38   6 C        2.985    -0.002    28.058     8.689
    39   6 C        2.987    -0.001    28.048     8.687
    40   6 C        2.984    -0.000    28.032     8.685
    41   6 C        2.981     0.004    27.928     8.669
    42   6 C        2.987     0.001    28.002     8.680
    43   6 C        2.982     0.007    27.860     8.658
    44   6 C        2.920    -0.038    28.933     8.821
    45   6 C        2.919    -0.036    28.886     8.814
    46   6 C        2.984     0.005    27.895     8.664
    47   6 C        2.989     0.000    28.008     8.681
    48   6 C        2.986    -0.000    28.026     8.684
    49   6 C        2.985     0.001    27.999     8.680
    50   6 C        2.986    -0.000    28.033     8.685
    51   6 C        2.986     0.001    28.003     8.680
    52   6 C        2.985     0.002    27.967     8.675
    53   6 C        2.987     0.001    28.007     8.681
    54   6 C        2.979     0.007    27.864     8.659
    55   6 C        2.902    -0.077    29.928     8.970
    56   5 B        2.751     0.192    18.453     7.189
    57   6 C        2.892    -0.061    29.512     8.907
    58   6 C        2.901    -0.034    28.839     8.805
    59   6 C        2.912    -0.038    28.947     8.822
    60   6 C        2.970     0.012    27.754     8.641
    61   6 C        2.903    -0.080    29.998     8.981
    62   6 C        2.977     0.005    27.898     8.664
    63   6 C        2.975    -0.007    28.185     8.708
    64   6 C        2.983     0.002    27.968     8.675
    65   6 C        2.984    -0.001    28.035     8.685
    66   6 C        2.986     0.000    28.014     8.682
    67   6 C        2.986    -0.001    28.053     8.688
    68   6 C        2.988     0.001    27.995     8.679
    69   6 C        2.986     0.001    28.006     8.681
    70   6 C        2.990     0.000    28.013     8.682
    71   6 C        2.983     0.005    27.894     8.663
    72   6 C        2.917    -0.036    28.895     8.815
    73   6 C        2.919    -0.040    28.991     8.830
    74   6 C        2.981     0.013    27.710     8.635
    75   6 C        2.990    -0.000    28.031     8.685
    76   6 C        2.989     0.004    27.921     8.668
    77   6 C        2.986    -0.001    28.053     8.688
    78   6 C        2.988     0.001    28.002     8.680
    79   6 C        2.988    -0.001    28.038     8.686
    80   6 C        2.993     0.005    27.897     8.664
    81   6 C        2.983    -0.002    28.069     8.691
    82   6 C        2.981     0.006    27.879     8.661
    83   6 C        2.976    -0.005    28.133     8.700
    84   6 C        2.979     0.008    27.829     8.653
    85   6 C        2.978     0.007    27.863     8.659
    86   6 C        2.924    -0.028    28.696     8.785
    87   6 C        2.910    -0.032    28.810     8.801
    88   6 C        2.923    -0.023    28.580     8.767
    89   6 C        2.890    -0.072    29.801     8.950
    90   5 B        2.759     0.213    18.136     7.125
    91   6 C        2.887    -0.072    29.781     8.947
    92   6 C        2.925    -0.026    28.660     8.779
    93   6 C        2.981     0.008    27.835     8.654
    94   6 C        2.928    -0.035    28.874     8.812
    95   6 C        2.980     0.008    27.824     8.652
    96   6 C        2.993     0.001    27.998     8.680
    97   6 C        2.986     0.000    28.012     8.682
    98   6 C        2.982     0.005    27.913     8.666
    99   6 C        2.887    -0.075    29.861     8.959
   100   5 B        2.755     0.211    18.172     7.133
   101   6 C        2.819    -0.110    30.776     9.090
   102   6 C        2.909    -0.025    28.628     8.773
   103   6 C        2.972     0.008    27.843     8.655
   104   6 C        2.930    -0.031    28.779     8.798
   105   1 H        0.926     0.027     2.623     2.533
   106   1 H        0.926     0.034     2.533     2.489
   107   1 H        0.926     0.031     2.572     2.508
   108   1 H        0.925     0.023     2.686     2.563
   109   1 H        0.926     0.039     2.461     2.453
   110   1 H        0.926     0.050     2.320     2.382
   111   1 H        0.926     0.035     2.516     2.480
   112   1 H        0.926     0.038     2.472     2.459
   113   1 H        0.926     0.039     2.464     2.455
   114   1 H        0.925     0.016     2.800     2.617
   115   1 H        0.925     0.025     2.662     2.551
   116   1 H        0.925     0.022     2.696     2.568
   117   1 H        0.925     0.036     2.505     2.475
   118   1 H        0.926     0.037     2.488     2.467
   119   1 H        0.926     0.036     2.500     2.473
   120   1 H        0.926     0.033     2.546     2.495
   121   1 H        0.926     0.029     2.594     2.519
   122   1 H        0.926     0.035     2.519     2.482
   123   1 H        0.926     0.035     2.511     2.478
   124   1 H        0.926     0.037     2.492     2.468
   125   1 H        0.926     0.035     2.515     2.480
   126   1 H        0.926     0.047     2.356     2.400
   127   1 H        0.925     0.018     2.759     2.598
   128   1 H        0.939    -0.104     5.691     3.730
   129   1 H        0.939    -0.106     5.754     3.750
   130   1 H        0.939    -0.110     5.935     3.809
   131   1 H        0.939    -0.111     5.969     3.820
   132   1 H        0.938    -0.108     5.859     3.784

 Mol. C6AA /au·bohr⁶  :     355707.376941
 Mol. C8AA /au·bohr⁸  :    9851277.301977
 Mol. α(0) /au        :        975.486364


Wiberg/Mayer (AO) data.
largest (>0.10) Wiberg bond orders for each atom

 ---------------------------------------------------------------------------
     #   Z sym  total        # sym  WBO       # sym  WBO       # sym  WBO
 ---------------------------------------------------------------------------
     1   6 C    3.974 --     2 C    1.667     6 C    1.208   115 H    0.966
     2   6 C    3.873 --     1 C    1.667     3 B    1.116   114 H    0.973
     3   5 B    3.299 --     2 C    1.116     4 C    1.023   131 H    0.959
     4   6 C    3.835 --    29 C    1.379     5 C    1.245     3 B    1.023
     5   6 C    3.977 --     6 C    1.359     4 C    1.245    26 C    1.158
     6   6 C    3.797 --     5 C    1.359     1 C    1.208     7 B    1.089
     7   5 B    3.326 --     6 C    1.089     8 C    1.057   132 H    0.969
     8   6 C    3.933 --     9 C    1.498    25 C    1.215     7 B    1.057
     9   6 C    3.945 --     8 C    1.498    10 C    1.265   113 H    0.965
    10   6 C    3.970 --    11 C    1.293     9 C    1.265    23 C    1.248
    11   6 C    3.948 --    12 C    1.471    10 C    1.293   112 H    0.966
    12   6 C    3.932 --    11 C    1.471    21 C    1.233    13 B    1.066
    13   5 B    3.348 --    14 C    1.073    12 C    1.066   128 H    0.970
    14   6 C    3.951 --    15 C    1.424    19 C    1.275    13 B    1.073
    15   6 C    3.968 --    14 C    1.424    16 C    1.393   111 H    0.969
    16   6 C    3.976 --    17 C    1.487    15 C    1.393   121 H    0.970
    17   6 C    3.975 --    16 C    1.487    18 C    1.327   122 H    0.959
    18   6 C    3.972 --    17 C    1.327    19 C    1.289    43 C    1.163
    19   6 C    3.973 --    18 C    1.289    14 C    1.275    20 C    1.188
    20   6 C    3.952 --    41 C    1.318    21 C    1.226    19 C    1.188
    21   6 C    3.949 --    22 C    1.273    12 C    1.233    20 C    1.226
    22   6 C    3.973 --    21 C    1.273    23 C    1.250    39 C    1.232
    23   6 C    3.974 --    22 C    1.250    10 C    1.248    24 C    1.236
    24   6 C    3.969 --    25 C    1.267    37 C    1.249    23 C    1.236
    25   6 C    3.963 --    24 C    1.267    26 C    1.255     8 C    1.215
    26   6 C    3.938 --    27 C    1.311    25 C    1.255     5 C    1.158
    27   6 C    3.972 --    26 C    1.311    36 C    1.230    28 C    1.206
    28   6 C    3.963 --    33 C    1.356    27 C    1.206    29 C    1.181
    29   6 C    3.968 --     4 C    1.379    30 C    1.204    28 C    1.181
    30   6 C    3.949 --    31 C    1.636    29 C    1.204   110 H    0.956
    31   6 C    3.970 --    30 C    1.636    32 C    1.213   109 H    0.960
    32   6 C    3.950 --    57 C    1.354    31 C    1.213    33 C    1.181
    33   6 C    3.933 --    28 C    1.356    34 C    1.182    32 C    1.181
    34   6 C    3.955 --    55 C    1.314    35 C    1.255    33 C    1.182
    35   6 C    3.963 --    34 C    1.255    52 C    1.246    36 C    1.244
    36   6 C    3.965 --    37 C    1.268    35 C    1.244    27 C    1.230
    37   6 C    3.969 --    36 C    1.268    24 C    1.249    38 C    1.225
    38   6 C    3.959 --    51 C    1.274    39 C    1.242    37 C    1.225
    39   6 C    3.965 --    40 C    1.271    38 C    1.242    22 C    1.232
    40   6 C    3.958 --    39 C    1.271    49 C    1.249    41 C    1.222
    41   6 C    3.974 --    20 C    1.318    40 C    1.222    42 C    1.205
    42   6 C    3.983 --    43 C    1.301    47 C    1.248    41 C    1.205
    43   6 C    3.960 --    42 C    1.301    44 C    1.292    18 C    1.163
    44   6 C    3.966 --    45 C    1.547    43 C    1.292   123 H    0.958
    45   6 C    3.961 --    44 C    1.547    46 C    1.287   124 H    0.958
    46   6 C    3.958 --    45 C    1.287    47 C    1.280    71 C    1.193
    47   6 C    3.976 --    46 C    1.280    42 C    1.248    48 C    1.224
    48   6 C    3.963 --    69 C    1.284    49 C    1.234    47 C    1.224
    49   6 C    3.955 --    50 C    1.259    40 C    1.249    48 C    1.234
    50   6 C    3.961 --    49 C    1.259    51 C    1.243    67 C    1.242
    51   6 C    3.962 --    38 C    1.274    50 C    1.243    52 C    1.229
    52   6 C    3.966 --    53 C    1.264    35 C    1.246    51 C    1.229
    53   6 C    3.961 --    52 C    1.264    54 C    1.247    66 C    1.233
    54   6 C    3.950 --    55 C    1.302    53 C    1.247    63 C    1.193
    55   6 C    3.896 --    34 C    1.314    54 C    1.302    56 B    1.068
    56   5 B    3.415 --    61 C    1.082    55 C    1.068    57 C    1.041
    57   6 C    3.814 --    32 C    1.354    58 C    1.248    56 B    1.041
    58   6 C    3.965 --    59 C    1.607    57 C    1.248   108 H    0.959
    59   6 C    3.883 --    58 C    1.607    60 C    1.186   107 H    0.960
    60   6 C    3.950 --    61 C    1.387    59 C    1.186    85 C    1.179
    61   6 C    3.934 --    60 C    1.387    62 C    1.232    56 B    1.082
    62   6 C    3.968 --    83 C    1.305    61 C    1.232    63 C    1.210
    63   6 C    3.951 --    64 C    1.322    62 C    1.210    54 C    1.193
    64   6 C    3.966 --    63 C    1.322    81 C    1.213    65 C    1.212
    65   6 C    3.955 --    66 C    1.268    78 C    1.259    64 C    1.212
    66   6 C    3.961 --    65 C    1.268    67 C    1.244    53 C    1.233
    67   6 C    3.964 --    68 C    1.260    66 C    1.244    50 C    1.242
    68   6 C    3.961 --    67 C    1.260    77 C    1.248    69 C    1.237
    69   6 C    3.960 --    48 C    1.284    68 C    1.237    70 C    1.221
    70   6 C    3.978 --    71 C    1.292    75 C    1.240    69 C    1.221
    71   6 C    3.946 --    70 C    1.292    72 C    1.267    46 C    1.193
    72   6 C    3.971 --    73 C    1.577    71 C    1.267   125 H    0.958
    73   6 C    3.951 --    72 C    1.577    74 C    1.258   126 H    0.960
    74   6 C    3.965 --    73 C    1.258    99 C    1.256    75 C    1.255
    75   6 C    3.976 --    74 C    1.255    76 C    1.255    70 C    1.240
    76   6 C    3.978 --    97 C    1.263    75 C    1.255    77 C    1.227
    77   6 C    3.960 --    78 C    1.267    68 C    1.248    76 C    1.227
    78   6 C    3.957 --    77 C    1.267    65 C    1.259    79 C    1.217
    79   6 C    3.978 --    96 C    1.279    80 C    1.259    78 C    1.217
    80   6 C    3.961 --    79 C    1.259    81 C    1.253    93 C    1.220
    81   6 C    3.974 --    82 C    1.286    80 C    1.253    64 C    1.213
    82   6 C    3.950 --    81 C    1.286    83 C    1.235    91 C    1.210
    83   6 C    3.953 --    62 C    1.305    82 C    1.235    84 C    1.193
    84   6 C    3.970 --    89 C    1.276    85 C    1.275    83 C    1.193
    85   6 C    3.969 --    86 C    1.322    84 C    1.275    60 C    1.179
    86   6 C    3.972 --    87 C    1.489    85 C    1.322   106 H    0.959
    87   6 C    3.977 --    86 C    1.489    88 C    1.390   105 H    0.970
    88   6 C    3.965 --    89 C    1.423    87 C    1.390   120 H    0.970
    89   6 C    3.953 --    88 C    1.423    84 C    1.276    90 B    1.077
    90   5 B    3.351 --    89 C    1.077    91 C    1.060   129 H    0.970
    91   6 C    3.937 --    92 C    1.507    82 C    1.210    90 B    1.060
    92   6 C    3.945 --    91 C    1.507    93 C    1.260   119 H    0.966
    93   6 C    3.974 --    94 C    1.333    92 C    1.260    80 C    1.220
    94   6 C    3.898 --    95 C    1.385    93 C    1.333   118 H    0.965
    95   6 C    3.975 --    94 C    1.385   104 C    1.231    96 C    1.202
    96   6 C    3.960 --    79 C    1.279    97 C    1.252    95 C    1.202
    97   6 C    3.967 --    76 C    1.263    96 C    1.252    98 C    1.235
    98   6 C    3.967 --    99 C    1.363    97 C    1.235   103 C    1.154
    99   6 C    3.883 --    98 C    1.363    74 C    1.256   100 B    1.063
   100   5 B    3.344 --   101 C    1.099    99 C    1.063   130 H    0.962
   101   6 C    3.933 --   102 C    1.735   100 B    1.099   127 H    0.972
   102   6 C    3.975 --   101 C    1.735   103 C    1.145   116 H    0.964
   103   6 C    3.970 --   104 C    1.519    98 C    1.154   102 C    1.145
   104   6 C    3.969 --   103 C    1.519    95 C    1.231   117 H    0.964
   105   1 H    0.998 --    87 C    0.970
   106   1 H    0.998 --    86 C    0.959
   107   1 H    0.998 --    59 C    0.960
   108   1 H    0.998 --    58 C    0.959
   109   1 H    0.997 --    31 C    0.960
   110   1 H    0.996 --    30 C    0.956
   111   1 H    0.998 --    15 C    0.969
   112   1 H    0.997 --    11 C    0.966
   113   1 H    0.997 --     9 C    0.965
   114   1 H    0.999 --     2 C    0.973
   115   1 H    0.999 --     1 C    0.966
   116   1 H    0.999 --   102 C    0.964
   117   1 H    0.997 --   104 C    0.964
   118   1 H    0.997 --    94 C    0.965
   119   1 H    0.997 --    92 C    0.966
   120   1 H    0.998 --    88 C    0.970
   121   1 H    0.998 --    16 C    0.970
   122   1 H    0.998 --    17 C    0.959
   123   1 H    0.998 --    44 C    0.958
   124   1 H    0.997 --    45 C    0.958
   125   1 H    0.998 --    72 C    0.958
   126   1 H    0.996 --    73 C    0.960
   127   1 H    0.998 --   101 C    0.972
   128   1 H    0.989 --    13 B    0.970
   129   1 H    0.988 --    90 B    0.970
   130   1 H    0.987 --   100 B    0.962
   131   1 H    0.987 --     3 B    0.959
   132   1 H    0.988 --     7 B    0.969
 ---------------------------------------------------------------------------

Topologies differ in total number of bonds
Writing topology from bond orders to xtbtopo.mol

molecular dipole:
                 x           y           z       tot (Debye)
 q only:        0.466       0.031      -0.000
   full:        0.644       0.244      -0.000       1.751
molecular quadrupole (traceless):
                xx          xy          yy          xz          yz          zz
 q only:      -19.447     -17.066      23.713      -0.000      -0.000      -4.266
  q+dip:       -0.027     -20.125      51.497      -0.000       0.000     -51.470
   full:      -22.856     -20.390      27.067      -0.000       0.000      -4.211


           -------------------------------------------------
          | TOTAL ENERGY             -232.154522251487 Eh   |
          | GRADIENT NORM               0.000666561914 Eh/α |
          | HOMO-LUMO GAP               0.338941617161 eV   |
           -------------------------------------------------

------------------------------------------------------------------------
 * finished run on 2025/12/08 at 00:31:35.674     
------------------------------------------------------------------------
 total:
 * wall-time:     0 d,  0 h,  0 min,  0.372 sec
 *  cpu-time:     0 d,  0 h,  0 min,  4.469 sec
 * ratio c/w:    12.013 speedup
 SCF:
 * wall-time:     0 d,  0 h,  0 min,  0.285 sec
 *  cpu-time:     0 d,  0 h,  0 min,  3.516 sec
 * ratio c/w:    12.336 speedup

normal termination of xtb
