      -----------------------------------------------------------      
     |                   =====================                   |     
     |                           x T B                           |     
     |                   =====================                   |     
     |                         S. Grimme                         |     
     |          Mulliken Center for Theoretical Chemistry        |     
     |                    University of Bonn                     |     
      -----------------------------------------------------------      

   * xtb version 6.7.1pre (5071a88) compiled by 'Marcel@Raven' on 2024-07-23

   xtb is free software: you can redistribute it and/or modify it under
   the terms of the GNU Lesser General Public License as published by
   the Free Software Foundation, either version 3 of the License, or
   (at your option) any later version.
   
   xtb is distributed in the hope that it will be useful,
   but WITHOUT ANY WARRANTY; without even the implied warranty of
   MERCHANTABILITY or FITNESS FOR A PARTICULAR PURPOSE.  See the
   GNU Lesser General Public License for more details.
   
   Cite this work as:
   * C. Bannwarth, E. Caldeweyher, S. Ehlert, A. Hansen, P. Pracht,
     J. Seibert, S. Spicher, S. Grimme, WIREs Comput. Mol. Sci., 2020, 11,
     e01493. DOI: 10.1002/wcms.1493
   
   for GFN2-xTB:
   * C. Bannwarth, S. Ehlert and S. Grimme., J. Chem. Theory Comput., 2019,
     15, 1652-1671. DOI: 10.1021/acs.jctc.8b01176
   for GFN1-xTB:
   * S. Grimme, C. Bannwarth, P. Shushkov, J. Chem. Theory Comput., 2017,
     13, 1989-2009. DOI: 10.1021/acs.jctc.7b00118
   for GFN0-xTB:
   * P. Pracht, E. Caldeweyher, S. Ehlert, S. Grimme, ChemRxiv, 2019, preprint.
     DOI: 10.26434/chemrxiv.8326202.v1
   for GFN-FF:
   * S. Spicher and S. Grimme, Angew. Chem. Int. Ed., 2020, 59, 15665-15673.
     DOI: 10.1002/anie.202004239
   
   for ALPB and GBSA implicit solvation:
   * S. Ehlert, M. Stahn, S. Spicher, S. Grimme, J. Chem. Theory Comput.,
     2021, 17, 4250-4261. DOI: 10.1021/acs.jctc.1c00471
   
   for ddCOSMO and CPCM-X implicit solvation:
   * M. Stahn, S. Ehlert, S. Grimme, J. Phys. Chem. A,
     2023, XX, XXXX-XXXX. DOI: 10.1021/acs.jpca.3c04382
   
   for DFT-D4:
   * E. Caldeweyher, C. Bannwarth and S. Grimme, J. Chem. Phys., 2017,
     147, 034112. DOI: 10.1063/1.4993215
   * E. Caldeweyher, S. Ehlert, A. Hansen, H. Neugebauer, S. Spicher,
     C. Bannwarth and S. Grimme, J. Chem. Phys., 2019, 150, 154122.
     DOI: 10.1063/1.5090222
   * E. Caldeweyher, J.-M. Mewes, S. Ehlert and S. Grimme, Phys. Chem. Chem. Phys.
     2020, 22, 8499-8512. DOI: 10.1039/D0CP00502A
   
   for sTDA-xTB:
   * S. Grimme and C. Bannwarth, J. Chem. Phys., 2016, 145, 054103.
     DOI: 10.1063/1.4959605
   
   in the mass-spec context:
   * V. Asgeirsson, C. Bauer and S. Grimme, Chem. Sci., 2017, 8, 4879.
     DOI: 10.1039/c7sc00601b
   * J. Koopman and S. Grimme, ACS Omega 2019, 4, 12, 15120-15133.
     DOI: 10.1021/acsomega.9b02011
   
   for metadynamics refer to:
   * S. Grimme, J. Chem. Theory Comput., 2019, 155, 2847-2862
     DOI: 10.1021/acs.jctc.9b00143
   
   for SPH calculations refer to:
   * S. Spicher and S. Grimme, J. Chem. Theory Comput., 2021, 17, 1701-1714
     DOI: 10.1021/acs.jctc.0c01306
   
   for ONIOM refer to:
   * C. Plett, A. Katbashev, S. Ehlert, S. Grimme, M. Bursch,
     Phys. Chem. Chem. Phys., 2023, 25, 17860-17868. DOI: 10.1039/D3CP02178E
   
   for DIPRO refer to:
   * J. Kohn, N. Gildemeister, S. Grimme, D. Fazzi, A. Hansen,
     J. Chem. Phys., 2023, just accepted.
   
   for PTB refer to:
   * S. Grimme, M. Mueller, A. Hansen, J. Chem. Phys., 2023, 158, 124111.
     DOI: 10.1063/5.0137838
   
   with help from (in alphabetical order)
   P. Atkinson, C. Bannwarth, F. Bohle, G. Brandenburg, E. Caldeweyher
   M. Checinski, S. Dohm, S. Ehlert, S. Ehrlich, I. Gerasimov, C. Hölzer
   A. Katbashev, J. Kohn, J. Koopman, C. Lavigne, S. Lehtola, F. März, M. Müller,
   F. Musil, H. Neugebauer, J. Pisarek, C. Plett, P. Pracht, F. Pultar,
   J. Seibert, P. Shushkov, S. Spicher, M. Stahn, M. Steiner, T. Strunk,
   J. Stückrath, T. Rose, and J. Unsleber
   
 * started run on 2025/12/08 at 00:31:29.404     
   ID    Z sym.   atoms
    1    6 C      1, 2, 4-6, 8-12, 14-55, 57-89, 91-99, 101-104
    2    5 B      3, 7, 13, 56, 90, 100
    3    1 H      105-132

           -------------------------------------------------
          |                Calculation Setup                |
           -------------------------------------------------

          program call               : xtb "C:\Users\LENOVO GAMING\Documents\GitHub\molecular-conductivity-sim\dataset\1.5nm-2Bdoped-1.5percent.xyz" --opt --parallel 4
          coordinate file            : C:\Users\LENOVO GAMING\Documents\GitHub\molecular-conductivity-sim\dataset\1.5nm-2Bdoped-1.5percent.xyz
          omp threads                :                     4


           -------------------------------------------------
          |                 G F N 2 - x T B                 |
           -------------------------------------------------

        Reference                      10.1021/acs.jctc.8b01176
      * Hamiltonian:
        H0-scaling (s, p, d)           1.850000    2.230000    2.230000
        zeta-weighting                 0.500000
      * Dispersion:
        s8                             2.700000
        a1                             0.520000
        a2                             5.000000
        s9                             5.000000
      * Repulsion:
        kExp                           1.500000    1.000000
        rExp                           1.000000
      * Coulomb:
        alpha                          2.000000
        third order                    shell-resolved
        anisotropic                    true
        a3                             3.000000
        a5                             4.000000
        cn-shift                       1.200000
        cn-exp                         4.000000
        max-rad                        5.000000


          ...................................................
          :                      SETUP                      :
          :.................................................:
          :  # basis functions                 444          :
          :  # atomic orbitals                 444          :
          :  # shells                          236          :
          :  # electrons                       438          :
          :  max. iterations                   250          :
          :  Hamiltonian                  GFN2-xTB          :
          :  restarted?                      false          :
          :  GBSA solvation                  false          :
          :  PC potential                    false          :
          :  electronic temp.          300.0000000     K    :
          :  accuracy                    1.0000000          :
          :  -> integral cutoff          0.2500000E+02      :
          :  -> integral neglect         0.1000000E-07      :
          :  -> SCF convergence          0.1000000E-05 Eh   :
          :  -> wf. convergence          0.1000000E-03 e    :
          :  Broyden damping             0.4000000          :
          :  net charge                          0          :
          :  unpaired electrons                  0          :
          ...................................................

 iter      E             dE          RMSdq      gap      omega  full diag
   1   -235.7343192 -0.235734E+03  0.680E+00    0.37       0.0  T
   2   -236.1068889 -0.372570E+00  0.440E+00    0.32       1.0  T
   3   -235.2207859  0.886103E+00  0.238E+00    0.16       1.0  T
   4   -235.5541343 -0.333348E+00  0.169E+00    0.37       1.0  T
   5   -236.2725834 -0.718449E+00  0.755E-01    0.23       1.0  T
   6   -236.3446678 -0.720844E-01  0.449E-01    0.45       1.0  T
   7   -236.3443501  0.317658E-03  0.271E-01    0.32       1.0  T
   8   -236.3300031  0.143470E-01  0.295E-01    0.46       1.0  T
   9   -236.3486284 -0.186253E-01  0.992E-02    0.37       1.0  T
  10   -236.3504438 -0.181539E-02  0.315E-02    0.38       1.0  T
  11   -236.3505394 -0.956434E-04  0.160E-02    0.38       1.0  T
  12   -236.3505319  0.747755E-05  0.940E-03    0.38       1.0  T
  13   -236.3505431 -0.111544E-04  0.505E-03    0.38       1.7  T
  14   -236.3505464 -0.331991E-05  0.182E-03    0.38       4.8  T
  15   -236.3505467 -0.295223E-06  0.599E-04    0.38      14.5  T
  16   -236.3505467 -0.274899E-07  0.393E-04    0.38      22.2  T

   *** convergence criteria satisfied after 16 iterations ***

         #    Occupation            Energy/Eh            Energy/eV
      -------------------------------------------------------------
         1        2.0000           -0.6639865             -18.0680
       ...           ...                  ...                  ...
       213        2.0000           -0.3752761             -10.2118
       214        2.0000           -0.3740673             -10.1789
       215        2.0000           -0.3732323             -10.1562
       216        2.0000           -0.3702260             -10.0744
       217        2.0000           -0.3619139              -9.8482
       218        2.0000           -0.3595452              -9.7837
       219        1.9986           -0.3543081              -9.6412 (HOMO)
       220        0.0014           -0.3404459              -9.2640 (LUMO)
       221                         -0.3133784              -8.5275
       222                         -0.3041935              -8.2775
       223                         -0.2960759              -8.0566
       224                         -0.2928013              -7.9675
       ...                                ...                  ...
       444                          0.7460730              20.3017
      -------------------------------------------------------------
                  HL-Gap            0.0138623 Eh            0.3772 eV
             Fermi-level           -0.3473749 Eh           -9.4526 eV

 SCC (total)                   0 d,  0 h,  0 min,  1.160 sec
 SCC setup                      ...        0 min,  0.002 sec (  0.172%)
 Dispersion                     ...        0 min,  0.006 sec (  0.517%)
 classical contributions        ...        0 min,  0.001 sec (  0.086%)
 integral evaluation            ...        0 min,  0.046 sec (  3.966%)
 iterations                     ...        0 min,  0.922 sec ( 79.483%)
 molecular gradient             ...        0 min,  0.176 sec ( 15.172%)
 printout                       ...        0 min,  0.007 sec (  0.603%)

         :::::::::::::::::::::::::::::::::::::::::::::::::::::
         ::                     SUMMARY                     ::
         :::::::::::::::::::::::::::::::::::::::::::::::::::::
         :: total energy            -232.138501795477 Eh    ::
         :: gradient norm              0.070437504926 Eh/a0 ::
         :: HOMO-LUMO gap              0.377211038791 eV    ::
         ::.................................................::
         :: SCC energy              -236.358137254962 Eh    ::
         :: -> isotropic ES            0.119247861010 Eh    ::
         :: -> anisotropic ES          0.023922990008 Eh    ::
         :: -> anisotropic XC          0.091231058452 Eh    ::
         :: -> dispersion             -0.280742872953 Eh    ::
         :: repulsion energy           4.219635459485 Eh    ::
         :: add. restraining           0.000000000000 Eh    ::
         :: total charge               0.000000000010 e     ::
         :::::::::::::::::::::::::::::::::::::::::::::::::::::

      ----------------------------------------------------------- 
     |                   =====================                   |
     |                        A N C O P T                        |
     |                   =====================                   |
     |               Approximate Normal Coordinate               |
     |                Rational Function Optimizer                |
      ----------------------------------------------------------- 
      ----------------------------------------------------------- 
     |                   =====================                   |
     |                        A N C O P T                        |
     |                   =====================                   |
     |               Approximate Normal Coordinate               |
     |                Rational Function Optimizer                |
      ----------------------------------------------------------- 

          ...................................................
          :                      SETUP                      :
          :.................................................:
          :   optimization level            normal          :
          :   max. optcycles                   396          :
          :   ANC micro-cycles                  20          :
          :   degrees of freedom               390          :
          :.................................................:
          :   RF solver                   davidson          :
          :   write xtbopt.log                true          :
          :   linear?                        false          :
          :   energy convergence         0.5000000E-05 Eh   :
          :   grad. convergence          0.1000000E-02 Eh/α :
          :   maxmium RF displ.          1.0000000          :
          :   Hlow (freq-cutoff)         0.1000000E-01      :
          :   Hmax (freq-cutoff)         5.0000000          :
          :   S6 in model hess.         20.0000000          :
          ...................................................

generating ANC from exact Hessian ...
Using Lindh-Hessian (1995)
 Shifting diagonal of input Hessian by   9.896316491556886E-003
 Lowest  eigenvalues of input Hessian
    0.000000    0.000000    0.000000    0.000000    0.000000    0.000000
    0.010000    0.010129    0.010191    0.010359    0.010420    0.011126
    0.011180    0.011300    0.011421    0.011726    0.012547    0.012613
 Highest eigenvalues
    2.052580    2.059805    2.072779    2.092582    2.116391    2.120594
 

........................................................................
.............................. CYCLE    1 ..............................
........................................................................

 iter      E             dE          RMSdq      gap      omega  full diag
   1   -236.3505468 -0.236351E+03  0.115E-04    0.38       0.0  T
   2   -236.3505468  0.120386E-08  0.126E-04    0.38      69.0  T
   3   -236.3505468 -0.146827E-08  0.817E-05    0.38     106.5  T
     SCC iter.                  ...        0 min,  0.171 sec
     gradient                   ...        0 min,  0.182 sec
 * total energy  :  -232.1385018 Eh     change       -0.2905128E-07 Eh
   gradient norm :     0.0704318 Eh/α   predicted     0.0000000E+00 (-100.00%)
   displ. norm   :     0.4538781 α      lambda       -0.1588783E-01
   maximum displ.:     0.2796241 α      in ANC's #47, #44, #71, ...

........................................................................
.............................. CYCLE    2 ..............................
........................................................................

 iter      E             dE          RMSdq      gap      omega  full diag
   1   -236.4869516 -0.236487E+03  0.117E-01    0.37       0.0  T
   2   -236.4840045  0.294712E-02  0.127E-01    0.35       1.0  T
   3   -236.4799632  0.404130E-02  0.173E-01    0.38       1.0  T
   4   -236.4868994 -0.693623E-02  0.360E-02    0.37       1.0  T
   5   -236.4871187 -0.219275E-03  0.105E-02    0.36       1.0  T
   6   -236.4871357 -0.170269E-04  0.465E-03    0.36       1.9  T
   7   -236.4871383 -0.256999E-05  0.262E-03    0.36       3.3  T
   8   -236.4871389 -0.597230E-06  0.131E-03    0.36       6.6  T
   9   -236.4871391 -0.239451E-06  0.541E-04    0.36      16.1  T
  10   -236.4871392 -0.485690E-07  0.202E-04    0.36      43.1  T
     SCC iter.                  ...        0 min,  0.581 sec
     gradient                   ...        0 min,  0.175 sec
 * total energy  :  -232.1501029 Eh     change       -0.1160110E-01 Eh
   gradient norm :     0.0283757 Eh/α   predicted    -0.9580955E-02 ( -17.41%)
   displ. norm   :     0.4462652 α      lambda       -0.6573853E-02
   maximum displ.:     0.2833087 α      in ANC's #47, #44, #71, ...

........................................................................
.............................. CYCLE    3 ..............................
........................................................................

 iter      E             dE          RMSdq      gap      omega  full diag
   1   -236.5958704 -0.236596E+03  0.914E-02    0.35       0.0  T
   2   -236.5943826  0.148781E-02  0.899E-02    0.33       1.0  T
   3   -236.5893153  0.506728E-02  0.165E-01    0.36       1.0  T
   4   -236.5958724 -0.655707E-02  0.219E-02    0.35       1.0  T
   5   -236.5959422 -0.698465E-04  0.776E-03    0.34       1.1  T
   6   -236.5959523 -0.100546E-04  0.327E-03    0.34       2.7  T
   7   -236.5959536 -0.138233E-05  0.193E-03    0.34       4.5  T
   8   -236.5959539 -0.280893E-06  0.918E-04    0.34       9.5  T
   9   -236.5959541 -0.146873E-06  0.430E-04    0.34      20.2  T
     SCC iter.                  ...        0 min,  0.546 sec
     gradient                   ...        0 min,  0.176 sec
 * total energy  :  -232.1540791 Eh     change       -0.3976189E-02 Eh
   gradient norm :     0.0086975 Eh/α   predicted    -0.3941928E-02 (  -0.86%)
   displ. norm   :     0.1782053 α      lambda       -0.7123305E-03
   maximum displ.:     0.1251940 α      in ANC's #47, #44, #22, ...

........................................................................
.............................. CYCLE    4 ..............................
........................................................................

 iter      E             dE          RMSdq      gap      omega  full diag
   1   -236.6281539 -0.236628E+03  0.352E-02    0.34       0.0  T
   2   -236.6281519  0.207119E-05  0.219E-02    0.34       1.0  T
   3   -236.6280577  0.941683E-04  0.204E-02    0.33       1.0  T
   4   -236.6281486 -0.909397E-04  0.598E-03    0.34       1.5  T
   5   -236.6281469  0.172241E-05  0.668E-03    0.34       1.3  T
   6   -236.6281582 -0.113343E-04  0.814E-04    0.34      10.7  T
   7   -236.6281583 -0.366262E-07  0.550E-04    0.34      15.8  T
   8   -236.6281583 -0.424118E-07  0.265E-04    0.34      32.8  T
     SCC iter.                  ...        0 min,  0.450 sec
     gradient                   ...        0 min,  0.181 sec
 * total energy  :  -232.1544888 Eh     change       -0.4096756E-03 Eh
   gradient norm :     0.0047373 Eh/α   predicted    -0.3674769E-03 ( -10.30%)
   displ. norm   :     0.0433341 α      lambda       -0.5918816E-04
   maximum displ.:     0.0255171 α      in ANC's #44, #47, #22, ...

........................................................................
.............................. CYCLE    5 ..............................
........................................................................

 iter      E             dE          RMSdq      gap      omega  full diag
   1   -236.6324952 -0.236632E+03  0.119E-02    0.34       0.0  T
   2   -236.6324747  0.204786E-04  0.117E-02    0.34       1.0  T
   3   -236.6324051  0.696114E-04  0.191E-02    0.34       1.0  T
   4   -236.6324837 -0.785510E-04  0.769E-03    0.34       1.1  T
   5   -236.6324968 -0.131662E-04  0.860E-04    0.34      10.1  T
   6   -236.6324970 -0.142285E-06  0.396E-04    0.34      22.0  T
   7   -236.6324970 -0.175040E-07  0.233E-04    0.34      37.4  T
     SCC iter.                  ...        0 min,  0.416 sec
     gradient                   ...        0 min,  0.185 sec
 * total energy  :  -232.1545204 Eh     change       -0.3161160E-04 Eh
   gradient norm :     0.0013841 Eh/α   predicted    -0.2966117E-04 (  -6.17%)
   displ. norm   :     0.0139503 α      lambda       -0.4275898E-05
   maximum displ.:     0.0095917 α      in ANC's #17, #32, #25, ...

........................................................................
.............................. CYCLE    6 ..............................
........................................................................

 iter      E             dE          RMSdq      gap      omega  full diag
   1   -236.6317598 -0.236632E+03  0.502E-03    0.34       0.0  T
   2   -236.6317561  0.378415E-05  0.477E-03    0.34       1.8  T
   3   -236.6317408  0.152429E-04  0.880E-03    0.34       1.0  T
   4   -236.6317582 -0.173578E-04  0.292E-03    0.34       3.0  T
   5   -236.6317601 -0.195826E-05  0.421E-04    0.34      20.7  T
   6   -236.6317602 -0.264571E-07  0.214E-04    0.34      40.6  T
   7   -236.6317602 -0.730506E-08  0.965E-05    0.34      90.2  T
     SCC iter.                  ...        0 min,  0.423 sec
     gradient                   ...        0 min,  0.189 sec
 * total energy  :  -232.1545223 Eh     change       -0.1849662E-05 Eh
   gradient norm :     0.0006682 Eh/α   predicted    -0.2159053E-05 (  16.73%)
   displ. norm   :     0.0054941 α      lambda       -0.9819697E-06
   maximum displ.:     0.0025705 α      in ANC's #47, #32, #22, ...

   *** GEOMETRY OPTIMIZATION CONVERGED AFTER 6 ITERATIONS ***

------------------------------------------------------------------------
 total energy gain   :        -0.0160205 Eh      -10.0530 kcal/mol
 total RMSD          :         0.0946778 a0        0.0501 Å
 total power (kW/mol):        -7.0102830 (step)  -10.1451 (real)
------------------------------------------------------------------------

 ANCopt (total)                0 d,  0 h,  0 min,  4.146 sec
 optimizer setup                ...        0 min,  0.001 sec (  0.024%)
 model hessian                  ...        0 min,  0.115 sec (  2.774%)
 ANC generation                 ...        0 min,  0.031 sec (  0.748%)
 coordinate transformation      ...        0 min,  0.003 sec (  0.072%)
 single point calculation       ...        0 min,  3.979 sec ( 95.972%)
 optimization log               ...        0 min,  0.014 sec (  0.338%)
 hessian update                 ...        0 min,  0.001 sec (  0.024%)
 rational function              ...        0 min,  0.001 sec (  0.024%)

================
 final structure:
================
132
 xtb: 6.7.1pre (5071a88)
C           -9.35114765215139       -3.65072193875270        0.00000000000588
C          -10.12236555917582       -2.53936624269059       -0.00000000001360
B           -9.44051288193365       -1.18301285172504       -0.00000000001431
C           -7.87458288392170       -1.18649501433196       -0.00000000000885
C           -7.18018021151187       -2.43396517783806       -0.00000000000562
C           -7.92103026312581       -3.63193078313805       -0.00000000000000
B           -7.21301015458618       -4.98074559672156        0.00000000000234
C           -5.68649270779338       -4.92591052298515       -0.00000000000072
C           -4.96647608425974       -6.09425711291539        0.00000000000212
C           -3.56440418129357       -6.11382540955336        0.00000000000149
C           -2.86338825250056       -7.32247398619905        0.00000000000028
C           -1.48784846545032       -7.37491633378468       -0.00000000000530
B           -0.78452244087622       -8.73242229747135       -0.00000000001354
C            0.74135996407166       -8.67611449580579       -0.00000000001840
C            1.47977961322333       -9.85289075119696       -0.00000000002214
C            2.86458363134071       -9.83899877740864        0.00000000001953
C            3.51829488119076       -8.63178760810830        0.00000000001928
C            2.82292154422534       -7.41093667046748       -0.00000000000068
C            1.40950387861099       -7.42166212737186       -0.00000000000656
C            0.68176773228261       -6.17767865114297       -0.00000000000563
C           -0.74668450489058       -6.15595643607178       -0.00000000000473
C           -1.43727770866210       -4.91817143944543       -0.00000000000138
C           -2.85481917757916       -4.89380117014289        0.00000000000010
C           -3.57863799470227       -3.67167982477907        0.00000000000033
C           -4.99714312887331       -3.67477895104701       -0.00000000000058
C           -5.72718590949341       -2.45158190287195       -0.00000000000157
C           -5.00525671652355       -1.23554607653977        0.00000000000040
C           -5.69836651735362        0.01772989440746        0.00000000000262
C           -7.13596857893265        0.00245782613017        0.00000000000002
C           -7.81649304609627        1.25231784260158       -0.00000000000055
C           -7.15080596328570        2.42261643792058        0.00000000000307
C           -5.73344915517715        2.48073501883164        0.00000000000194
C           -4.99627039889655        1.23747981697013        0.00000000000252
C           -3.55549715285752        1.21331752549109        0.00000000000038
C           -2.86085940357054       -0.01683919244676        0.00000000000017
C           -3.57824985056371       -1.23840717882545        0.00000000000046
C           -2.86181981074646       -2.45407346969998        0.00000000000008
C           -1.43836898253896       -2.46153400838842        0.00000000000002
C           -0.72712333691068       -3.69049170606500       -0.00000000000078
C            0.68512001215731       -3.70803033648315       -0.00000000000127
C            1.38307762109806       -4.95352925482251       -0.00000000000289
C            2.81192305782407       -4.94436037963752       -0.00000000000347
C            3.52596759418074       -6.15930344510265       -0.00000000000216
C            4.93027307797646       -6.11707479173078        0.00000000000083
C            5.60780495561025       -4.93817788601808       -0.00000000000105
C            4.93188923348195       -3.70667541669931       -0.00000000000238
C            3.51945070045690       -3.71200370348280       -0.00000000000243
C            2.81385111826171       -2.47770634267438       -0.00000000000147
C            1.39433022962129       -2.47934468457312       -0.00000000000061
C            0.68966788729287       -1.25002582189227       -0.00000000000007
C           -0.72912851190503       -1.24093126136779        0.00000000000002
C           -1.43862882901495       -0.00793040914337       -0.00000000000018
C           -0.71711890013903        1.21351953088021       -0.00000000000045
C           -1.41805032918598        2.44577491695890       -0.00000000000054
C           -2.82315194387126        2.41016436799737       -0.00000000000016
B           -3.56588154945568        3.71917000961735        0.00000000000082
C           -5.08188491688567        3.71867357710075       -0.00000000000109
C           -5.70107663240032        4.99366186836640       -0.00000000000357
C           -4.95956614346368        6.13762275237277        0.00000000001345
C           -3.52468602163497        6.20488060656445        0.00000000002526
C           -2.79984470164677        5.01659386639645        0.00000000000843
C           -1.38070879640130        4.97677277316084        0.00000000000664
C           -0.71206695010338        3.70269875222939        0.00000000000030
C            0.69461533205982        3.67759151257144       -0.00000000000013
C            1.40250363967861        2.43552380865729       -0.00000000000037
C            0.70062869585260        1.20772760453355       -0.00000000000013
C            1.40378758839107       -0.02355758543111       -0.00000000000001
C            2.81754109976488       -0.02828080254367       -0.00000000000021
C            3.52306136795582       -1.25831178020085       -0.00000000000130
C            4.94596926366209       -1.25369003095054       -0.00000000000238
C            5.64915698509729       -2.47284372257610       -0.00000000000256
C            7.05918075013954       -2.43312256880094       -0.00000000000172
C            7.74038248900806       -1.25864846067283        0.00000000000011
C            7.07831178329365       -0.01176887227091        0.00000000000131
C            5.65915789495278       -0.02496856869714       -0.00000000000148
C            4.94946372242978        1.19720743427437       -0.00000000000022
C            3.52700867659867        1.19755201760618       -0.00000000000022
C            2.81775919338938        2.41912066846704       -0.00000000000050
C            3.54091124473803        3.64141062343700       -0.00000000000138
C            2.84112438752303        4.86903974197174        0.00000000000002
C            1.42394155836275        4.90477054091353        0.00000000000074
C            0.75719256879094        6.15352144220716        0.00000000000447
C           -0.66646213062490        6.19402311973856        0.00000000001152
C           -1.39653506290206        7.43953169358653        0.00000000002081
C           -2.81802976438579        7.45172666661980        0.00000000003687
C           -3.49517909670952        8.68305672450397        0.00000000004074
C           -2.82397821426035        9.88019493138045       -0.00000000004279
C           -1.43814176161683        9.87297491711244       -0.00000000003729
C           -0.71364142903172        8.68685255259341        0.00000000001090
B            0.81393242128624        8.72846783147240        0.00000000000732
C            1.51551893106997        7.36700818270434        0.00000000000572
C            2.88579360042047        7.30289880241526        0.00000000000513
C            3.58046933529535        6.08203120893259        0.00000000000279
C            4.97348197176602        6.05854370952621        0.00000000000077
C            5.66763728622063        4.86153023936455       -0.00000000000673
C            4.95150700948309        3.63135090219104       -0.00000000000480
C            5.67058372038616        2.41310059046668       -0.00000000000371
C            7.09584610810779        2.40726596760168       -0.00000000000234
C            7.81772491652976        1.20408902610070        0.00000000001002
B            9.36783504962180        1.25562715568994        0.00000000002141
C           10.00639775099016        2.64379791048849        0.00000000003438
C            9.22767294509526        3.74181104957530       -0.00000000001605
C            7.79094716246009        3.67033148916919       -0.00000000001430
C            7.07931988103573        4.83786654144214       -0.00000000001473
H           -3.37013753381573       10.81241645071160       -0.00000000005015
H           -4.57293537254047        8.70454393029439        0.00000000003674
H           -5.50915026346939        7.06647780303307        0.00000000001344
H           -6.77766844201873        5.10265479655907       -0.00000000000407
H           -7.70820702589498        3.34515469170978        0.00000000000014
H           -8.88927911098096        1.26100898485203       -0.00000000000441
H            0.95175109004406      -10.79513202686138       -0.00000000002451
H           -3.42770603465559       -8.24410730040229       -0.00000000000062
H           -5.49061849518175       -7.03946562632169        0.00000000000199
H          -11.19865186746134       -2.66334221326838        0.00000000001110
H           -9.80074247051719       -4.63709552440533        0.00000000001756
H            9.64783288159139        4.74204915575267       -0.00000000002580
H            7.60082803831357        5.78582927476431       -0.00000000000911
H            5.51586967717946        6.99352297424007        0.00000000000100
H            3.46006798768074        8.21854138745486        0.00000000000430
H           -0.89802904062271       10.80863874679025       -0.00000000004905
H            3.42600212981060      -10.76190152077254        0.00000000001859
H            4.59541493442205       -8.64486279993451        0.00000000002218
H            5.50555557815439       -7.02692065457921        0.00000000000158
H            6.68384489597045       -4.97156269858967       -0.00000000000041
H            7.62840858705623       -3.34736924473539       -0.00000000000118
H            8.81513349759953       -1.27842572726033        0.00000000000236
H           11.08036373565082        2.78802046851408        0.00000000000945
H           -1.37906589567514       -9.74075547354412       -0.00000000000713
H            1.41572042996874        9.73309997321523       -0.00000000000308
H           10.05999019403330        0.31093760712144        0.00000000001096
H          -10.10816464422996       -0.22190869095067       -0.00000000000447
H           -7.78883376290208       -6.00102790299554        0.00000000000291
 
 Bond Distances (Angstroems)
 ---------------------------
C1-C2=1.3527         C1-C6=1.4302         C1-H115=1.0840       C2-C1=1.3527         C2-B3=1.5181         C2-H114=1.0834       
B3-C2=1.5181         B3-C4=1.5659         B3-H131=1.1702       C4-B3=1.5659         C4-C5=1.4277         C4-C29=1.3997        
C5-C4=1.4277         C5-C6=1.4085         C5-C26=1.4531        C6-C1=1.4302         C6-C5=1.4085         C6-B7=1.5233         
B7-C6=1.5233         B7-C8=1.5275         B7-H132=1.1716       C8-B7=1.5275         C8-C9=1.3724         C8-C25=1.4285        
C9-C8=1.3724         C9-C10=1.4022        C9-H113=1.0808       C10-C9=1.4022        C10-C11=1.3972       C10-C23=1.4114       
C11-C10=1.3972       C11-C12=1.3765       C11-H112=1.0807      C12-C11=1.3765       C12-B13=1.5289       C12-C21=1.4266       
B13-C12=1.5289       B13-C14=1.5269       B13-H128=1.1706      C14-B13=1.5269       C14-C15=1.3893       C14-C19=1.4213       
C15-C14=1.3893       C15-C16=1.3849       C15-H111=1.0801      C16-C15=1.3849       C16-C17=1.3728       C16-H121=1.0803      
C17-C16=1.3728       C17-C18=1.4050       C17-H122=1.0772      C18-C17=1.4050       C18-C19=1.4135       C18-C43=1.4356       
C19-C14=1.4213       C19-C18=1.4135       C19-C20=1.4412       C20-C19=1.4412       C20-C21=1.4286       C20-C41=1.4108       
C21-C12=1.4266       C21-C20=1.4286       C21-C22=1.4174       C22-C21=1.4174       C22-C23=1.4178       C22-C39=1.4183       
C23-C10=1.4114       C23-C22=1.4178       C23-C24=1.4204       C24-C23=1.4204       C24-C25=1.4185       C24-C37=1.4129       
C25-C8=1.4285        C25-C24=1.4185       C25-C26=1.4245       C26-C5=1.4531        C26-C25=1.4245       C26-C27=1.4142       
C27-C26=1.4142       C27-C28=1.4322       C27-C36=1.4270       C28-C27=1.4322       C28-C29=1.4377       C28-C33=1.4074       
C29-C4=1.3997        C29-C28=1.4377       C29-C30=1.4231       C30-C29=1.4231       C30-C31=1.3464       C30-H110=1.0728      
C31-C30=1.3464       C31-C32=1.4185       C31-H109=1.0779      C32-C31=1.4185       C32-C33=1.4454       C32-C57=1.3989       
C33-C28=1.4074       C33-C32=1.4454       C33-C34=1.4410       C34-C33=1.4410       C34-C35=1.4127       C34-C55=1.4031       
C35-C34=1.4127       C35-C36=1.4166       C35-C52=1.4223       C36-C27=1.4270       C36-C35=1.4166       C36-C37=1.4111       
C37-C24=1.4129       C37-C36=1.4111       C37-C38=1.4235       C38-C37=1.4235       C38-C39=1.4199       C38-C51=1.4117       
C39-C22=1.4183       C39-C38=1.4199       C39-C40=1.4124       C40-C39=1.4124       C40-C41=1.4277       C40-C49=1.4187       
C41-C20=1.4108       C41-C40=1.4277       C41-C42=1.4289       C42-C41=1.4289       C42-C43=1.4092       C42-C47=1.4210       
C43-C18=1.4356       C43-C42=1.4092       C43-C44=1.4049       C44-C43=1.4049       C44-C45=1.3597       C44-H123=1.0765      
C45-C44=1.3597       C45-C46=1.4048       C45-H124=1.0766      C46-C45=1.4048       C46-C47=1.4124       C46-C71=1.4272       
C47-C42=1.4210       C47-C46=1.4124       C47-C48=1.4217       C48-C47=1.4217       C48-C49=1.4195       C48-C69=1.4106       
C49-C40=1.4187       C49-C48=1.4195       C49-C50=1.4170       C50-C49=1.4170       C50-C51=1.4188       C50-C67=1.4192       
C51-C38=1.4117       C51-C50=1.4188       C51-C52=1.4226       C52-C35=1.4223       C52-C51=1.4226       C52-C53=1.4186       
C53-C52=1.4186       C53-C54=1.4177       C53-C66=1.4178       C54-C53=1.4177       C54-C55=1.4056       C54-C63=1.4416       
C55-C34=1.4031       C55-C54=1.4056       C55-B56=1.5050       B56-C55=1.5050       B56-C57=1.5160       B56-C61=1.5067       
C57-C32=1.3989       C57-B56=1.5160       C57-C58=1.4174       C58-C57=1.4174       C58-C59=1.3633       C58-H108=1.0821      
C59-C58=1.3633       C59-C60=1.4365       C59-H107=1.0793      C60-C59=1.4365       C60-C61=1.3919       C60-C85=1.4332       
C61-B56=1.5067       C61-C60=1.3919       C61-C62=1.4197       C62-C61=1.4197       C62-C63=1.4389       C62-C83=1.4113       
C63-C54=1.4416       C63-C62=1.4389       C63-C64=1.4069       C64-C63=1.4069       C64-C65=1.4296       C64-C81=1.4275       
C65-C64=1.4296       C65-C66=1.4143       C65-C78=1.4154       C66-C53=1.4178       C66-C65=1.4143       C66-C67=1.4179       
C67-C50=1.4192       C67-C66=1.4179       C67-C68=1.4138       C68-C67=1.4138       C68-C69=1.4180       C68-C77=1.4163       
C69-C48=1.4106       C69-C68=1.4180       C69-C70=1.4229       C70-C69=1.4229       C70-C71=1.4074       C70-C75=1.4207       
C71-C46=1.4272       C71-C70=1.4074       C71-C72=1.4106       C72-C71=1.4106       C72-C73=1.3577       C72-H125=1.0770      
C73-C72=1.3577       C73-C74=1.4118       C73-H126=1.0749      C74-C73=1.4118       C74-C75=1.4192       C74-C99=1.4230       
C75-C70=1.4207       C75-C74=1.4192       C75-C76=1.4133       C76-C75=1.4133       C76-C77=1.4225       C76-C97=1.4137       
C77-C68=1.4163       C77-C76=1.4225       C77-C78=1.4125       C78-C65=1.4154       C78-C77=1.4125       C78-C79=1.4202       
C79-C78=1.4202       C79-C80=1.4131       C79-C96=1.4106       C80-C79=1.4131       C80-C81=1.4176       C80-C93=1.4206       
C81-C64=1.4275       C81-C80=1.4176       C81-C82=1.4156       C82-C81=1.4156       C82-C83=1.4242       C82-C91=1.4309       
C83-C62=1.4113       C83-C82=1.4242       C83-C84=1.4437       C84-C83=1.4437       C84-C85=1.4215       C84-C89=1.4220       
C85-C60=1.4332       C85-C84=1.4215       C85-C86=1.4052       C86-C85=1.4052       C86-C87=1.3725       C86-H106=1.0780      
C87-C86=1.3725       C87-C88=1.3859       C87-H105=1.0804      C88-C87=1.3859       C88-C89=1.3899       C88-H120=1.0804      
C89-C84=1.4220       C89-C88=1.3899       C89-B90=1.5281       B90-C89=1.5281       B90-C91=1.5316       B90-H129=1.1711      
C91-C82=1.4309       C91-B90=1.5316       C91-C92=1.3718       C92-C91=1.3718       C92-C93=1.4047       C92-H119=1.0808      
C93-C80=1.4206       C93-C92=1.4047       C93-C94=1.3932       C94-C93=1.3932       C94-C95=1.3837       C94-H118=1.0809      
C95-C94=1.3837       C95-C96=1.4234       C95-C104=1.4119      C96-C79=1.4106       C96-C95=1.4234       C96-C97=1.4146       
C97-C76=1.4137       C97-C96=1.4146       C97-C98=1.4253       C98-C97=1.4253       C98-C99=1.4031       C98-C103=1.4417      
C99-C74=1.4230       C99-C98=1.4031       C99-B100=1.5510      B100-C99=1.5510      B100-C101=1.5280     B100-H130=1.1711     
C101-B100=1.5280     C101-C102=1.3461     C101-H127=1.0836     C102-C101=1.3461     C102-C103=1.4385     C102-H116=1.0849     
C103-C98=1.4417      C103-C102=1.4385     C103-C104=1.3673     C104-C95=1.4119      C104-C103=1.3673     C104-H117=1.0819     
H105-C87=1.0804      H106-C86=1.0780      H107-C59=1.0793      H108-C58=1.0821      H109-C31=1.0779      H110-C30=1.0728      
H111-C15=1.0801      H112-C11=1.0807      H113-C9=1.0808       H114-C2=1.0834       H115-C1=1.0840       H116-C102=1.0849     
H117-C104=1.0819     H118-C94=1.0809      H119-C92=1.0808      H120-C88=1.0804      H121-C16=1.0803      H122-C17=1.0772      
H123-C44=1.0765      H124-C45=1.0766      H125-C72=1.0770      H126-C73=1.0749      H127-C101=1.0836     H128-B13=1.1706      
H129-B90=1.1711      H130-B100=1.1711     H131-B3=1.1702       H132-B7=1.1716       
 B  H  Rav=1.1709 sigma=0.0005  Rmin=1.1702  Rmax=1.1716     5
 C  H  Rav=1.0798 sigma=0.0030  Rmin=1.0728  Rmax=1.0849    23
 C  B  Rav=1.5275 sigma=0.0157  Rmin=1.5050  Rmax=1.5659    13
 C  C  Rav=1.4125 sigma=0.0202  Rmin=1.3461  Rmax=1.4531   129
 
 selected bond angles (degree)
 --------------------
C6-C1-C2=124.01                H115-C1-C2=120.74              H115-C1-C6=115.26              B3-C2-C1=118.55                
H114-C2-C1=118.19              H114-C2-B3=123.26              C4-B3-C2=116.56                H131-B3-C2=118.52              
H131-B3-C4=124.91              C5-C4-B3=119.23                C29-C4-B3=121.72               C29-C4-C5=119.05               
C6-C5-C4=119.16                C26-C5-C4=119.80               C26-C5-C6=121.04               C5-C6-C1=122.49                
B7-C6-C1=116.94                B7-C6-C5=120.57                C8-B7-C6=115.64                H132-B7-C6=122.86              
H132-B7-C8=121.50              C9-C8-B7=119.59                C25-C8-B7=120.91               C25-C8-C9=119.50               
C10-C9-C8=122.44               H113-C9-C8=119.35              H113-C9-C10=118.21             C11-C10-C9=120.91              
C23-C10-C9=119.38              C23-C10-C11=119.70             
 
 selected dihedral angles (degree)
 ---------------------------------
B3-C2-C1-C6=  0.00            B3-C2-C1-H115=180.00          H114-C2-C1-C6=180.00          H114-C2-C1-H115=  0.00        
C4-B3-C2-C1=  0.00            C4-B3-C2-H114=180.00          H131-B3-C2-C1=180.00          H131-B3-C2-H114=  0.00        
C5-C4-B3-C2=  0.00            C5-C4-B3-H131=180.00          C29-C4-B3-C2=180.00           C29-C4-B3-H131=  0.00         
C6-C5-C4-B3=  0.00            C6-C5-C4-C29=180.00           C26-C5-C4-B3=180.00           C26-C5-C4-C29=  0.00          
C5-C6-C1-C2=  0.00            C5-C6-C1-H115=180.00          B7-C6-C1-C2=180.00            B7-C6-C1-H115=  0.00          
C1-C6-C5-C4=  0.00            C1-C6-C5-C26=180.00           B7-C6-C5-C4=180.00            B7-C6-C5-C26=  0.00           
C8-B7-C6-C1=180.00            C8-B7-C6-C5=  0.00            H132-B7-C6-C1=  0.00          H132-B7-C6-C5=180.00          
C9-C8-B7-C6=180.00            C9-C8-B7-H132=  0.00          C25-C8-B7-C6=  0.00           C25-C8-B7-H132=180.00         
C10-C9-C8-B7=180.00           C10-C9-C8-C25=  0.00          H113-C9-C8-B7=  0.00          H113-C9-C8-C25=180.00         
C11-C10-C9-C8=180.00          C11-C10-C9-H113=  0.00        C23-C10-C9-C8=  0.00          C23-C10-C9-H113=180.00        
           -------------------------------------------------
          |                Final Singlepoint                |
           -------------------------------------------------

          ...................................................
          :                      SETUP                      :
          :.................................................:
          :  # basis functions                 444          :
          :  # atomic orbitals                 444          :
          :  # shells                          236          :
          :  # electrons                       438          :
          :  max. iterations                   250          :
          :  Hamiltonian                  GFN2-xTB          :
          :  restarted?                      false          :
          :  GBSA solvation                  false          :
          :  PC potential                    false          :
          :  electronic temp.          300.0000000     K    :
          :  accuracy                    1.0000000          :
          :  -> integral cutoff          0.2500000E+02      :
          :  -> integral neglect         0.1000000E-07      :
          :  -> SCF convergence          0.1000000E-05 Eh   :
          :  -> wf. convergence          0.1000000E-03 e    :
          :  Broyden damping             0.4000000          :
          :  net charge                          0          :
          :  unpaired electrons                  0          :
          ...................................................

 iter      E             dE          RMSdq      gap      omega  full diag
   1   -236.6317602 -0.236632E+03  0.421E-05    0.34       0.0  T
   2   -236.6317602  0.297223E-08  0.112E-04    0.34      77.9  T
   3   -236.6317602 -0.255397E-08  0.547E-05    0.34     159.2  T

   *** convergence criteria satisfied after 3 iterations ***

         #    Occupation            Energy/Eh            Energy/eV
      -------------------------------------------------------------
         1        2.0000           -0.6668629             -18.1463
       ...           ...                  ...                  ...
       213        2.0000           -0.3749908             -10.2040
       214        2.0000           -0.3735242             -10.1641
       215        2.0000           -0.3723033             -10.1309
       216        2.0000           -0.3687947             -10.0354
       217        2.0000           -0.3616391              -9.8407
       218        2.0000           -0.3593380              -9.7781
       219        1.9972           -0.3537884              -9.6271 (HOMO)
       220        0.0028           -0.3413327              -9.2881 (LUMO)
       221                         -0.3127648              -8.5108
       222                         -0.3033400              -8.2543
       223                         -0.2948475              -8.0232
       224                         -0.2914176              -7.9299
       ...                                ...                  ...
       444                          0.7772682              21.1505
      -------------------------------------------------------------
                  HL-Gap            0.0124557 Eh            0.3389 eV
             Fermi-level           -0.3475591 Eh           -9.4576 eV

 SCC (total)                   0 d,  0 h,  0 min,  0.406 sec
 SCC setup                      ...        0 min,  0.002 sec (  0.493%)
 Dispersion                     ...        0 min,  0.004 sec (  0.985%)
 classical contributions        ...        0 min,  0.001 sec (  0.246%)
 integral evaluation            ...        0 min,  0.039 sec (  9.606%)
 iterations                     ...        0 min,  0.182 sec ( 44.828%)
 molecular gradient             ...        0 min,  0.174 sec ( 42.857%)
 printout                       ...        0 min,  0.004 sec (  0.985%)

         :::::::::::::::::::::::::::::::::::::::::::::::::::::
         ::                     SUMMARY                     ::
         :::::::::::::::::::::::::::::::::::::::::::::::::::::
         :: total energy            -232.154522250817 Eh    ::
         :: gradient norm              0.000665911506 Eh/a0 ::
         :: HOMO-LUMO gap              0.338937450837 eV    ::
         ::.................................................::
         :: SCC energy              -236.639490501479 Eh    ::
         :: -> isotropic ES            0.119871819639 Eh    ::
         :: -> anisotropic ES          0.023404712709 Eh    ::
         :: -> anisotropic XC          0.085010737789 Eh    ::
         :: -> dispersion             -0.284093286619 Eh    ::
         :: repulsion energy           4.484968250661 Eh    ::
         :: add. restraining           0.000000000000 Eh    ::
         :: total charge               0.000000000008 e     ::
         :::::::::::::::::::::::::::::::::::::::::::::::::::::

           -------------------------------------------------
          |                Property Printout                |
           -------------------------------------------------

    * Orbital Energies and Occupations

         #    Occupation            Energy/Eh            Energy/eV
      -------------------------------------------------------------
         1        2.0000           -0.6668629             -18.1463
       ...           ...                  ...                  ...
       207        2.0000           -0.3854131             -10.4876
       208        2.0000           -0.3844978             -10.4627
       209        2.0000           -0.3836551             -10.4398
       210        2.0000           -0.3825405             -10.4095
       211        2.0000           -0.3823162             -10.4034
       212        2.0000           -0.3758230             -10.2267
       213        2.0000           -0.3749908             -10.2040
       214        2.0000           -0.3735242             -10.1641
       215        2.0000           -0.3723033             -10.1309
       216        2.0000           -0.3687947             -10.0354
       217        2.0000           -0.3616391              -9.8407
       218        2.0000           -0.3593380              -9.7781
       219        1.9972           -0.3537884              -9.6271 (HOMO)
       220        0.0028           -0.3413327              -9.2881 (LUMO)
       221                         -0.3127648              -8.5108
       222                         -0.3033400              -8.2543
       223                         -0.2948475              -8.0232
       224                         -0.2914176              -7.9299
       225                         -0.2775690              -7.5530
       226                         -0.2673450              -7.2748
       227                         -0.2648881              -7.2080
       228                         -0.2610884              -7.1046
       229                         -0.2508943              -6.8272
       230                         -0.2498343              -6.7983
       ...                                ...                  ...
       444                          0.7772682              21.1505
      -------------------------------------------------------------
                  HL-Gap            0.0124557 Eh            0.3389 eV
             Fermi-level           -0.3475591 Eh           -9.4576 eV

     #   Z          covCN         q      C6AA      α(0)
     1   6 C        2.904    -0.021    28.537     8.759
     2   6 C        2.818    -0.112    30.835     9.098
     3   5 B        2.756     0.214    18.125     7.124
     4   6 C        2.889    -0.065    29.620     8.923
     5   6 C        2.966     0.006    27.878     8.661
     6   6 C        2.885    -0.067    29.675     8.931
     7   5 B        2.761     0.208    18.206     7.139
     8   6 C        2.889    -0.072    29.802     8.950
     9   6 C        2.926    -0.023    28.575     8.766
    10   6 C        2.981     0.006    27.871     8.660
    11   6 C        2.926    -0.025    28.639     8.776
    12   6 C        2.889    -0.072    29.802     8.950
    13   5 B        2.759     0.212    18.151     7.128
    14   6 C        2.892    -0.071    29.766     8.945
    15   6 C        2.924    -0.023    28.580     8.767
    16   6 C        2.910    -0.032    28.789     8.798
    17   6 C        2.926    -0.028    28.711     8.787
    18   6 C        2.980     0.005    27.894     8.663
    19   6 C        2.980     0.006    27.884     8.662
    20   6 C        2.975    -0.004    28.119     8.698
    21   6 C        2.981     0.007    27.864     8.659
    22   6 C        2.986    -0.000    28.031     8.685
    23   6 C        2.995     0.007    27.851     8.657
    24   6 C        2.987     0.001    27.995     8.679
    25   6 C        2.981     0.002    27.970     8.675
    26   6 C        2.972    -0.003    28.100     8.695
    27   6 C        2.980     0.001    28.008     8.681
    28   6 C        2.980     0.007    27.859     8.658
    29   6 C        2.976     0.022    27.518     8.605
    30   6 C        2.918    -0.042    29.048     8.838
    31   6 C        2.916    -0.032    28.792     8.799
    32   6 C        2.972     0.016    27.657     8.626
    33   6 C        2.975     0.001    27.989     8.678
    34   6 C        2.979    -0.000    28.031     8.685
    35   6 C        2.987     0.000    28.010     8.682
    36   6 C        2.985    -0.002    28.068     8.690
    37   6 C        2.988    -0.000    28.029     8.684
    38   6 C        2.985    -0.002    28.058     8.689
    39   6 C        2.987    -0.001    28.048     8.687
    40   6 C        2.984    -0.000    28.032     8.685
    41   6 C        2.981     0.004    27.928     8.669
    42   6 C        2.987     0.001    28.002     8.680
    43   6 C        2.982     0.007    27.860     8.658
    44   6 C        2.920    -0.038    28.933     8.821
    45   6 C        2.919    -0.036    28.886     8.814
    46   6 C        2.984     0.005    27.895     8.664
    47   6 C        2.989     0.000    28.008     8.681
    48   6 C        2.986    -0.000    28.026     8.684
    49   6 C        2.985     0.001    27.999     8.680
    50   6 C        2.986    -0.000    28.033     8.685
    51   6 C        2.986     0.001    28.003     8.680
    52   6 C        2.985     0.002    27.967     8.675
    53   6 C        2.987     0.001    28.007     8.681
    54   6 C        2.979     0.007    27.864     8.659
    55   6 C        2.902    -0.077    29.928     8.970
    56   5 B        2.751     0.192    18.453     7.189
    57   6 C        2.892    -0.061    29.512     8.907
    58   6 C        2.901    -0.034    28.839     8.805
    59   6 C        2.912    -0.038    28.947     8.822
    60   6 C        2.970     0.012    27.754     8.641
    61   6 C        2.903    -0.080    29.998     8.981
    62   6 C        2.977     0.005    27.898     8.664
    63   6 C        2.975    -0.007    28.185     8.708
    64   6 C        2.983     0.002    27.968     8.675
    65   6 C        2.984    -0.001    28.035     8.685
    66   6 C        2.986     0.000    28.014     8.682
    67   6 C        2.986    -0.001    28.053     8.688
    68   6 C        2.988     0.001    27.995     8.679
    69   6 C        2.986     0.001    28.006     8.681
    70   6 C        2.990     0.000    28.013     8.682
    71   6 C        2.983     0.005    27.894     8.663
    72   6 C        2.917    -0.036    28.895     8.815
    73   6 C        2.919    -0.040    28.991     8.830
    74   6 C        2.981     0.013    27.710     8.635
    75   6 C        2.990    -0.000    28.031     8.685
    76   6 C        2.989     0.004    27.921     8.668
    77   6 C        2.986    -0.001    28.053     8.688
    78   6 C        2.988     0.001    28.002     8.680
    79   6 C        2.988    -0.001    28.038     8.686
    80   6 C        2.993     0.005    27.897     8.664
    81   6 C        2.983    -0.002    28.069     8.691
    82   6 C        2.981     0.006    27.879     8.661
    83   6 C        2.976    -0.005    28.133     8.700
    84   6 C        2.979     0.008    27.829     8.653
    85   6 C        2.978     0.007    27.863     8.659
    86   6 C        2.924    -0.028    28.696     8.785
    87   6 C        2.910    -0.032    28.810     8.801
    88   6 C        2.923    -0.023    28.580     8.767
    89   6 C        2.890    -0.072    29.801     8.950
    90   5 B        2.759     0.213    18.136     7.125
    91   6 C        2.887    -0.072    29.781     8.947
    92   6 C        2.925    -0.026    28.660     8.779
    93   6 C        2.981     0.008    27.835     8.654
    94   6 C        2.928    -0.035    28.874     8.812
    95   6 C        2.980     0.008    27.824     8.652
    96   6 C        2.993     0.001    27.998     8.680
    97   6 C        2.986     0.000    28.012     8.682
    98   6 C        2.982     0.005    27.913     8.666
    99   6 C        2.887    -0.075    29.861     8.959
   100   5 B        2.755     0.211    18.172     7.133
   101   6 C        2.819    -0.110    30.776     9.090
   102   6 C        2.909    -0.025    28.628     8.773
   103   6 C        2.972     0.008    27.843     8.655
   104   6 C        2.930    -0.031    28.779     8.798
   105   1 H        0.926     0.027     2.623     2.533
   106   1 H        0.926     0.034     2.533     2.489
   107   1 H        0.926     0.031     2.572     2.508
   108   1 H        0.925     0.023     2.686     2.563
   109   1 H        0.926     0.039     2.461     2.453
   110   1 H        0.926     0.050     2.320     2.382
   111   1 H        0.926     0.035     2.516     2.480
   112   1 H        0.926     0.038     2.472     2.459
   113   1 H        0.926     0.039     2.464     2.455
   114   1 H        0.925     0.016     2.800     2.617
   115   1 H        0.925     0.025     2.662     2.551
   116   1 H        0.925     0.022     2.696     2.568
   117   1 H        0.925     0.036     2.505     2.475
   118   1 H        0.926     0.037     2.488     2.467
   119   1 H        0.926     0.036     2.500     2.473
   120   1 H        0.926     0.033     2.546     2.495
   121   1 H        0.926     0.029     2.594     2.519
   122   1 H        0.926     0.035     2.519     2.482
   123   1 H        0.926     0.035     2.511     2.478
   124   1 H        0.926     0.037     2.492     2.468
   125   1 H        0.926     0.035     2.515     2.480
   126   1 H        0.926     0.047     2.356     2.400
   127   1 H        0.925     0.018     2.759     2.598
   128   1 H        0.939    -0.104     5.691     3.730
   129   1 H        0.939    -0.106     5.754     3.750
   130   1 H        0.939    -0.110     5.935     3.809
   131   1 H        0.939    -0.111     5.969     3.820
   132   1 H        0.938    -0.108     5.859     3.784

 Mol. C6AA /au·bohr⁶  :     355707.378354
 Mol. C8AA /au·bohr⁸  :    9851277.358576
 Mol. α(0) /au        :        975.486366


Wiberg/Mayer (AO) data.
largest (>0.10) Wiberg bond orders for each atom

 ---------------------------------------------------------------------------
     #   Z sym  total        # sym  WBO       # sym  WBO       # sym  WBO
 ---------------------------------------------------------------------------
     1   6 C    3.974 --     2 C    1.667     6 C    1.208   115 H    0.966
     2   6 C    3.873 --     1 C    1.667     3 B    1.116   114 H    0.973
     3   5 B    3.299 --     2 C    1.116     4 C    1.023   131 H    0.959
     4   6 C    3.835 --    29 C    1.379     5 C    1.245     3 B    1.023
     5   6 C    3.977 --     6 C    1.359     4 C    1.245    26 C    1.158
     6   6 C    3.797 --     5 C    1.359     1 C    1.208     7 B    1.089
     7   5 B    3.326 --     6 C    1.089     8 C    1.057   132 H    0.969
     8   6 C    3.933 --     9 C    1.498    25 C    1.215     7 B    1.057
     9   6 C    3.945 --     8 C    1.498    10 C    1.265   113 H    0.965
    10   6 C    3.970 --    11 C    1.293     9 C    1.265    23 C    1.248
    11   6 C    3.948 --    12 C    1.471    10 C    1.293   112 H    0.966
    12   6 C    3.932 --    11 C    1.471    21 C    1.233    13 B    1.066
    13   5 B    3.348 --    14 C    1.073    12 C    1.066   128 H    0.970
    14   6 C    3.951 --    15 C    1.424    19 C    1.275    13 B    1.073
    15   6 C    3.968 --    14 C    1.424    16 C    1.393   111 H    0.969
    16   6 C    3.976 --    17 C    1.487    15 C    1.393   121 H    0.970
    17   6 C    3.975 --    16 C    1.487    18 C    1.327   122 H    0.959
    18   6 C    3.972 --    17 C    1.327    19 C    1.289    43 C    1.163
    19   6 C    3.973 --    18 C    1.289    14 C    1.275    20 C    1.188
    20   6 C    3.952 --    41 C    1.318    21 C    1.226    19 C    1.188
    21   6 C    3.949 --    22 C    1.273    12 C    1.233    20 C    1.226
    22   6 C    3.973 --    21 C    1.273    23 C    1.250    39 C    1.232
    23   6 C    3.974 --    22 C    1.250    10 C    1.248    24 C    1.236
    24   6 C    3.969 --    25 C    1.267    37 C    1.249    23 C    1.236
    25   6 C    3.963 --    24 C    1.267    26 C    1.255     8 C    1.215
    26   6 C    3.938 --    27 C    1.311    25 C    1.255     5 C    1.158
    27   6 C    3.972 --    26 C    1.311    36 C    1.230    28 C    1.206
    28   6 C    3.963 --    33 C    1.356    27 C    1.206    29 C    1.181
    29   6 C    3.968 --     4 C    1.379    30 C    1.204    28 C    1.181
    30   6 C    3.949 --    31 C    1.636    29 C    1.204   110 H    0.956
    31   6 C    3.970 --    30 C    1.636    32 C    1.213   109 H    0.960
    32   6 C    3.950 --    57 C    1.354    31 C    1.213    33 C    1.181
    33   6 C    3.933 --    28 C    1.356    34 C    1.182    32 C    1.181
    34   6 C    3.955 --    55 C    1.314    35 C    1.255    33 C    1.182
    35   6 C    3.963 --    34 C    1.255    52 C    1.246    36 C    1.244
    36   6 C    3.965 --    37 C    1.268    35 C    1.244    27 C    1.230
    37   6 C    3.969 --    36 C    1.268    24 C    1.249    38 C    1.225
    38   6 C    3.959 --    51 C    1.274    39 C    1.242    37 C    1.225
    39   6 C    3.965 --    40 C    1.271    38 C    1.242    22 C    1.232
    40   6 C    3.958 --    39 C    1.271    49 C    1.249    41 C    1.222
    41   6 C    3.974 --    20 C    1.318    40 C    1.222    42 C    1.205
    42   6 C    3.983 --    43 C    1.301    47 C    1.248    41 C    1.205
    43   6 C    3.960 --    42 C    1.301    44 C    1.292    18 C    1.163
    44   6 C    3.966 --    45 C    1.547    43 C    1.292   123 H    0.958
    45   6 C    3.961 --    44 C    1.547    46 C    1.287   124 H    0.958
    46   6 C    3.958 --    45 C    1.287    47 C    1.280    71 C    1.193
    47   6 C    3.976 --    46 C    1.280    42 C    1.248    48 C    1.224
    48   6 C    3.963 --    69 C    1.284    49 C    1.234    47 C    1.224
    49   6 C    3.955 --    50 C    1.259    40 C    1.249    48 C    1.234
    50   6 C    3.961 --    49 C    1.259    51 C    1.243    67 C    1.242
    51   6 C    3.962 --    38 C    1.274    50 C    1.243    52 C    1.229
    52   6 C    3.966 --    53 C    1.264    35 C    1.246    51 C    1.229
    53   6 C    3.961 --    52 C    1.264    54 C    1.247    66 C    1.233
    54   6 C    3.950 --    55 C    1.302    53 C    1.247    63 C    1.193
    55   6 C    3.896 --    34 C    1.314    54 C    1.302    56 B    1.068
    56   5 B    3.415 --    61 C    1.082    55 C    1.068    57 C    1.041
    57   6 C    3.814 --    32 C    1.354    58 C    1.248    56 B    1.041
    58   6 C    3.965 --    59 C    1.607    57 C    1.248   108 H    0.959
    59   6 C    3.883 --    58 C    1.607    60 C    1.186   107 H    0.960
    60   6 C    3.950 --    61 C    1.387    59 C    1.186    85 C    1.179
    61   6 C    3.934 --    60 C    1.387    62 C    1.232    56 B    1.082
    62   6 C    3.968 --    83 C    1.305    61 C    1.232    63 C    1.210
    63   6 C    3.951 --    64 C    1.322    62 C    1.210    54 C    1.193
    64   6 C    3.966 --    63 C    1.322    81 C    1.213    65 C    1.212
    65   6 C    3.955 --    66 C    1.268    78 C    1.259    64 C    1.212
    66   6 C    3.961 --    65 C    1.268    67 C    1.244    53 C    1.233
    67   6 C    3.964 --    68 C    1.260    66 C    1.244    50 C    1.242
    68   6 C    3.961 --    67 C    1.260    77 C    1.248    69 C    1.237
    69   6 C    3.960 --    48 C    1.284    68 C    1.237    70 C    1.221
    70   6 C    3.978 --    71 C    1.292    75 C    1.240    69 C    1.221
    71   6 C    3.946 --    70 C    1.292    72 C    1.267    46 C    1.193
    72   6 C    3.971 --    73 C    1.577    71 C    1.267   125 H    0.958
    73   6 C    3.951 --    72 C    1.577    74 C    1.258   126 H    0.960
    74   6 C    3.965 --    73 C    1.258    99 C    1.256    75 C    1.255
    75   6 C    3.976 --    74 C    1.255    76 C    1.255    70 C    1.240
    76   6 C    3.978 --    97 C    1.263    75 C    1.255    77 C    1.227
    77   6 C    3.960 --    78 C    1.267    68 C    1.248    76 C    1.227
    78   6 C    3.957 --    77 C    1.267    65 C    1.259    79 C    1.217
    79   6 C    3.978 --    96 C    1.279    80 C    1.259    78 C    1.217
    80   6 C    3.961 --    79 C    1.259    81 C    1.253    93 C    1.220
    81   6 C    3.974 --    82 C    1.286    80 C    1.253    64 C    1.213
    82   6 C    3.950 --    81 C    1.286    83 C    1.235    91 C    1.210
    83   6 C    3.953 --    62 C    1.305    82 C    1.235    84 C    1.193
    84   6 C    3.970 --    89 C    1.276    85 C    1.275    83 C    1.193
    85   6 C    3.969 --    86 C    1.322    84 C    1.275    60 C    1.179
    86   6 C    3.972 --    87 C    1.489    85 C    1.322   106 H    0.959
    87   6 C    3.977 --    86 C    1.489    88 C    1.390   105 H    0.970
    88   6 C    3.965 --    89 C    1.423    87 C    1.390   120 H    0.970
    89   6 C    3.953 --    88 C    1.423    84 C    1.276    90 B    1.077
    90   5 B    3.351 --    89 C    1.077    91 C    1.060   129 H    0.970
    91   6 C    3.937 --    92 C    1.507    82 C    1.210    90 B    1.060
    92   6 C    3.945 --    91 C    1.507    93 C    1.260   119 H    0.966
    93   6 C    3.974 --    94 C    1.333    92 C    1.260    80 C    1.220
    94   6 C    3.898 --    95 C    1.385    93 C    1.333   118 H    0.965
    95   6 C    3.975 --    94 C    1.385   104 C    1.231    96 C    1.202
    96   6 C    3.960 --    79 C    1.279    97 C    1.252    95 C    1.202
    97   6 C    3.967 --    76 C    1.263    96 C    1.252    98 C    1.235
    98   6 C    3.967 --    99 C    1.363    97 C    1.235   103 C    1.154
    99   6 C    3.883 --    98 C    1.363    74 C    1.256   100 B    1.063
   100   5 B    3.344 --   101 C    1.099    99 C    1.063   130 H    0.962
   101   6 C    3.933 --   102 C    1.735   100 B    1.099   127 H    0.972
   102   6 C    3.975 --   101 C    1.735   103 C    1.145   116 H    0.964
   103   6 C    3.970 --   104 C    1.519    98 C    1.154   102 C    1.145
   104   6 C    3.969 --   103 C    1.519    95 C    1.231   117 H    0.964
   105   1 H    0.998 --    87 C    0.970
   106   1 H    0.998 --    86 C    0.959
   107   1 H    0.998 --    59 C    0.960
   108   1 H    0.998 --    58 C    0.959
   109   1 H    0.997 --    31 C    0.960
   110   1 H    0.996 --    30 C    0.956
   111   1 H    0.998 --    15 C    0.969
   112   1 H    0.997 --    11 C    0.966
   113   1 H    0.997 --     9 C    0.965
   114   1 H    0.999 --     2 C    0.973
   115   1 H    0.999 --     1 C    0.966
   116   1 H    0.999 --   102 C    0.964
   117   1 H    0.997 --   104 C    0.964
   118   1 H    0.997 --    94 C    0.965
   119   1 H    0.997 --    92 C    0.966
   120   1 H    0.998 --    88 C    0.970
   121   1 H    0.998 --    16 C    0.970
   122   1 H    0.998 --    17 C    0.959
   123   1 H    0.998 --    44 C    0.958
   124   1 H    0.997 --    45 C    0.958
   125   1 H    0.998 --    72 C    0.958
   126   1 H    0.996 --    73 C    0.960
   127   1 H    0.998 --   101 C    0.972
   128   1 H    0.989 --    13 B    0.970
   129   1 H    0.988 --    90 B    0.970
   130   1 H    0.987 --   100 B    0.962
   131   1 H    0.987 --     3 B    0.959
   132   1 H    0.988 --     7 B    0.969
 ---------------------------------------------------------------------------

Topologies differ in total number of bonds
Writing topology from bond orders to xtbtopo.mol

molecular dipole:
                 x           y           z       tot (Debye)
 q only:        0.466       0.030      -0.000
   full:        0.644       0.244      -0.000       1.751
molecular quadrupole (traceless):
                xx          xy          yy          xz          yz          zz
 q only:      -19.446     -17.066      23.713      -0.000      -0.000      -4.266
  q+dip:       -0.027     -20.125      51.497      -0.000       0.000     -51.470
   full:      -22.856     -20.390      27.067      -0.000       0.000      -4.211

           -------------------------------------------------
          |                Geometry Summary                 |
           -------------------------------------------------

      molecular mass/u    :     1270.1406275
   center of mass at/Å    :       -0.0069575      -0.0007118       0.0000000
  moments of inertia/u·Å² :        0.2772675E+05   0.3108346E+05   0.5881020E+05
rotational constants/cm⁻¹ :        0.6079917E-03   0.5423345E-03   0.2866447E-03

 * 157 selected distances

     #   Z          #   Z                                           value/Å
     1   6 C        2   6 C                                       1.3527339
     2   6 C        3   5 B                                       1.5180968
     4   6 C        5   6 C                                       1.4277175
     1   6 C        6   6 C                                       1.4302410
     5   6 C        6   6 C                                       1.4085385
     6   6 C        7   5 B                                       1.5233497
     7   5 B        8   6 C                                       1.5275022
     8   6 C        9   6 C                                       1.3723914
     9   6 C       10   6 C                                       1.4022086
    10   6 C       11   6 C                                       1.3972312
    11   6 C       12   6 C                                       1.3765392
    12   6 C       13   5 B                                       1.5288853
    13   5 B       14   6 C                                       1.5269211
    14   6 C       15   6 C                                       1.3892683
    15   6 C       16   6 C                                       1.3848738
    16   6 C       17   6 C                                       1.3728429
    17   6 C       18   6 C                                       1.4049987
    14   6 C       19   6 C                                       1.4212908
    18   6 C       19   6 C                                       1.4134585
    12   6 C       21   6 C                                       1.4266000
    20   6 C       21   6 C                                       1.4286175
    21   6 C       22   6 C                                       1.4174029
    10   6 C       23   6 C                                       1.4113718
    22   6 C       23   6 C                                       1.4177511
    23   6 C       24   6 C                                       1.4203854
     8   6 C       25   6 C                                       1.4284724
    24   6 C       25   6 C                                       1.4185087
    25   6 C       26   6 C                                       1.4244907
    26   6 C       27   6 C                                       1.4141871
    27   6 C       28   6 C                                       1.4321670
     4   6 C       29   6 C                                       1.3997001
    29   6 C       30   6 C                                       1.4231177
    30   6 C       31   6 C                                       1.3463797
    31   6 C       32   6 C                                       1.4185480
    28   6 C       33   6 C                                       1.4073838
    34   6 C       35   6 C                                       1.4127305
    27   6 C       36   6 C                                       1.4270099
    35   6 C       36   6 C                                       1.4166431
    24   6 C       37   6 C                                       1.4129380
    36   6 C       37   6 C                                       1.4110694
    37   6 C       38   6 C                                       1.4234705
    22   6 C       39   6 C                                       1.4182796
    38   6 C       39   6 C                                       1.4199323
    39   6 C       40   6 C                                       1.4123524
    20   6 C       41   6 C                                       1.4108075
    40   6 C       41   6 C                                       1.4277299
    41   6 C       42   6 C                                       1.4288750
    42   6 C       43   6 C                                       1.4092362
    43   6 C       44   6 C                                       1.4049404
    44   6 C       45   6 C                                       1.3597234
    45   6 C       46   6 C                                       1.4047992
    42   6 C       47   6 C                                       1.4210203
    46   6 C       47   6 C                                       1.4124487
    47   6 C       48   6 C                                       1.4217458
    40   6 C       49   6 C                                       1.4186782
    48   6 C       49   6 C                                       1.4195220
    49   6 C       50   6 C                                       1.4169595
    38   6 C       51   6 C                                       1.4116988
    50   6 C       51   6 C                                       1.4188257
    35   6 C       52   6 C                                       1.4222586
    51   6 C       52   6 C                                       1.4225618
    52   6 C       53   6 C                                       1.4186321
    53   6 C       54   6 C                                       1.4176595
    34   6 C       55   6 C                                       1.4031294
    54   6 C       55   6 C                                       1.4055529
    55   6 C       56   5 B                                       1.5050394
    32   6 C       57   6 C                                       1.3989382
    56   5 B       57   6 C                                       1.5160036
    57   6 C       58   6 C                                       1.4173898
    58   6 C       59   6 C                                       1.3632625
    56   5 B       61   6 C                                       1.5066923
    60   6 C       61   6 C                                       1.3919126
    61   6 C       62   6 C                                       1.4196946
    63   6 C       64   6 C                                       1.4069065
    64   6 C       65   6 C                                       1.4296288
    53   6 C       66   6 C                                       1.4177596
    65   6 C       66   6 C                                       1.4142533
    50   6 C       67   6 C                                       1.4192222
    66   6 C       67   6 C                                       1.4179196
    67   6 C       68   6 C                                       1.4137615
    48   6 C       69   6 C                                       1.4106391
    68   6 C       69   6 C                                       1.4180040
    69   6 C       70   6 C                                       1.4229155
    46   6 C       71   6 C                                       1.4271699
    70   6 C       71   6 C                                       1.4074122
    71   6 C       72   6 C                                       1.4105833
    72   6 C       73   6 C                                       1.3577281
    73   6 C       74   6 C                                       1.4117531
    70   6 C       75   6 C                                       1.4207022
    74   6 C       75   6 C                                       1.4192154
    75   6 C       76   6 C                                       1.4132871
    68   6 C       77   6 C                                       1.4163371
    76   6 C       77   6 C                                       1.4224552
    65   6 C       78   6 C                                       1.4153507
    77   6 C       78   6 C                                       1.4125386
    78   6 C       79   6 C                                       1.4201908
    79   6 C       80   6 C                                       1.4130730
    64   6 C       81   6 C                                       1.4275453
    80   6 C       81   6 C                                       1.4176333
    81   6 C       82   6 C                                       1.4156035
    62   6 C       83   6 C                                       1.4113281
    82   6 C       83   6 C                                       1.4242308
    60   6 C       85   6 C                                       1.4331743
    84   6 C       85   6 C                                       1.4215471
    85   6 C       86   6 C                                       1.4052421
    86   6 C       87   6 C                                       1.3724616
    87   6 C       88   6 C                                       1.3858554
    84   6 C       89   6 C                                       1.4220244
    88   6 C       89   6 C                                       1.3898875
    89   6 C       90   5 B                                       1.5281407
    82   6 C       91   6 C                                       1.4309470
    90   5 B       91   6 C                                       1.5315993
    91   6 C       92   6 C                                       1.3717737
    80   6 C       93   6 C                                       1.4205561
    92   6 C       93   6 C                                       1.4046681
    93   6 C       94   6 C                                       1.3932108
    94   6 C       95   6 C                                       1.3837244
    79   6 C       96   6 C                                       1.4106318
    95   6 C       96   6 C                                       1.4234410
    76   6 C       97   6 C                                       1.4136515
    96   6 C       97   6 C                                       1.4146397
    97   6 C       98   6 C                                       1.4252745
    74   6 C       99   6 C                                       1.4230399
    98   6 C       99   6 C                                       1.4031194
    99   6 C      100   5 B                                       1.5509668 (max)
   100   5 B      101   6 C                                       1.5279990
   101   6 C      102   6 C                                       1.3461224
    95   6 C      104   6 C                                       1.4118810
   103   6 C      104   6 C                                       1.3673156
    87   6 C      105   1 H                                       1.0804292
    86   6 C      106   1 H                                       1.0779705
    59   6 C      107   1 H                                       1.0792658
    58   6 C      108   1 H                                       1.0820950
    31   6 C      109   1 H                                       1.0778557
    30   6 C      110   1 H                                       1.0728214 (min)
    15   6 C      111   1 H                                       1.0801078
    11   6 C      112   1 H                                       1.0806770
     9   6 C      113   1 H                                       1.0808074
     2   6 C      114   1 H                                       1.0834032
     1   6 C      115   1 H                                       1.0840058
   102   6 C      116   1 H                                       1.0849013
   104   6 C      117   1 H                                       1.0819447
    94   6 C      118   1 H                                       1.0809121
    92   6 C      119   1 H                                       1.0808296
    88   6 C      120   1 H                                       1.0803651
    16   6 C      121   1 H                                       1.0802502
    17   6 C      122   1 H                                       1.0771995
    44   6 C      123   1 H                                       1.0764616
    45   6 C      124   1 H                                       1.0765578
    72   6 C      125   1 H                                       1.0769715
    73   6 C      126   1 H                                       1.0749331
   101   6 C      127   1 H                                       1.0836066
    13   5 B      128   1 H                                       1.1705631
    90   5 B      129   1 H                                       1.1710827
   100   5 B      130   1 H                                       1.1711180
     3   5 B      131   1 H                                       1.1702480
     7   5 B      132   1 H                                       1.1715584

 * 4 distinct bonds (by element types)

   Z      Z             #   av. dist./Å        max./Å        min./Å
   1 H    5 B           5     1.1709140     1.1715584     1.1702480
   1 H    6 C          23     1.0797553     1.0849013     1.0728214
   5 B    6 C          12     1.5242663     1.5509668     1.5050394
   6 C    6 C         117     1.4095828     1.4331743     1.3461224


optimized geometry written to: xtbopt.xyz


           -------------------------------------------------
          | TOTAL ENERGY             -232.154522250817 Eh   |
          | GRADIENT NORM               0.000665911506 Eh/α |
          | HOMO-LUMO GAP               0.338937450837 eV   |
           -------------------------------------------------

------------------------------------------------------------------------
 * finished run on 2025/12/08 at 00:31:35.265     
------------------------------------------------------------------------
 total:
 * wall-time:     0 d,  0 h,  0 min,  5.858 sec
 *  cpu-time:     0 d,  0 h,  0 min, 22.703 sec
 * ratio c/w:     3.876 speedup
 SCF:
 * wall-time:     0 d,  0 h,  0 min,  1.163 sec
 *  cpu-time:     0 d,  0 h,  0 min,  4.578 sec
 * ratio c/w:     3.936 speedup
 ANC optimizer:
 * wall-time:     0 d,  0 h,  0 min,  4.562 sec
 *  cpu-time:     0 d,  0 h,  0 min, 17.656 sec
 * ratio c/w:     3.870 speedup

normal termination of xtb
