132
 energy: -232.154522250817 gnorm: 0.000665911506 xtb: 6.7.1pre (5071a88)
C           -9.35114765215139       -3.65072193875270        0.00000000000588
C          -10.12236555917582       -2.53936624269059       -0.00000000001360
B           -9.44051288193365       -1.18301285172504       -0.00000000001431
C           -7.87458288392170       -1.18649501433196       -0.00000000000885
C           -7.18018021151187       -2.43396517783806       -0.00000000000562
C           -7.92103026312581       -3.63193078313805       -0.00000000000000
B           -7.21301015458618       -4.98074559672156        0.00000000000234
C           -5.68649270779338       -4.92591052298515       -0.00000000000072
C           -4.96647608425974       -6.09425711291539        0.00000000000212
C           -3.56440418129357       -6.11382540955336        0.00000000000149
C           -2.86338825250056       -7.32247398619905        0.00000000000028
C           -1.48784846545032       -7.37491633378468       -0.00000000000530
B           -0.78452244087622       -8.73242229747135       -0.00000000001354
C            0.74135996407166       -8.67611449580579       -0.00000000001840
C            1.47977961322333       -9.85289075119696       -0.00000000002214
C            2.86458363134071       -9.83899877740864        0.00000000001953
C            3.51829488119076       -8.63178760810830        0.00000000001928
C            2.82292154422534       -7.41093667046748       -0.00000000000068
C            1.40950387861099       -7.42166212737186       -0.00000000000656
C            0.68176773228261       -6.17767865114297       -0.00000000000563
C           -0.74668450489058       -6.15595643607178       -0.00000000000473
C           -1.43727770866210       -4.91817143944543       -0.00000000000138
C           -2.85481917757916       -4.89380117014289        0.00000000000010
C           -3.57863799470227       -3.67167982477907        0.00000000000033
C           -4.99714312887331       -3.67477895104701       -0.00000000000058
C           -5.72718590949341       -2.45158190287195       -0.00000000000157
C           -5.00525671652355       -1.23554607653977        0.00000000000040
C           -5.69836651735362        0.01772989440746        0.00000000000262
C           -7.13596857893265        0.00245782613017        0.00000000000002
C           -7.81649304609627        1.25231784260158       -0.00000000000055
C           -7.15080596328570        2.42261643792058        0.00000000000307
C           -5.73344915517715        2.48073501883164        0.00000000000194
C           -4.99627039889655        1.23747981697013        0.00000000000252
C           -3.55549715285752        1.21331752549109        0.00000000000038
C           -2.86085940357054       -0.01683919244676        0.00000000000017
C           -3.57824985056371       -1.23840717882545        0.00000000000046
C           -2.86181981074646       -2.45407346969998        0.00000000000008
C           -1.43836898253896       -2.46153400838842        0.00000000000002
C           -0.72712333691068       -3.69049170606500       -0.00000000000078
C            0.68512001215731       -3.70803033648315       -0.00000000000127
C            1.38307762109806       -4.95352925482251       -0.00000000000289
C            2.81192305782407       -4.94436037963752       -0.00000000000347
C            3.52596759418074       -6.15930344510265       -0.00000000000216
C            4.93027307797646       -6.11707479173078        0.00000000000083
C            5.60780495561025       -4.93817788601808       -0.00000000000105
C            4.93188923348195       -3.70667541669931       -0.00000000000238
C            3.51945070045690       -3.71200370348280       -0.00000000000243
C            2.81385111826171       -2.47770634267438       -0.00000000000147
C            1.39433022962129       -2.47934468457312       -0.00000000000061
C            0.68966788729287       -1.25002582189227       -0.00000000000007
C           -0.72912851190503       -1.24093126136779        0.00000000000002
C           -1.43862882901495       -0.00793040914337       -0.00000000000018
C           -0.71711890013903        1.21351953088021       -0.00000000000045
C           -1.41805032918598        2.44577491695890       -0.00000000000054
C           -2.82315194387126        2.41016436799737       -0.00000000000016
B           -3.56588154945568        3.71917000961735        0.00000000000082
C           -5.08188491688567        3.71867357710075       -0.00000000000109
C           -5.70107663240032        4.99366186836640       -0.00000000000357
C           -4.95956614346368        6.13762275237277        0.00000000001345
C           -3.52468602163497        6.20488060656445        0.00000000002526
C           -2.79984470164677        5.01659386639645        0.00000000000843
C           -1.38070879640130        4.97677277316084        0.00000000000664
C           -0.71206695010338        3.70269875222939        0.00000000000030
C            0.69461533205982        3.67759151257144       -0.00000000000013
C            1.40250363967861        2.43552380865729       -0.00000000000037
C            0.70062869585260        1.20772760453355       -0.00000000000013
C            1.40378758839107       -0.02355758543111       -0.00000000000001
C            2.81754109976488       -0.02828080254367       -0.00000000000021
C            3.52306136795582       -1.25831178020085       -0.00000000000130
C            4.94596926366209       -1.25369003095054       -0.00000000000238
C            5.64915698509729       -2.47284372257610       -0.00000000000256
C            7.05918075013954       -2.43312256880094       -0.00000000000172
C            7.74038248900806       -1.25864846067283        0.00000000000011
C            7.07831178329365       -0.01176887227091        0.00000000000131
C            5.65915789495278       -0.02496856869714       -0.00000000000148
C            4.94946372242978        1.19720743427437       -0.00000000000022
C            3.52700867659867        1.19755201760618       -0.00000000000022
C            2.81775919338938        2.41912066846704       -0.00000000000050
C            3.54091124473803        3.64141062343700       -0.00000000000138
C            2.84112438752303        4.86903974197174        0.00000000000002
C            1.42394155836275        4.90477054091353        0.00000000000074
C            0.75719256879094        6.15352144220716        0.00000000000447
C           -0.66646213062490        6.19402311973856        0.00000000001152
C           -1.39653506290206        7.43953169358653        0.00000000002081
C           -2.81802976438579        7.45172666661980        0.00000000003687
C           -3.49517909670952        8.68305672450397        0.00000000004074
C           -2.82397821426035        9.88019493138045       -0.00000000004279
C           -1.43814176161683        9.87297491711244       -0.00000000003729
C           -0.71364142903172        8.68685255259341        0.00000000001090
B            0.81393242128624        8.72846783147240        0.00000000000732
C            1.51551893106997        7.36700818270434        0.00000000000572
C            2.88579360042047        7.30289880241526        0.00000000000513
C            3.58046933529535        6.08203120893259        0.00000000000279
C            4.97348197176602        6.05854370952621        0.00000000000077
C            5.66763728622063        4.86153023936455       -0.00000000000673
C            4.95150700948309        3.63135090219104       -0.00000000000480
C            5.67058372038616        2.41310059046668       -0.00000000000371
C            7.09584610810779        2.40726596760168       -0.00000000000234
C            7.81772491652976        1.20408902610070        0.00000000001002
B            9.36783504962180        1.25562715568994        0.00000000002141
C           10.00639775099016        2.64379791048849        0.00000000003438
C            9.22767294509526        3.74181104957530       -0.00000000001605
C            7.79094716246009        3.67033148916919       -0.00000000001430
C            7.07931988103573        4.83786654144214       -0.00000000001473
H           -3.37013753381573       10.81241645071160       -0.00000000005015
H           -4.57293537254047        8.70454393029439        0.00000000003674
H           -5.50915026346939        7.06647780303307        0.00000000001344
H           -6.77766844201873        5.10265479655907       -0.00000000000407
H           -7.70820702589498        3.34515469170978        0.00000000000014
H           -8.88927911098096        1.26100898485203       -0.00000000000441
H            0.95175109004406      -10.79513202686138       -0.00000000002451
H           -3.42770603465559       -8.24410730040229       -0.00000000000062
H           -5.49061849518175       -7.03946562632169        0.00000000000199
H          -11.19865186746134       -2.66334221326838        0.00000000001110
H           -9.80074247051719       -4.63709552440533        0.00000000001756
H            9.64783288159139        4.74204915575267       -0.00000000002580
H            7.60082803831357        5.78582927476431       -0.00000000000911
H            5.51586967717946        6.99352297424007        0.00000000000100
H            3.46006798768074        8.21854138745486        0.00000000000430
H           -0.89802904062271       10.80863874679025       -0.00000000004905
H            3.42600212981060      -10.76190152077254        0.00000000001859
H            4.59541493442205       -8.64486279993451        0.00000000002218
H            5.50555557815439       -7.02692065457921        0.00000000000158
H            6.68384489597045       -4.97156269858967       -0.00000000000041
H            7.62840858705623       -3.34736924473539       -0.00000000000118
H            8.81513349759953       -1.27842572726033        0.00000000000236
H           11.08036373565082        2.78802046851408        0.00000000000945
H           -1.37906589567514       -9.74075547354412       -0.00000000000713
H            1.41572042996874        9.73309997321523       -0.00000000000308
H           10.05999019403330        0.31093760712144        0.00000000001096
H          -10.10816464422996       -0.22190869095067       -0.00000000000447
H           -7.78883376290208       -6.00102790299554        0.00000000000291
