132
 energy: -232.138501824528 gnorm: 0.070431812714 xtb: 6.7.1pre (5071a88)
C           -9.41351600000000       -3.66084300000000        0.00000000000000
C          -10.19290200000000       -2.53866100000000        0.00000000000000
B           -9.49271200000000       -1.19752000000000        0.00000000000000
C           -7.92551300000000       -1.19189700000000        0.00000000000000
C           -7.22168700000000       -2.45534100000000        0.00000000000000
C           -7.96854700000000       -3.65895200000000        0.00000000000000
B           -7.24816000000000       -4.99102200000000        0.00000000000000
C           -5.72407700000000       -4.95757500000000        0.00000000000000
C           -5.00102400000000       -6.13371100000000        0.00000000000000
C           -3.58894700000000       -6.15772500000000        0.00000000000000
C           -2.88282700000000       -7.37242900000000        0.00000000000000
C           -1.49842500000000       -7.42300700000000        0.00000000000000
B           -0.78079900000000       -8.76970600000000        0.00000000000000
C            0.74053000000000       -8.73475300000000        0.00000000000000
C            1.47744800000000       -9.92220000000000        0.00000000000000
C            2.87523600000000       -9.91221500000000        0.00000000000000
C            3.53656600000000       -8.69825900000000        0.00000000000000
C            2.84276700000000       -7.46200700000000        0.00000000000000
C            1.42044800000000       -7.47230300000000        0.00000000000000
C            0.68982500000000       -6.21689500000000        0.00000000000000
C           -0.75077800000000       -6.19586600000000        0.00000000000000
C           -1.44466900000000       -4.94920000000000        0.00000000000000
C           -2.87108800000000       -4.92987600000000        0.00000000000000
C           -3.59490700000000       -3.69478100000000        0.00000000000000
C           -5.02412900000000       -3.69989000000000        0.00000000000000
C           -5.75581300000000       -2.47006400000000        0.00000000000000
C           -5.03336900000000       -1.24449700000000        0.00000000000000
C           -5.73432200000000        0.01729400000000        0.00000000000000
C           -7.18991200000000        0.00430500000000        0.00000000000000
C           -7.87629300000000        1.26995300000000        0.00000000000000
C           -7.20814300000000        2.44305700000000        0.00000000000000
C           -5.77439900000000        2.50571400000000        0.00000000000000
C           -5.02807400000000        1.24101400000000        0.00000000000000
C           -3.57662900000000        1.22235300000000        0.00000000000000
C           -2.87959000000000       -0.01542600000000        0.00000000000000
C           -3.59745600000000       -1.24556000000000        0.00000000000000
C           -2.87642300000000       -2.47128200000000        0.00000000000000
C           -1.44176800000000       -2.47780300000000        0.00000000000000
C           -0.72839300000000       -3.71476300000000        0.00000000000000
C            0.69293400000000       -3.73154000000000        0.00000000000000
C            1.39820700000000       -4.98817100000000        0.00000000000000
C            2.83781200000000       -4.98043900000000        0.00000000000000
C            3.55555000000000       -6.20403000000000        0.00000000000000
C            4.97165500000000       -6.16124100000000        0.00000000000000
C            5.65209600000000       -4.97647200000000        0.00000000000000
C            4.97243500000000       -3.73312500000000        0.00000000000000
C            3.55109900000000       -3.73776800000000        0.00000000000000
C            2.83911300000000       -2.49596600000000        0.00000000000000
C            1.40800100000000       -2.49760000000000        0.00000000000000
C            0.69799800000000       -1.25912100000000        0.00000000000000
C           -0.72899300000000       -1.25115400000000        0.00000000000000
C           -1.44466600000000       -0.00792500000000        0.00000000000000
C           -0.72166700000000        1.22007200000000        0.00000000000000
C           -1.43455200000000        2.46112500000000        0.00000000000000
C           -2.84681000000000        2.43082600000000        0.00000000000000
B           -3.59326500000000        3.73878400000000        0.00000000000000
C           -5.11536200000000        3.73953000000000        0.00000000000000
C           -5.74931200000000        5.03062000000000        0.00000000000000
C           -5.01031300000000        6.18108500000000        0.00000000000000
C           -3.55294400000000        6.23495500000000        0.00000000000000
C           -2.82849800000000        5.03640500000000        0.00000000000000
C           -1.39749800000000        5.00346900000000        0.00000000000000
C           -0.71481500000000        3.72456300000000        0.00000000000000
C            0.69901400000000        3.69985900000000        0.00000000000000
C            1.41463600000000        2.44728800000000        0.00000000000000
C            0.70726200000000        1.21393400000000        0.00000000000000
C            1.41609100000000       -0.02451300000000        0.00000000000000
C            2.83912100000000       -0.02870200000000        0.00000000000000
C            3.55075900000000       -1.26942600000000        0.00000000000000
C            4.98347100000000       -1.26457800000000        0.00000000000000
C            5.69299900000000       -2.49065500000000        0.00000000000000
C            7.11491300000000       -2.44961300000000        0.00000000000000
C            7.79967700000000       -1.26874200000000        0.00000000000000
C            7.13118200000000       -0.01164900000000        0.00000000000000
C            5.70168700000000       -0.02555700000000        0.00000000000000
C            4.98703300000000        1.20525900000000        0.00000000000000
C            3.55206700000000        1.20420900000000        0.00000000000000
C            2.83781200000000        2.43482000000000        0.00000000000000
C            3.56351300000000        3.66774000000000        0.00000000000000
C            2.86075200000000        4.90353700000000        0.00000000000000
C            1.43329900000000        4.93403000000000        0.00000000000000
C            0.75980300000000        6.18867800000000        0.00000000000000
C           -0.67367700000000        6.22408800000000        0.00000000000000
C           -1.40734400000000        7.48213200000000        0.00000000000000
C           -2.84054800000000        7.49004300000000        0.00000000000000
C           -3.51905700000000        8.73553200000000        0.00000000000000
C           -2.84302500000000        9.94129600000000        0.00000000000000
C           -1.44466600000000        9.93337000000000        0.00000000000000
C           -0.71713600000000        8.73874100000000        0.00000000000000
B            0.80731200000000        8.76384900000000        0.00000000000000
C            1.52278200000000        7.41390800000000        0.00000000000000
C            2.90084100000000        7.35459400000000        0.00000000000000
C            3.60370500000000        6.12689400000000        0.00000000000000
C            5.00499800000000        6.10133800000000        0.00000000000000
C            5.70320900000000        4.89834100000000        0.00000000000000
C            4.98134800000000        3.65961100000000        0.00000000000000
C            5.70529400000000        2.43217000000000        0.00000000000000
C            7.13989300000000        2.42932200000000        0.00000000000000
C            7.86784600000000        1.21903800000000        0.00000000000000
B            9.41689200000000        1.28460800000000        0.00000000000000
C           10.07645300000000        2.66159500000000        0.00000000000000
C            9.28921600000000        3.77048200000000        0.00000000000000
C            7.84213500000000        3.70314500000000        0.00000000000000
C            7.12545500000000        4.87533700000000        0.00000000000000
H           -3.39459400000000       10.87653200000000        0.00000000000000
H           -4.60169900000000        8.75699600000000        0.00000000000000
H           -5.56036500000000        7.11417700000000        0.00000000000000
H           -6.83089000000000        5.13677900000000        0.00000000000000
H           -7.77147900000000        3.36815800000000        0.00000000000000
H           -8.95533500000000        1.27204800000000        0.00000000000000
H            0.94326500000000      -10.86881100000000        0.00000000000000
H           -3.44816800000000       -8.30136600000000        0.00000000000000
H           -5.53136700000000       -7.08338700000000        0.00000000000000
H          -11.27581100000000       -2.66079200000000        0.00000000000000
H           -9.87147800000000       -4.65142100000000        0.00000000000000
H            9.71469300000000        4.77450600000000        0.00000000000000
H            7.65326100000000        5.82602600000000        0.00000000000000
H            5.55199300000000        7.04045600000000        0.00000000000000
H            3.47487800000000        8.27816900000000        0.00000000000000
H           -0.90073900000000       10.87456600000000        0.00000000000000
H            3.43998000000000      -10.83954100000000        0.00000000000000
H            4.61892700000000       -8.71164600000000        0.00000000000000
H            5.54839400000000       -7.07621800000000        0.00000000000000
H            6.73332000000000       -5.01070600000000        0.00000000000000
H            7.68666200000000       -3.36839300000000        0.00000000000000
H            8.88102300000000       -1.28684900000000        0.00000000000000
H           11.15631000000000        2.80603600000000        0.00000000000000
H           -1.39205600000000       -9.80075400000000        0.00000000000000
H            1.42240600000000        9.79271900000000        0.00000000000000
H           10.09844500000000        0.30064900000000        0.00000000000000
H          -10.13848300000000       -0.19163200000000        0.00000000000000
H           -7.83831800000000       -6.03670400000000        0.00000000000000
132
 energy: -232.150102924309 gnorm: 0.028375671759 xtb: 6.7.1pre (5071a88)
C           -9.39030912716902       -3.65399335914597        0.00000000000000
C          -10.16411688234257       -2.54100986133441       -0.00000000000000
B           -9.47408538019378       -1.19196434879485       -0.00000000000000
C           -7.90508479063176       -1.18925926521449       -0.00000000000000
C           -7.20721822616227       -2.44494342118673        0.00000000000000
C           -7.95337975204552       -3.64337123245721        0.00000000000000
B           -7.23870201257271       -4.98688067074212        0.00000000000000
C           -5.70917758299376       -4.94365867830988       -0.00000000000000
C           -4.98564355127922       -6.11394020385332        0.00000000000000
C           -3.57829544875789       -6.13772457526087        0.00000000000000
C           -2.87316786974798       -7.34852360983681        0.00000000000000
C           -1.49361590222247       -7.40272731900288        0.00000000000000
B           -0.78269307012237       -8.75792565753148        0.00000000000000
C            0.74330101909947       -8.71291925858490       -0.00000000000000
C            1.47938283476228       -9.89424744171690       -0.00000000000000
C            2.86746502396488       -9.88367771713661        0.00000000000000
C            3.52491926993370       -8.67592806626824        0.00000000000000
C            2.83432360516780       -7.44536760545151       -0.00000000000000
C            1.41735326184980       -7.45463665073777       -0.00000000000000
C            0.68741232279299       -6.20438649936235       -0.00000000000000
C           -0.74810341620657       -6.18076481046639       -0.00000000000000
C           -1.44126926521831       -4.93842115617918       -0.00000000000000
C           -2.86422756455058       -4.91488136673618       -0.00000000000000
C           -3.58965300105387       -3.68616106535587       -0.00000000000000
C           -5.01454972920580       -3.68905956844597       -0.00000000000000
C           -5.74715566888109       -2.46260974540223       -0.00000000000000
C           -5.02421704603399       -1.24146217826257        0.00000000000000
C           -5.72063402921195        0.01717553794479        0.00000000000000
C           -7.16713188332493        0.00087954278976        0.00000000000000
C           -7.84691408448006        1.25985004697567        0.00000000000000
C           -7.18168709121681        2.43017912639035        0.00000000000000
C           -5.75722255533367        2.49493906882805        0.00000000000000
C           -5.01631884115877        1.23871858917503        0.00000000000000
C           -3.56899600660178        1.21721090520926       -0.00000000000000
C           -2.87247733164676       -0.01747126711724       -0.00000000000000
C           -3.59144047736328       -1.24391192021924       -0.00000000000000
C           -2.87163583602570       -2.46541534041452       -0.00000000000000
C           -1.44072286271484       -2.47284728058933        0.00000000000000
C           -0.72715711284512       -3.70695406693136       -0.00000000000000
C            0.69095623920336       -3.72485656142042       -0.00000000000000
C            1.39262846030034       -4.97757131383714       -0.00000000000000
C            2.82744607857166       -4.96896887472455       -0.00000000000000
C            3.54170364354500       -6.18939158435885       -0.00000000000000
C            4.95106313351978       -6.14398536620286       -0.00000000000000
C            5.62963590421368       -4.96271718733112       -0.00000000000000
C            4.95575533763591       -3.72320066561296       -0.00000000000000
C            3.53860666135172       -3.72985609412327       -0.00000000000000
C            2.83037161821566       -2.49017210357847        0.00000000000000
C            1.40366962346455       -2.49238734347451        0.00000000000000
C            0.69583069390994       -1.25692135746037        0.00000000000000
C           -0.72874693931518       -1.24823096206778       -0.00000000000000
C           -1.44222570735290       -0.00879990693631       -0.00000000000000
C           -0.71938876878644        1.21703957195611       -0.00000000000000
C           -1.42655143581965        2.45468317162524        0.00000000000000
C           -2.83599011140707        2.42084199012217        0.00000000000000
B           -3.58167515773780        3.73329489732039       -0.00000000000000
C           -5.10240403647268        3.73040034765980       -0.00000000000000
C           -5.72439468028757        5.01623698182374        0.00000000000000
C           -4.98513006442746        6.16167895325919        0.00000000000000
C           -3.53927631642662        6.22757096589798        0.00000000000000
C           -2.81530777143049        5.03471282602078        0.00000000000000
C           -1.38956783894218        4.99677734198744        0.00000000000000
C           -0.71404172297423        3.71764563133723       -0.00000000000000
C            0.69698587245878        3.69211280366287        0.00000000000000
C            1.41052187475720        2.44361048995810        0.00000000000000
C            0.70544933324541        1.21172897752298        0.00000000000000
C            1.41253186238348       -0.02456190300665        0.00000000000000
C            2.83238056309658       -0.02848987992790        0.00000000000000
C            3.54117915674475       -1.26549102911354       -0.00000000000000
C            4.96979639510852       -1.25941254914696       -0.00000000000000
C            5.67504813884342       -2.48300844779050       -0.00000000000000
C            7.09059845277249       -2.43768981689696        0.00000000000000
C            7.77236794071266       -1.26077082898006        0.00000000000000
C            7.10989292546205       -0.00831298280326        0.00000000000000
C            5.68579220154607       -0.02385149759159        0.00000000000000
C            4.97383681431230        1.20308099446092        0.00000000000000
C            3.54392963618253        1.20216558721743        0.00000000000000
C            2.83115227099887        2.42910878148231       -0.00000000000000
C            3.55600210325220        3.65767925522614        0.00000000000000
C            2.85273808908522        4.88925202604623       -0.00000000000000
C            1.42925582182595        4.92335601541707       -0.00000000000000
C            0.75781803691994        6.17511556658866       -0.00000000000000
C           -0.67121303635966        6.21594402849835        0.00000000000000
C           -1.40492766305749        7.46778151818833        0.00000000000000
C           -2.83110424397119        7.47866850451484        0.00000000000000
C           -3.50617275937510        8.71750157613375        0.00000000000000
C           -2.83377197771595        9.91632494252757       -0.00000000000000
C           -1.44504451890636        9.90844069150044       -0.00000000000000
C           -0.71957884146602        8.71947435113244       -0.00000000000000
B            0.80851717899902        8.75233561340532        0.00000000000000
C            1.51890439804189        7.39396375270144       -0.00000000000000
C            2.89243691207201        7.32990230294269       -0.00000000000000
C            3.59373256762674        6.10683664393685       -0.00000000000000
C            4.99133843204513        6.08087676380648        0.00000000000000
C            5.69007958355047        4.88196304615775       -0.00000000000000
C            4.97120678246160        3.64797841950907        0.00000000000000
C            5.69368646745366        2.42512052544846        0.00000000000000
C            7.12372666377909        2.42084436714754       -0.00000000000000
C            7.84870146636831        1.21484391872746        0.00000000000000
B            9.40045997155659        1.27533324799616       -0.00000000000000
C           10.04709186709316        2.65918717741438        0.00000000000000
C            9.26492457030281        3.75902364126698        0.00000000000000
C            7.82315112718470        3.68897505501632       -0.00000000000000
C            7.10759002478947        4.85740023676148       -0.00000000000000
H           -3.38165325695744       10.85018691493562       -0.00000000000000
H           -4.58557851266478        8.74291172616744        0.00000000000000
H           -5.53518348180804        7.09226679669224        0.00000000000000
H           -6.80310928457895        5.12432070063223        0.00000000000000
H           -7.74477209773650        3.35224232188047       -0.00000000000000
H           -8.92205814057656        1.26794593290295       -0.00000000000000
H            0.95007523888238      -10.83890469362238       -0.00000000000000
H           -3.43645137731248       -8.27417473521536        0.00000000000000
H           -5.51337120246603       -7.06056787582299        0.00000000000000
H          -11.24280005277300       -2.66654810903911        0.00000000000000
H           -9.84647297161924       -4.64058543977297        0.00000000000000
H            9.69073518012246        4.75939392663235       -0.00000000000000
H            7.63289165216906        5.80614204288086        0.00000000000000
H            5.53587190136800        7.01772953523862       -0.00000000000000
H            3.46474983330686        8.25004405453112       -0.00000000000000
H           -0.90560923986025       10.84743515195915       -0.00000000000000
H            3.42823524327194      -10.80987733164236        0.00000000000000
H            4.60396582455927       -8.69396812316496        0.00000000000000
H            5.52767240933791       -7.05615020799971       -0.00000000000000
H            6.70806149152138       -4.99912331948592       -0.00000000000000
H            7.66365455537397       -3.35235634827113        0.00000000000000
H            8.84987078949838       -1.28165644341890        0.00000000000000
H           11.12315550482274        2.80610841136323        0.00000000000000
H           -1.38171184200413       -9.77607101362266        0.00000000000000
H            1.41260666824533        9.76781649724955        0.00000000000000
H           10.09458755498685        0.32079876163966       -0.00000000000000
H          -10.14113195059928       -0.21978836376823       -0.00000000000000
H           -7.82183767949816       -6.01615062406321       -0.00000000000000
132
 energy: -232.154079113216 gnorm: 0.008697455194 xtb: 6.7.1pre (5071a88)
C           -9.36459592359634       -3.64980840844354        0.00000000000000
C          -10.13456504535679       -2.53863364230007        0.00000000000000
B           -9.45171336960456       -1.18109740787909        0.00000000000000
C           -7.88335925141304       -1.18828879254196        0.00000000000000
C           -7.18983125229926       -2.43735085804637        0.00000000000000
C           -7.93337565686336       -3.63330785551132        0.00000000000000
B           -7.22431692796772       -4.98408984036290        0.00000000000000
C           -5.69369909469323       -4.93079249507444        0.00000000000000
C           -4.97175060175117       -6.09805807096718       -0.00000000000000
C           -3.56843652902914       -6.11986904559577       -0.00000000000000
C           -2.86546357530801       -7.32833438906962       -0.00000000000000
C           -1.48952390346916       -7.38294249813176       -0.00000000000000
B           -0.78555893054000       -8.74320029191257        0.00000000000000
C            0.74250749633368       -8.68868916342900        0.00000000000000
C            1.47877360443427       -9.86654166276337        0.00000000000000
C            2.86288675116369       -9.85428715195976       -0.00000000000001
C            3.51817815930786       -8.64825045429333       -0.00000000000001
C            2.82612825420677       -7.42442170366205       -0.00000000000000
C            1.41233061354468       -7.43387874445177        0.00000000000000
C            0.68397764409469       -6.18793962694880        0.00000000000001
C           -0.74632963423910       -6.16430092028551        0.00000000000000
C           -1.43800975280787       -4.92552703367770        0.00000000000000
C           -2.85746028425483       -4.90001184462659        0.00000000000000
C           -3.58278755149089       -3.67659468986706        0.00000000000000
C           -5.00325450253780       -3.67879284321691        0.00000000000000
C           -5.73493002516140       -2.45509773307995        0.00000000000000
C           -5.01185229914809       -1.23796443252723       -0.00000000000000
C           -5.70523981861438        0.01710782173188       -0.00000000000000
C           -7.14425876945078       -0.00129806034614       -0.00000000000000
C           -7.82437966355855        1.24930261886145       -0.00000000000000
C           -7.15988012007171        2.42034127775519       -0.00000000000001
C           -5.74146302808198        2.48402736007247       -0.00000000000001
C           -5.00324401466983        1.23750246161942       -0.00000000000000
C           -3.56028067117327        1.21361845113588        0.00000000000000
C           -2.86430472267766       -0.01788576654992        0.00000000000001
C           -3.58283009747172       -1.24097413688066        0.00000000000000
C           -2.86512058675982       -2.45817715827239        0.00000000000000
C           -1.43903478960766       -2.46592808391461       -0.00000000000000
C           -0.72641528528619       -3.69669791682574        0.00000000000000
C            0.68780866439315       -3.71489231404024       -0.00000000000000
C            1.38631655930894       -4.96289195326857        0.00000000000000
C            2.81683772728438       -4.95390150967975        0.00000000000000
C            3.52956838456841       -6.17098206033378        0.00000000000000
C            4.93425172798636       -6.12626965470915        0.00000000000000
C            5.61227882555854       -4.94669604727176        0.00000000000000
C            4.93949227462783       -3.71238665635557        0.00000000000000
C            3.52575310482272       -3.71923095101814        0.00000000000000
C            2.81997061896410       -2.48260157463694       -0.00000000000000
C            1.39815217777639       -2.48464341451769       -0.00000000000000
C            0.69254945681710       -1.25319078520673       -0.00000000000000
C           -0.72862335242183       -1.24388219225301       -0.00000000000000
C           -1.43954596157847       -0.00882429353414        0.00000000000000
C           -0.71733466582612        1.21422789242041       -0.00000000000000
C           -1.41967585857488        2.44795221808135       -0.00000000000000
C           -2.82608425805372        2.41197621977926       -0.00000000000000
B           -3.57076489375270        3.72417159347241        0.00000000000000
C           -5.08939677177726        3.72136032079075        0.00000000000001
C           -5.70499261461670        5.00070631463299        0.00000000000000
C           -4.96393917922647        6.14386139887857       -0.00000000000000
C           -3.52769989825383        6.21411250486446       -0.00000000000000
C           -2.80363336914024        5.02530181545650        0.00000000000000
C           -1.38268856363382        4.98457542365589       -0.00000000000000
C           -0.71282890139600        3.70787191750741        0.00000000000000
C            0.69508746044605        3.68238810356082        0.00000000000000
C            1.40541253268321        2.43832711883949       -0.00000000000000
C            0.70283050134059        1.20882976452233       -0.00000000000000
C            1.40756876519752       -0.02442398406593       -0.00000000000000
C            2.82345199616315       -0.02861992907881       -0.00000000000000
C            3.52980332672128       -1.26096379883515        0.00000000000000
C            4.95455721613204       -1.25506715133755        0.00000000000000
C            5.65736554167034       -2.47592003634500        0.00000000000000
C            7.06813023273279       -2.43155291516046       -0.00000000000000
C            7.74901372239299       -1.25619036937343        0.00000000000000
C            7.08856447730290       -0.00796102215047       -0.00000000000000
C            5.66839773712507       -0.02361643647702       -0.00000000000000
C            4.95813179989609        1.19971984519113       -0.00000000000000
C            3.53343114543202        1.19919874842779       -0.00000000000000
C            2.82267930912632        2.42221918599504        0.00000000000000
C            3.54630325769022        3.64651975241839        0.00000000000000
C            2.84435468002006        4.87488177357412        0.00000000000000
C            1.42514959854430        4.91106345603022        0.00000000000000
C            0.75659625698550        6.16042481834884        0.00000000000000
C           -0.66846795148853        6.20271728265330       -0.00000000000000
C           -1.40036010242403        7.44973182699468       -0.00000000000001
C           -2.82208115052001        7.46212898580867       -0.00000000000001
C           -3.49766417440693        8.69485208048023       -0.00000000000001
C           -2.82655199772428        9.89147033515028        0.00000000000001
C           -1.44157836075996        9.88409421295180        0.00000000000001
C           -0.71758562663219        8.69771719063524        0.00000000000000
B            0.81205593582872        8.73830357249915       -0.00000000000000
C            1.51584866681583        7.37458701861723        0.00000000000000
C            2.88625807144671        7.30896745112181       -0.00000000000000
C            3.58390717601843        6.08857559363583       -0.00000000000000
C            4.97793084699123        6.06378286282236       -0.00000000000000
C            5.67485762754185        4.86749377052515        0.00000000000001
C            4.95859747152639        3.63644071017815        0.00000000000000
C            5.67936385302937        2.41741107633405        0.00000000000000
C            7.10595224347531        2.41256134333270        0.00000000000000
C            7.82842979051339        1.20925330662934       -0.00000000000001
B            9.38106095421496        1.26255250994178       -0.00000000000000
C           10.01850516104451        2.65288691172984       -0.00000000000001
C            9.23928092929139        3.74939633969243       -0.00000000000000
C            7.80162739858495        3.67705094347620        0.00000000000001
C            7.08790248909832        4.84332382962236        0.00000000000001
H           -3.37214138469054       10.82455217981499        0.00000000000001
H           -4.57568653807652        8.71967867089798       -0.00000000000001
H           -5.51265265497482        7.07409095307866       -0.00000000000000
H           -6.78204059705577        5.10999271796422       -0.00000000000001
H           -7.72109453940023        3.34139820634746        0.00000000000000
H           -8.89832129173036        1.25601238670448        0.00000000000001
H            0.95176438888278      -10.80975780634791        0.00000000000001
H           -3.42819640729656       -8.25136265951954       -0.00000000000000
H           -5.49715156133723       -7.04302987975416       -0.00000000000000
H          -11.21104669007532       -2.66340937771211       -0.00000000000001
H           -9.81839033246832       -4.63458172600330       -0.00000000000000
H            9.66295205285894        4.74853700148632        0.00000000000000
H            7.61088366050618        5.79101030724637        0.00000000000000