      -----------------------------------------------------------      
     |                   =====================                   |     
     |                           x T B                           |     
     |                   =====================                   |     
     |                         S. Grimme                         |     
     |          Mulliken Center for Theoretical Chemistry        |     
     |                    University of Bonn                     |     
      -----------------------------------------------------------      

   * xtb version 6.7.1pre (5071a88) compiled by 'Marcel@Raven' on 2024-07-23

   xtb is free software: you can redistribute it and/or modify it under
   the terms of the GNU Lesser General Public License as published by
   the Free Software Foundation, either version 3 of the License, or
   (at your option) any later version.
   
   xtb is distributed in the hope that it will be useful,
   but WITHOUT ANY WARRANTY; without even the implied warranty of
   MERCHANTABILITY or FITNESS FOR A PARTICULAR PURPOSE.  See the
   GNU Lesser General Public License for more details.
   
   Cite this work as:
   * C. Bannwarth, E. Caldeweyher, S. Ehlert, A. Hansen, P. Pracht,
     J. Seibert, S. Spicher, S. Grimme, WIREs Comput. Mol. Sci., 2020, 11,
     e01493. DOI: 10.1002/wcms.1493
   
   for GFN2-xTB:
   * C. Bannwarth, S. Ehlert and S. Grimme., J. Chem. Theory Comput., 2019,
     15, 1652-1671. DOI: 10.1021/acs.jctc.8b01176
   for GFN1-xTB:
   * S. Grimme, C. Bannwarth, P. Shushkov, J. Chem. Theory Comput., 2017,
     13, 1989-2009. DOI: 10.1021/acs.jctc.7b00118
   for GFN0-xTB:
   * P. Pracht, E. Caldeweyher, S. Ehlert, S. Grimme, ChemRxiv, 2019, preprint.
     DOI: 10.26434/chemrxiv.8326202.v1
   for GFN-FF:
   * S. Spicher and S. Grimme, Angew. Chem. Int. Ed., 2020, 59, 15665-15673.
     DOI: 10.1002/anie.202004239
   
   for ALPB and GBSA implicit solvation:
   * S. Ehlert, M. Stahn, S. Spicher, S. Grimme, J. Chem. Theory Comput.,
     2021, 17, 4250-4261. DOI: 10.1021/acs.jctc.1c00471
   
   for ddCOSMO and CPCM-X implicit solvation:
   * M. Stahn, S. Ehlert, S. Grimme, J. Phys. Chem. A,
     2023, XX, XXXX-XXXX. DOI: 10.1021/acs.jpca.3c04382
   
   for DFT-D4:
   * E. Caldeweyher, C. Bannwarth and S. Grimme, J. Chem. Phys., 2017,
     147, 034112. DOI: 10.1063/1.4993215
   * E. Caldeweyher, S. Ehlert, A. Hansen, H. Neugebauer, S. Spicher,
     C. Bannwarth and S. Grimme, J. Chem. Phys., 2019, 150, 154122.
     DOI: 10.1063/1.5090222
   * E. Caldeweyher, J.-M. Mewes, S. Ehlert and S. Grimme, Phys. Chem. Chem. Phys.
     2020, 22, 8499-8512. DOI: 10.1039/D0CP00502A
   
   for sTDA-xTB:
   * S. Grimme and C. Bannwarth, J. Chem. Phys., 2016, 145, 054103.
     DOI: 10.1063/1.4959605
   
   in the mass-spec context:
   * V. Asgeirsson, C. Bauer and S. Grimme, Chem. Sci., 2017, 8, 4879.
     DOI: 10.1039/c7sc00601b
   * J. Koopman and S. Grimme, ACS Omega 2019, 4, 12, 15120-15133.
     DOI: 10.1021/acsomega.9b02011
   
   for metadynamics refer to:
   * S. Grimme, J. Chem. Theory Comput., 2019, 155, 2847-2862
     DOI: 10.1021/acs.jctc.9b00143
   
   for SPH calculations refer to:
   * S. Spicher and S. Grimme, J. Chem. Theory Comput., 2021, 17, 1701-1714
     DOI: 10.1021/acs.jctc.0c01306
   
   for ONIOM refer to:
   * C. Plett, A. Katbashev, S. Ehlert, S. Grimme, M. Bursch,
     Phys. Chem. Chem. Phys., 2023, 25, 17860-17868. DOI: 10.1039/D3CP02178E
   
   for DIPRO refer to:
   * J. Kohn, N. Gildemeister, S. Grimme, D. Fazzi, A. Hansen,
     J. Chem. Phys., 2023, just accepted.
   
   for PTB refer to:
   * S. Grimme, M. Mueller, A. Hansen, J. Chem. Phys., 2023, 158, 124111.
     DOI: 10.1063/5.0137838
   
   with help from (in alphabetical order)
   P. Atkinson, C. Bannwarth, F. Bohle, G. Brandenburg, E. Caldeweyher
   M. Checinski, S. Dohm, S. Ehlert, S. Ehrlich, I. Gerasimov, C. Hölzer
   A. Katbashev, J. Kohn, J. Koopman, C. Lavigne, S. Lehtola, F. März, M. Müller,
   F. Musil, H. Neugebauer, J. Pisarek, C. Plett, P. Pracht, F. Pultar,
   J. Seibert, P. Shushkov, S. Spicher, M. Stahn, M. Steiner, T. Strunk,
   J. Stückrath, T. Rose, and J. Unsleber
   
 * started run on 2025/12/08 at 00:34:39.727     
   ID    Z sym.   atoms
    1    6 C      1-50
    2    1 H      51-66
    3   16 S      67-70

           -------------------------------------------------
          |                Calculation Setup                |
           -------------------------------------------------

          program call               : xtb "C:\Users\LENOVO GAMING\Documents\GitHub\molecular-conductivity-sim\dataset\1nm-4Sdoped-5percent.xyz" --opt --parallel 4
          coordinate file            : C:\Users\LENOVO GAMING\Documents\GitHub\molecular-conductivity-sim\dataset\1nm-4Sdoped-5percent.xyz
          omp threads                :                     4


           -------------------------------------------------
          |                 G F N 2 - x T B                 |
           -------------------------------------------------

        Reference                      10.1021/acs.jctc.8b01176
      * Hamiltonian:
        H0-scaling (s, p, d)           1.850000    2.230000    2.230000
        zeta-weighting                 0.500000
      * Dispersion:
        s8                             2.700000
        a1                             0.520000
        a2                             5.000000
        s9                             5.000000
      * Repulsion:
        kExp                           1.500000    1.000000
        rExp                           1.000000
      * Coulomb:
        alpha                          2.000000
        third order                    shell-resolved
        anisotropic                    true
        a3                             3.000000
        a5                             4.000000
        cn-shift                       1.200000
        cn-exp                         4.000000
        max-rad                        5.000000


          ...................................................
          :                      SETUP                      :
          :.................................................:
          :  # basis functions                 256          :
          :  # atomic orbitals                 252          :
          :  # shells                          128          :
          :  # electrons                       240          :
          :  max. iterations                   250          :
          :  Hamiltonian                  GFN2-xTB          :
          :  restarted?                      false          :
          :  GBSA solvation                  false          :
          :  PC potential                    false          :
          :  electronic temp.          300.0000000     K    :
          :  accuracy                    1.0000000          :
          :  -> integral cutoff          0.2500000E+02      :
          :  -> integral neglect         0.1000000E-07      :
          :  -> SCF convergence          0.1000000E-05 Eh   :
          :  -> wf. convergence          0.1000000E-03 e    :
          :  Broyden damping             0.4000000          :
          :  net charge                          0          :
          :  unpaired electrons                  0          :
          ...................................................

 iter      E             dE          RMSdq      gap      omega  full diag
   1   -130.5454358 -0.130545E+03  0.516E+00    0.90       0.0  T
   2   -130.5772999 -0.318640E-01  0.311E+00    0.82       1.0  T
   3   -130.3717853  0.205515E+00  0.179E+00    0.96       1.0  T
   4   -130.6091261 -0.237341E+00  0.407E-01    0.83       1.0  T
   5   -130.6087890  0.337055E-03  0.263E-01    0.85       1.0  T
   6   -130.6121490 -0.335995E-02  0.141E-01    0.84       1.0  T
   7   -130.6134061 -0.125706E-02  0.627E-02    0.84       1.0  T
   8   -130.6136730 -0.266990E-03  0.210E-02    0.84       1.0  T
   9   -130.6136928 -0.197959E-04  0.100E-02    0.84       1.2  T
  10   -130.6136935 -0.639261E-06  0.490E-03    0.84       2.4  T
  11   -130.6136945 -0.993452E-06  0.190E-03    0.84       6.3  T
  12   -130.6136946 -0.789156E-07  0.103E-03    0.84      11.6  T
  13   -130.6136946 -0.192573E-07  0.499E-04    0.84      24.0  T
  14   -130.6136946 -0.654953E-08  0.229E-04    0.84      52.2  T

   *** convergence criteria satisfied after 14 iterations ***

         #    Occupation            Energy/Eh            Energy/eV
      -------------------------------------------------------------
         1        2.0000           -0.7302993             -19.8725
       ...           ...                  ...                  ...
       114        2.0000           -0.3974737             -10.8158
       115        2.0000           -0.3934031             -10.7050
       116        2.0000           -0.3842119             -10.4549
       117        2.0000           -0.3711521             -10.0996
       118        2.0000           -0.3632268              -9.8839
       119        2.0000           -0.3553872              -9.6706
       120        2.0000           -0.3294469              -8.9647 (HOMO)
       121        0.0000           -0.2986216              -8.1259 (LUMO)
       122                         -0.2798107              -7.6140
       123                         -0.2726887              -7.4202
       124                         -0.2689357              -7.3181
       125                         -0.2590631              -7.0495
       ...                                ...                  ...
       252                          0.7226118              19.6633
      -------------------------------------------------------------
                  HL-Gap            0.0308254 Eh            0.8388 eV
             Fermi-level           -0.3140342 Eh           -8.5453 eV

 SCC (total)                   0 d,  0 h,  0 min,  0.314 sec
 SCC setup                      ...        0 min,  0.001 sec (  0.318%)
 Dispersion                     ...        0 min,  0.002 sec (  0.637%)
 classical contributions        ...        0 min,  0.000 sec (  0.000%)
 integral evaluation            ...        0 min,  0.017 sec (  5.414%)
 iterations                     ...        0 min,  0.240 sec ( 76.433%)
 molecular gradient             ...        0 min,  0.052 sec ( 16.561%)
 printout                       ...        0 min,  0.002 sec (  0.637%)

         :::::::::::::::::::::::::::::::::::::::::::::::::::::
         ::                     SUMMARY                     ::
         :::::::::::::::::::::::::::::::::::::::::::::::::::::
         :: total energy            -128.458191697522 Eh    ::
         :: gradient norm              0.038624446640 Eh/a0 ::
         :: HOMO-LUMO gap              0.838800922909 eV    ::
         ::.................................................::
         :: SCC energy              -130.615856508733 Eh    ::
         :: -> isotropic ES            0.003206236388 Eh    ::
         :: -> anisotropic ES          0.005551864889 Eh    ::
         :: -> anisotropic XC          0.053585799029 Eh    ::
         :: -> dispersion             -0.141716909429 Eh    ::
         :: repulsion energy           2.157664811211 Eh    ::
         :: add. restraining           0.000000000000 Eh    ::
         :: total charge              -0.000000000000 e     ::
         :::::::::::::::::::::::::::::::::::::::::::::::::::::

      ----------------------------------------------------------- 
     |                   =====================                   |
     |                        A N C O P T                        |
     |                   =====================                   |
     |               Approximate Normal Coordinate               |
     |                Rational Function Optimizer                |
      ----------------------------------------------------------- 
      ----------------------------------------------------------- 
     |                   =====================                   |
     |                        A N C O P T                        |
     |                   =====================                   |
     |               Approximate Normal Coordinate               |
     |                Rational Function Optimizer                |
      ----------------------------------------------------------- 

          ...................................................
          :                      SETUP                      :
          :.................................................:
          :   optimization level            normal          :
          :   max. optcycles                   210          :
          :   ANC micro-cycles                  20          :
          :   degrees of freedom               204          :
          :.................................................:
          :   RF solver                   davidson          :
          :   write xtbopt.log                true          :
          :   linear?                        false          :
          :   energy convergence         0.5000000E-05 Eh   :
          :   grad. convergence          0.1000000E-02 Eh/α :
          :   maxmium RF displ.          1.0000000          :
          :   Hlow (freq-cutoff)         0.1000000E-01      :
          :   Hmax (freq-cutoff)         5.0000000          :
          :   S6 in model hess.         20.0000000          :
          ...................................................

generating ANC from exact Hessian ...
Using Lindh-Hessian (1995)
 Shifting diagonal of input Hessian by   9.669297118326106E-003
 Lowest  eigenvalues of input Hessian
    0.000000    0.000000    0.000000    0.000000    0.000000    0.000000
    0.010000    0.010301    0.010646    0.010990    0.011251    0.012864
    0.013586    0.014801    0.014993    0.015499    0.015915    0.016907
 Highest eigenvalues
    1.998761    2.010197    2.039921    2.053935    2.086900    2.094279
 

........................................................................
.............................. CYCLE    1 ..............................
........................................................................

 iter      E             dE          RMSdq      gap      omega  full diag
   1   -130.6136946 -0.130614E+03  0.862E-05    0.84       0.0  T
   2   -130.6136946  0.171099E-09  0.803E-05    0.84     148.8  T
   3   -130.6136946 -0.481435E-09  0.394E-05    0.84     303.7  T
     SCC iter.                  ...        0 min,  0.047 sec
     gradient                   ...        0 min,  0.050 sec
 * total energy  :  -128.4581917 Eh     change       -0.1762771E-08 Eh
   gradient norm :     0.0386251 Eh/α   predicted     0.0000000E+00 (-100.00%)
   displ. norm   :     0.3989823 α      lambda       -0.1106728E-01
   maximum displ.:     0.3054349 α      in ANC's #34, #33, #35, ...

........................................................................
.............................. CYCLE    2 ..............................
........................................................................

 iter      E             dE          RMSdq      gap      omega  full diag
   1   -130.7113357 -0.130711E+03  0.142E-01    0.83       0.0  T
   2   -130.7113398 -0.403582E-05  0.871E-02    0.83       1.0  T
   3   -130.7111120  0.227813E-03  0.588E-02    0.84       1.0  T
   4   -130.7113586 -0.246589E-03  0.134E-02    0.83       1.0  T
   5   -130.7113665 -0.796358E-05  0.858E-03    0.83       1.4  T
   6   -130.7113708 -0.431417E-05  0.357E-03    0.83       3.3  T
   7   -130.7113717 -0.849352E-06  0.908E-04    0.83      13.2  T
   8   -130.7113717 -0.201597E-07  0.543E-04    0.83      22.0  T
     SCC iter.                  ...        0 min,  0.132 sec
     gradient                   ...        0 min,  0.053 sec
 * total energy  :  -128.4659951 Eh     change       -0.7803404E-02 Eh
   gradient norm :     0.0173262 Eh/α   predicted    -0.6414567E-02 ( -17.80%)
   displ. norm   :     0.2944379 α      lambda       -0.3274506E-02
   maximum displ.:     0.2314189 α      in ANC's #34, #33, #15, ...

........................................................................
.............................. CYCLE    3 ..............................
........................................................................

 iter      E             dE          RMSdq      gap      omega  full diag
   1   -130.7706382 -0.130771E+03  0.999E-02    0.83       0.0  T
   2   -130.7706423 -0.407858E-05  0.604E-02    0.82       1.0  T
   3   -130.7705340  0.108335E-03  0.427E-02    0.83       1.0  T
   4   -130.7706497 -0.115676E-03  0.125E-02    0.82       1.0  T
   5   -130.7706583 -0.865641E-05  0.750E-03    0.83       1.6  T
   6   -130.7706619 -0.353008E-05  0.252E-03    0.83       4.7  T
   7   -130.7706622 -0.353721E-06  0.842E-04    0.83      14.2  T
   8   -130.7706622 -0.283714E-07  0.396E-04    0.83      30.2  T
     SCC iter.                  ...        0 min,  0.136 sec
     gradient                   ...        0 min,  0.055 sec
 * total energy  :  -128.4677866 Eh     change       -0.1791534E-02 Eh
   gradient norm :     0.0063728 Eh/α   predicted    -0.1779432E-02 (  -0.68%)
   displ. norm   :     0.0549044 α      lambda       -0.1003912E-03
   maximum displ.:     0.0263187 α      in ANC's #34, #6, #15, ...

........................................................................
.............................. CYCLE    4 ..............................
........................................................................

 iter      E             dE          RMSdq      gap      omega  full diag
   1   -130.7744242 -0.130774E+03  0.203E-02    0.82       0.0  T
   2   -130.7744248 -0.577133E-06  0.121E-02    0.82       1.0  T
   3   -130.7744196  0.523231E-05  0.996E-03    0.82       1.2  T
   4   -130.7744249 -0.536715E-05  0.455E-03    0.82       2.6  T
   5   -130.7744263 -0.138381E-05  0.207E-03    0.82       5.8  T
   6   -130.7744266 -0.256158E-06  0.481E-04    0.82      24.9  T
   7   -130.7744266 -0.408031E-08  0.291E-04    0.82      41.0  T
     SCC iter.                  ...        0 min,  0.120 sec
     gradient                   ...        0 min,  0.054 sec
 * total energy  :  -128.4678557 Eh     change       -0.6909788E-04 Eh
   gradient norm :     0.0032204 Eh/α   predicted    -0.5044141E-04 ( -27.00%)
   displ. norm   :     0.0611856 α      lambda       -0.5129069E-04
   maximum displ.:     0.0319187 α      in ANC's #6, #1, #21, ...

........................................................................
.............................. CYCLE    5 ..............................
........................................................................

 iter      E             dE          RMSdq      gap      omega  full diag
   1   -130.7742260 -0.130774E+03  0.206E-02    0.82       0.0  T
   2   -130.7742261 -0.103870E-06  0.127E-02    0.82       1.0  T
   3   -130.7742187  0.742661E-05  0.113E-02    0.82       1.1  T
   4   -130.7742264 -0.765148E-05  0.459E-03    0.82       2.6  T
   5   -130.7742279 -0.157523E-05  0.171E-03    0.82       7.0  T
   6   -130.7742281 -0.162142E-06  0.397E-04    0.82      30.1  T
   7   -130.7742281 -0.310692E-08  0.251E-04    0.82      47.7  T
     SCC iter.                  ...        0 min,  0.118 sec
     gradient                   ...        0 min,  0.054 sec
 * total energy  :  -128.4678901 Eh     change       -0.3439282E-04 Eh
   gradient norm :     0.0011716 Eh/α   predicted    -0.2575432E-04 ( -25.12%)
   displ. norm   :     0.0932486 α      lambda       -0.2435117E-04
   maximum displ.:     0.0530548 α      in ANC's #6, #1, #5, ...

........................................................................
.............................. CYCLE    6 ..............................
........................................................................

 iter      E             dE          RMSdq      gap      omega  full diag
   1   -130.7723612 -0.130772E+03  0.271E-02    0.82       0.0  T
   2   -130.7723608  0.401275E-06  0.162E-02    0.82       1.0  T
   3   -130.7723413  0.195486E-04  0.159E-02    0.82       1.0  T
   4   -130.7723616 -0.202947E-04  0.377E-03    0.82       3.2  T
   5   -130.7723626 -0.103699E-05  0.144E-03    0.82       8.3  T
   6   -130.7723627 -0.963826E-07  0.383E-04    0.82      31.2  T
   7   -130.7723627 -0.228607E-08  0.237E-04    0.82      50.4  T
     SCC iter.                  ...        0 min,  0.114 sec
     gradient                   ...        0 min,  0.042 sec
 * total energy  :  -128.4679120 Eh     change       -0.2187842E-04 Eh
   gradient norm :     0.0024528 Eh/α   predicted    -0.1222331E-04 ( -44.13%)
   displ. norm   :     0.0481728 α      lambda       -0.1448787E-04
   maximum displ.:     0.0271132 α      in ANC's #6, #1, #5, ...

........................................................................
.............................. CYCLE    7 ..............................
........................................................................

 iter      E             dE          RMSdq      gap      omega  full diag
   1   -130.7720373 -0.130772E+03  0.126E-02    0.82       0.0  T
   2   -130.7720373  0.397708E-08  0.736E-03    0.82       1.6  T
   3   -130.7720349  0.231871E-05  0.562E-03    0.82       2.1  T
   4   -130.7720373 -0.235215E-05  0.122E-03    0.82       9.8  T
   5   -130.7720374 -0.951153E-07  0.619E-04    0.82      19.3  T
   6   -130.7720374 -0.227826E-07  0.155E-04    0.82      77.1  T
     SCC iter.                  ...        0 min,  0.093 sec
     gradient                   ...        0 min,  0.053 sec
 * total energy  :  -128.4679245 Eh     change       -0.1249605E-04 Eh
   gradient norm :     0.0019668 Eh/α   predicted    -0.7267190E-05 ( -41.84%)
   displ. norm   :     0.1818663 α      lambda       -0.3018781E-04
   maximum displ.:     0.0982714 α      in ANC's #6, #1, #5, ...

........................................................................
.............................. CYCLE    8 ..............................
........................................................................

 iter      E             dE          RMSdq      gap      omega  full diag
   1   -130.7717714 -0.130772E+03  0.457E-02    0.82       0.0  T
   2   -130.7717718 -0.407143E-06  0.268E-02    0.82       1.0  T
   3   -130.7717483  0.234796E-04  0.188E-02    0.82       1.0  T
   4   -130.7717718 -0.234086E-04  0.495E-03    0.82       2.4  T
   5   -130.7717733 -0.155799E-05  0.262E-03    0.82       4.6  T
   6   -130.7717738 -0.447528E-06  0.591E-04    0.82      20.2  T
   7   -130.7717738 -0.624090E-08  0.388E-04    0.82      30.8  T
     SCC iter.                  ...        0 min,  0.116 sec
     gradient                   ...        0 min,  0.045 sec
 * total energy  :  -128.4679479 Eh     change       -0.2339980E-04 Eh
   gradient norm :     0.0014957 Eh/α   predicted    -0.1531634E-04 ( -34.54%)
   displ. norm   :     0.0478956 α      lambda       -0.7984035E-05
   maximum displ.:     0.0293704 α      in ANC's #1, #5, #6, ...

........................................................................
.............................. CYCLE    9 ..............................
........................................................................

 iter      E             dE          RMSdq      gap      omega  full diag
   1   -130.7726297 -0.130773E+03  0.109E-02    0.82       0.0  T
   2   -130.7726298 -0.358266E-07  0.628E-03    0.82       1.9  T
   3   -130.7726296  0.167935E-06  0.150E-03    0.82       8.0  T
   4   -130.7726298 -0.179190E-06  0.563E-04    0.82      21.2  T
   5   -130.7726298 -0.312534E-08  0.334E-04    0.82      35.7  T
     SCC iter.                  ...        0 min,  0.080 sec
     gradient                   ...        0 min,  0.050 sec
 * total energy  :  -128.4679585 Eh     change       -0.1062193E-04 Eh
   gradient norm :     0.0010464 Eh/α   predicted    -0.3996301E-05 ( -62.38%)
   displ. norm   :     0.1288576 α      lambda       -0.2102329E-04
   maximum displ.:     0.0779700 α      in ANC's #1, #5, #6, ...

........................................................................
.............................. CYCLE   10 ..............................
........................................................................

 iter      E             dE          RMSdq      gap      omega  full diag
   1   -130.7733598 -0.130773E+03  0.299E-02    0.82       0.0  T
   2   -130.7733601 -0.214758E-06  0.172E-02    0.82       1.0  T
   3   -130.7733562  0.386437E-05  0.683E-03    0.82       1.8  T
   4   -130.7733600 -0.378729E-05  0.243E-03    0.82       4.9  T
   5   -130.7733602 -0.220592E-06  0.153E-03    0.82       7.8  T
   6   -130.7733604 -0.163038E-06  0.275E-04    0.82      43.4  T
   7   -130.7733604 -0.298289E-08  0.138E-04    0.82      86.5  T
     SCC iter.                  ...        0 min,  0.116 sec
     gradient                   ...        0 min,  0.050 sec
 * total energy  :  -128.4679806 Eh     change       -0.2205481E-04 Eh
   gradient norm :     0.0010409 Eh/α   predicted    -0.1058961E-04 ( -51.99%)
   displ. norm   :     0.1349676 α      lambda       -0.1131988E-04
   maximum displ.:     0.0847061 α      in ANC's #1, #5, #6, ...

........................................................................
.............................. CYCLE   11 ..............................
........................................................................

 iter      E             dE          RMSdq      gap      omega  full diag
   1   -130.7734698 -0.130773E+03  0.298E-02    0.82       0.0  T
   2   -130.7734701 -0.220260E-06  0.172E-02    0.82       1.0  T
   3   -130.7734674  0.266729E-05  0.672E-03    0.82       1.8  T
   4   -130.7734701 -0.269481E-05  0.193E-03    0.82       6.2  T
   5   -130.7734700  0.585902E-07  0.181E-03    0.82       6.6  T
   6   -130.7734703 -0.277472E-06  0.245E-04    0.82      48.7  T
   7   -130.7734703 -0.212953E-08  0.151E-04    0.82      79.3  T
     SCC iter.                  ...        0 min,  0.121 sec
     gradient                   ...        0 min,  0.046 sec
 * total energy  :  -128.4679923 Eh     change       -0.1170984E-04 Eh
   gradient norm :     0.0011500 Eh/α   predicted    -0.5707478E-05 ( -51.26%)
   displ. norm   :     0.0864559 α      lambda       -0.6600341E-05
   maximum displ.:     0.0580167 α      in ANC's #1, #5, #2, ...

........................................................................
.............................. CYCLE   12 ..............................
........................................................................

 iter      E             dE          RMSdq      gap      omega  full diag
   1   -130.7734590 -0.130773E+03  0.174E-02    0.82       0.0  T
   2   -130.7734591 -0.831940E-07  0.987E-03    0.82       1.2  T
   3   -130.7734577  0.135170E-05  0.453E-03    0.82       2.6  T
   4   -130.7734591 -0.132586E-05  0.142E-03    0.82       8.4  T
   5   -130.7734591 -0.400862E-07  0.105E-03    0.82      11.4  T
   6   -130.7734592 -0.853072E-07  0.149E-04    0.82      80.2  T
   7   -130.7734592 -0.865157E-09  0.812E-05    0.82     147.2  T
     SCC iter.                  ...        0 min,  0.109 sec
     gradient                   ...        0 min,  0.052 sec
 * total energy  :  -128.4679998 Eh     change       -0.7463607E-05 Eh
   gradient norm :     0.0006992 Eh/α   predicted    -0.3313645E-05 ( -55.60%)
   displ. norm   :     0.0599171 α      lambda       -0.5469949E-05
   maximum displ.:     0.0435066 α      in ANC's #1, #2, #5, ...

........................................................................
.............................. CYCLE   13 ..............................
........................................................................

 iter      E             dE          RMSdq      gap      omega  full diag
   1   -130.7731061 -0.130773E+03  0.114E-02    0.82       0.0  T
   2   -130.7731061 -0.462312E-07  0.642E-03    0.82       1.9  T
   3   -130.7731059  0.230742E-06  0.184E-03    0.82       6.5  T
   4   -130.7731061 -0.213362E-06  0.874E-04    0.82      13.7  T
   5   -130.7731061 -0.537185E-08  0.712E-04    0.82      16.8  T
     SCC iter.                  ...        0 min,  0.084 sec
     gradient                   ...        0 min,  0.051 sec
 * total energy  :  -128.4680065 Eh     change       -0.6742904E-05 Eh
   gradient norm :     0.0004185 Eh/α   predicted    -0.2741019E-05 ( -59.35%)
   displ. norm   :     0.0626500 α      lambda       -0.5595194E-05
   maximum displ.:     0.0455658 α      in ANC's #1, #2, #8, ...

........................................................................
.............................. CYCLE   14 ..............................
........................................................................

 iter      E             dE          RMSdq      gap      omega  full diag
   1   -130.7728289 -0.130773E+03  0.116E-02    0.82       0.0  T
   2   -130.7728289 -0.115130E-07  0.656E-03    0.82       1.8  T
   3   -130.7728272  0.171752E-05  0.461E-03    0.82       2.6  T
   4   -130.7728289 -0.177392E-05  0.992E-04    0.82      12.0  T
   5   -130.7728289 -0.214931E-07  0.684E-04    0.82      17.5  T
   6   -130.7728290 -0.319444E-07  0.127E-04    0.82      93.9  T
     SCC iter.                  ...        0 min,  0.094 sec
     gradient                   ...        0 min,  0.044 sec
 * total energy  :  -128.4680135 Eh     change       -0.7022115E-05 Eh
   gradient norm :     0.0007157 Eh/α   predicted    -0.2804019E-05 ( -60.07%)
   displ. norm   :     0.0692241 α      lambda       -0.5363487E-05
   maximum displ.:     0.0496460 α      in ANC's #1, #2, #8, ...

........................................................................
.............................. CYCLE   15 ..............................
........................................................................

 iter      E             dE          RMSdq      gap      omega  full diag
   1   -130.7726805 -0.130773E+03  0.132E-02    0.82       0.0  T
   2   -130.7726806 -0.602113E-07  0.739E-03    0.82       1.6  T
   3   -130.7726801  0.495445E-06  0.263E-03    0.82       4.5  T
   4   -130.7726806 -0.479838E-06  0.105E-03    0.82      11.4  T
   5   -130.7726806 -0.114573E-07  0.813E-04    0.82      14.7  T
   6   -130.7726806 -0.524909E-07  0.131E-04    0.82      91.5  T
     SCC iter.                  ...        0 min,  0.097 sec
     gradient                   ...        0 min,  0.053 sec
 * total energy  :  -128.4680201 Eh     change       -0.6621375E-05 Eh
   gradient norm :     0.0007580 Eh/α   predicted    -0.2688530E-05 ( -59.40%)
   displ. norm   :     0.0674497 α      lambda       -0.4645072E-05
   maximum displ.:     0.0492073 α      in ANC's #1, #2, #6, ...

........................................................................
.............................. CYCLE   16 ..............................
........................................................................

 iter      E             dE          RMSdq      gap      omega  full diag
   1   -130.7727328 -0.130773E+03  0.125E-02    0.82       0.0  T
   2   -130.7727329 -0.446781E-07  0.703E-03    0.82       1.7  T
   3   -130.7727323  0.581480E-06  0.276E-03    0.82       4.3  T
   4   -130.7727329 -0.572500E-06  0.987E-04    0.82      12.1  T
   5   -130.7727329 -0.207787E-07  0.648E-04    0.82      18.4  T
     SCC iter.                  ...        0 min,  0.082 sec
     gradient                   ...        0 min,  0.049 sec
 * total energy  :  -128.4680260 Eh     change       -0.5818419E-05 Eh
   gradient norm :     0.0005427 Eh/α   predicted    -0.2330426E-05 ( -59.95%)
   displ. norm   :     0.0597579 α      lambda       -0.4121830E-05
   maximum displ.:     0.0448201 α      in ANC's #1, #2, #3, ...

........................................................................
.............................. CYCLE   17 ..............................
........................................................................

 iter      E             dE          RMSdq      gap      omega  full diag
   1   -130.7728775 -0.130773E+03  0.104E-02    0.82       0.0  T
   2   -130.7728775 -0.242211E-07  0.591E-03    0.82       2.0  T
   3   -130.7728770  0.496950E-06  0.250E-03    0.82       4.8  T
   4   -130.7728775 -0.500108E-06  0.792E-04    0.82      15.1  T
   5   -130.7728776 -0.650772E-08  0.578E-04    0.82      20.7  T
     SCC iter.                  ...        0 min,  0.079 sec
     gradient                   ...        0 min,  0.055 sec
 * total energy  :  -128.4680315 Eh     change       -0.5532277E-05 Eh
   gradient norm :     0.0002844 Eh/α   predicted    -0.2065462E-05 ( -62.67%)
   displ. norm   :     0.0651343 α      lambda       -0.4750368E-05
   maximum displ.:     0.0478619 α      in ANC's #1, #3, #2, ...

........................................................................
.............................. CYCLE   18 ..............................
........................................................................

 iter      E             dE          RMSdq      gap      omega  full diag
   1   -130.7730515 -0.130773E+03  0.110E-02    0.82       0.0  T
   2   -130.7730515 -0.334084E-07  0.627E-03    0.82       1.9  T
   3   -130.7730514  0.117992E-06  0.138E-03    0.82       8.7  T
   4   -130.7730515 -0.124731E-06  0.587E-04    0.82      20.4  T
   5   -130.7730515 -0.816806E-08  0.265E-04    0.82      45.1  T
     SCC iter.                  ...        0 min,  0.083 sec
     gradient                   ...        0 min,  0.042 sec
 * total energy  :  -128.4680381 Eh     change       -0.6653823E-05 Eh
   gradient norm :     0.0004055 Eh/α   predicted    -0.2380622E-05 ( -64.22%)
   displ. norm   :     0.0792857 α      lambda       -0.5997037E-05
   maximum displ.:     0.0575676 α      in ANC's #1, #3, #2, ...

........................................................................
.............................. CYCLE   19 ..............................
........................................................................

 iter      E             dE          RMSdq      gap      omega  full diag
   1   -130.7731862 -0.130773E+03  0.134E-02    0.82       0.0  T
   2   -130.7731862 -0.355984E-07  0.768E-03    0.82       1.6  T
   3   -130.7731858  0.471740E-06  0.254E-03    0.82       4.7  T
   4   -130.7731862 -0.469805E-06  0.860E-04    0.82      13.9  T
   5   -130.7731862 -0.539336E-08  0.605E-04    0.82      19.7  T
     SCC iter.                  ...        0 min,  0.082 sec
     gradient                   ...        0 min,  0.048 sec
 * total energy  :  -128.4680465 Eh     change       -0.8396689E-05 Eh
   gradient norm :     0.0006411 Eh/α   predicted    -0.3010000E-05 ( -64.15%)
   displ. norm   :     0.1019264 α      lambda       -0.7632429E-05
   maximum displ.:     0.0734946 α      in ANC's #1, #3, #2, ...

........................................................................
.............................. CYCLE   20 ..............................
........................................................................

 iter      E             dE          RMSdq      gap      omega  full diag
   1   -130.7732239 -0.130773E+03  0.171E-02    0.82       0.0  T
   2   -130.7732240 -0.569038E-07  0.982E-03    0.82       1.2  T
   3   -130.7732234  0.569099E-06  0.285E-03    0.82       4.2  T
   4   -130.7732239 -0.554149E-06  0.106E-03    0.82      11.3  T
   5   -130.7732240 -0.230148E-07  0.626E-04    0.82      19.1  T
   6   -130.7732240 -0.376644E-07  0.101E-04    0.82     118.1  T
     SCC iter.                  ...        0 min,  0.098 sec
     gradient                   ...        0 min,  0.053 sec
 * total energy  :  -128.4680573 Eh     change       -0.1079541E-04 Eh
   gradient norm :     0.0007187 Eh/α   predicted    -0.3836673E-05 ( -64.46%)
   displ. norm   :     0.1344565 α      lambda       -0.9656948E-05
   maximum displ.:     0.0969685 α      in ANC's #1, #3, #2, ...
 * RMSD in coord.:     0.1708908 α      energy gain  -0.9865638E-02 Eh

generating ANC from exact Hessian ...
Using Lindh-Hessian (1995)
 Shifting diagonal of input Hessian by   9.635007827787779E-003
 Lowest  eigenvalues of input Hessian
    0.000000    0.000000    0.000000    0.000000    0.000000    0.000000
    0.010000    0.010327    0.010707    0.011075    0.011357    0.013045
    0.013973    0.015286    0.015478    0.016126    0.016456    0.017654
 Highest eigenvalues
    2.083738    2.086854    2.119848    2.137162    2.172947    2.185358
 

........................................................................
.............................. CYCLE   21 ..............................
........................................................................

 iter      E             dE          RMSdq      gap      omega  full diag
   1   -130.7731708 -0.130773E+03  0.224E-02    0.82       0.0  T
   2   -130.7731709 -0.106601E-06  0.128E-02    0.82       1.0  T
   3   -130.7731703  0.674685E-06  0.329E-03    0.82       3.6  T
   4   -130.7731709 -0.629122E-06  0.142E-03    0.82       8.4  T
   5   -130.7731709 -0.461908E-07  0.849E-04    0.82      14.1  T
   6   -130.7731710 -0.673506E-07  0.138E-04    0.82      86.5  T
     SCC iter.                  ...        0 min,  0.102 sec
     gradient                   ...        0 min,  0.052 sec
 * total energy  :  -128.4680709 Eh     change       -0.1354398E-04 Eh
   gradient norm :     0.0006270 Eh/α   predicted     0.0000000E+00 (-100.00%)
   displ. norm   :     0.0193600 α      lambda       -0.1957525E-05
   maximum displ.:     0.0154040 α      in ANC's #1, #3, #6, ...

........................................................................
.............................. CYCLE   22 ..............................
........................................................................

 iter      E             dE          RMSdq      gap      omega  full diag
   1   -130.7730385 -0.130773E+03  0.395E-03    0.82       0.0  T
   2   -130.7730385 -0.524551E-08  0.227E-03    0.82       5.3  T
   3   -130.7730385  0.869849E-07  0.111E-03    0.82      10.8  T
   4   -130.7730385 -0.921654E-07  0.301E-04    0.82      39.7  T
   5   -130.7730385  0.182212E-09  0.268E-04    0.82      44.5  T
     SCC iter.                  ...        0 min,  0.083 sec
     gradient                   ...        0 min,  0.053 sec
 * total energy  :  -128.4680739 Eh     change       -0.3065437E-05 Eh
   gradient norm :     0.0002551 Eh/α   predicted    -0.1164366E-05 ( -62.02%)
   displ. norm   :     0.0429658 α      lambda       -0.3969981E-05
   maximum displ.:     0.0317764 α      in ANC's #1, #3, #7, ...

   *** GEOMETRY OPTIMIZATION CONVERGED AFTER 22 ITERATIONS ***

------------------------------------------------------------------------
 total energy gain   :        -0.0098822 Eh       -6.2012 kcal/mol
 total RMSD          :         0.1721543 a0        0.0911 Å
 total power (kW/mol):        -1.1793562 (step)   -6.7885 (real)
------------------------------------------------------------------------

 ANCopt (total)                0 d,  0 h,  0 min,  3.822 sec
 optimizer setup                ...        0 min,  0.000 sec (  0.000%)
 model hessian                  ...        0 min,  0.081 sec (  2.119%)
 ANC generation                 ...        0 min,  0.016 sec (  0.419%)
 coordinate transformation      ...        0 min,  0.001 sec (  0.026%)
 single point calculation       ...        0 min,  3.695 sec ( 96.677%)
 optimization log               ...        0 min,  0.019 sec (  0.497%)
 hessian update                 ...        0 min,  0.000 sec (  0.000%)
 rational function              ...        0 min,  0.002 sec (  0.052%)

================
 final structure:
================
70
 xtb: 6.7.1pre (5071a88)
C            5.98868380934283       -3.23231107547162       -0.18461268114176
C            1.00167487507740       -4.76741036144613       -0.03015968192308
C            5.57282965269786       -4.49945722868924       -0.13400929612789
C            3.04900068247731       -3.41917228327723       -0.05169160395644
C            5.12311160993756       -2.08662839934146       -0.15576532944242
C           -4.50087540935168       -5.34248124701828        0.37061624025147
C           -0.34321908926304       -4.86153725390815        0.02641021007079
C           -1.04001646333063        4.88590665660006        0.00024441550897
C           -2.57059190390606       -3.80527572140729        0.17647767306362
C           -4.77944012007865       -2.67803277653356       -0.00134343754622
C            3.36601161393607        2.80372357120466        0.09783538299306
C            1.13581297749677        3.84271264522077        0.14353828812203
C            1.65991842405222       -3.50944282674164       -0.01977943294486
C           -0.53728641327145       -2.43187583936797        0.03722493348337
C           -2.73652073543850       -1.35717018224338        0.00731509487709
C            5.32421764923869        4.27454816327934        0.26437360788233
C           -4.92708918928774       -0.27344832587052       -0.10597420355514
C            3.15528947539980        5.21397107705605        0.48215365340779
C            3.70744482317037       -2.17678132743072       -0.08478724853936
C           -5.14226387740815        2.14203095667982       -0.15501987244347
C            1.50803956642251       -1.06194948114809       -0.01307046354632
C           -0.69125752533448        0.01573526671315        0.00684529365040
C           -2.90340912441383        1.10205017067206       -0.06106485545410
C            5.70464226180081       -0.83690725272473       -0.20101685097530
C           -3.07705684618186        3.51929372267607       -0.07519352447842
C            3.55025290982847        0.30427502053793       -0.07204102617720
C           -5.60899614156657        4.55757030600392       -0.17940471343172
C            1.35588637377708        1.39548946171037        0.02868035867072
C           -0.87186817773132        2.45837064538073        0.00571209117653
C           -3.19001441081967       -5.08072395533618        0.41889075451935
C            4.94887176832611        0.32188234261227       -0.15721555087824
C            2.76010161721813        1.50367272949046        0.00296521355366
C            0.54333407237198        2.57078734106663        0.06101185640898
C           -1.67535901318989        3.62569794389328       -0.01935659100485
C           -1.16991132906768       -3.70603444429303        0.09356787294041
C           -3.36347833562265       -2.63510097067393        0.06087740625847
C            4.75884890606875        3.02990156603909        0.07538395171493
C           -5.53036247710455       -1.53702775297658       -0.08977480418629
C            2.55752485374574        3.96292984937380        0.24637852987762
C            0.30882045143938        4.98732074255420        0.08689006120482
C            0.87274625786690       -2.32766844321748        0.00014017483483
C           -1.32174568037116       -1.25548337390756        0.02389048083877
C           -3.51914538916887       -0.17659192328329       -0.05621673535951
C            4.51524313341594        5.37470387302551        0.49986953712671
C           -5.70644830363720        0.89382449823963       -0.16389699850154
C            2.92316844985540       -0.97851969210457       -0.05543603343524
C           -6.01319737541333        3.28650626075197       -0.19887628608677
C            0.71856006231692        0.11907196060205        0.00647639732297
C           -1.49436352746998        1.19237485253464       -0.01753976363009
C           -3.71399390015441        2.27935307605489       -0.09837974584125
H            7.04887378263868       -3.03110035674027       -0.24668044523656
H           -1.64137712015280        5.78007907823302       -0.05593314051373
H            6.39902625292527        4.36937876170289        0.23551269946021
H            2.53790881418777        6.07545964059305        0.66946618188458
H            6.77899560398302       -0.74682608658326       -0.26480429307039
H           -6.28843834867671        5.39365527609274       -0.20877147989752
H            0.74591487405397        5.97106296364612        0.08272769495820
H            4.95524274810878        6.34239469430180        0.68496396775191
H            1.59835592705778       -5.66418058184582       -0.09669530992171
H            6.24229309802104       -5.34368109867845       -0.15009350877445
H           -4.90492216487912       -6.32181878988416        0.56757352717141
H           -0.78906216040897       -5.84126531573659       -0.01792145148670
H           -2.55041512869356       -5.90243780495635        0.69912856801713
H           -6.60651822119030       -1.61038707659721       -0.14118152843789
H           -6.78123901106330        0.79307251776438       -0.20720593872208
H           -7.07344377270908        3.07949242290338       -0.24680052351398
S           -5.71579171763105       -4.17465145551726       -0.01094781180813
S           -3.95478000532953        5.05370674565437       -0.10244999783192
S            3.91396529141841       -4.96563995362267       -0.03867674497621
S            5.92390173964394        1.76525285771018       -0.23102121420398
 
 Bond Distances (Angstroems)
 ---------------------------
C1-C3=1.3346         C1-C5=1.4362         C1-H51=1.0809        C2-C7=1.3494         C2-C13=1.4198        C2-H59=1.0792        
C3-C1=1.3346         C3-H60=1.0776        C3-S69=1.7258        C4-C13=1.3924        C4-C19=1.4065        C4-S69=1.7720        
C5-C1=1.4362         C5-C19=1.4203        C5-C24=1.3791        C6-C30=1.3376        C6-H61=1.0776        C6-S67=1.7278        
C7-C2=1.3494         C7-C35=1.4224        C7-H62=1.0773        C8-C34=1.4114        C8-C40=1.3554        C8-H52=1.0790        
C9-C30=1.4385        C9-C35=1.4066        C9-C36=1.4182        C10-C36=1.4180       C10-C38=1.3688       C10-S67=1.7654       
C11-C32=1.4374       C11-C37=1.4113       C11-C39=1.4211       C12-C33=1.4056       C12-C39=1.4305       C12-C40=1.4132       
C13-C2=1.4198        C13-C4=1.3924        C13-C41=1.4201       C14-C35=1.4237       C14-C41=1.4144       C14-C42=1.4140       
C15-C36=1.4244       C15-C42=1.4185       C15-C43=1.4179       C16-C37=1.3800       C16-C44=1.3857       C16-H53=1.0794       
C17-C38=1.4003       C17-C43=1.4121       C17-C45=1.4047       C18-C39=1.4064       C18-C44=1.3695       C18-H54=1.0763       
C19-C4=1.4065        C19-C5=1.4203        C19-C46=1.4324       C20-C45=1.3698       C20-C47=1.4388       C20-C50=1.4360       
C21-C41=1.4163       C21-C46=1.4182       C21-C48=1.4207       C22-C42=1.4191       C22-C48=1.4136       C22-C49=1.4248       
C23-C43=1.4192       C23-C49=1.4126       C23-C50=1.4299       C24-C5=1.3791        C24-C31=1.3842       C24-H55=1.0800       
C25-C34=1.4068       C25-C50=1.3942       C25-S68=1.7679       C26-C31=1.4013       C26-C32=1.4382       C26-C46=1.4280       
C27-C47=1.3339       C27-H56=1.0777       C27-S68=1.7287       C28-C32=1.4086       C28-C33=1.4292       C28-C48=1.4269       
C29-C33=1.4207       C29-C34=1.4173       C29-C49=1.4110       C30-C6=1.3376        C30-C9=1.4385        C30-H63=1.0783       
C31-C24=1.3842       C31-C26=1.4013       C31-S70=1.7434       C32-C11=1.4374       C32-C26=1.4382       C32-C28=1.4086       
C33-C12=1.4056       C33-C28=1.4292       C33-C29=1.4207       C34-C8=1.4114        C34-C25=1.4068       C34-C29=1.4173       
C35-C7=1.4224        C35-C9=1.4066        C35-C14=1.4237       C36-C9=1.4182        C36-C10=1.4180       C36-C15=1.4244       
C37-C11=1.4113       C37-C16=1.3800       C37-S70=1.7466       C38-C10=1.3688       C38-C17=1.4003       C38-H64=1.0799       
C39-C11=1.4211       C39-C12=1.4305       C39-C18=1.4064       C40-C8=1.3554        C40-C12=1.4132       C40-H57=1.0765       
C41-C13=1.4201       C41-C14=1.4144       C41-C21=1.4163       C42-C14=1.4140       C42-C15=1.4185       C42-C22=1.4191       
C43-C15=1.4179       C43-C17=1.4121       C43-C23=1.4192       C44-C16=1.3857       C44-C18=1.3695       C44-H58=1.0790       
C45-C17=1.4047       C45-C20=1.3698       C45-H65=1.0804       C46-C19=1.4324       C46-C21=1.4182       C46-C26=1.4280       
C47-C20=1.4388       C47-C27=1.3339       C47-H66=1.0813       C48-C21=1.4207       C48-C22=1.4136       C48-C28=1.4269       
C49-C22=1.4248       C49-C23=1.4126       C49-C29=1.4110       C50-C20=1.4360       C50-C23=1.4299       C50-C25=1.3942       
H51-C1=1.0809        H52-C8=1.0790        H53-C16=1.0794       H54-C18=1.0763       H55-C24=1.0800       H56-C27=1.0777       
H57-C40=1.0765       H58-C44=1.0790       H59-C2=1.0792        H60-C3=1.0776        H61-C6=1.0776        H62-C7=1.0773        
H63-C30=1.0783       H64-C38=1.0799       H65-C45=1.0804       H66-C47=1.0813       S67-C6=1.7278        S67-C10=1.7654       
S68-C25=1.7679       S68-C27=1.7287       S69-C3=1.7258        S69-C4=1.7720        S70-C31=1.7434       S70-C37=1.7466       
 C  H  Rav=1.0788 sigma=0.0015  Rmin=1.0763  Rmax=1.0813    16
 C  C  Rav=1.4076 sigma=0.0255  Rmin=1.3339  Rmax=1.4388    63
 S  C  Rav=1.7472 sigma=0.0179  Rmin=1.7258  Rmax=1.7720     8
 
 selected bond angles (degree)
 --------------------
C5-C1-C3=124.67                H51-C1-C3=118.98               H51-C1-C5=116.35               C13-C2-C7=121.57               
H59-C2-C7=119.71               H59-C2-C13=118.71              H60-C3-C1=123.35               S69-C3-C1=123.92               
S69-C3-H60=112.73              C19-C4-C13=121.66              S69-C4-C13=115.48              S69-C4-C19=122.86              
C19-C5-C1=123.44               C24-C5-C1=117.91               C24-C5-C19=118.65              H61-C6-C30=122.60              
S67-C6-C30=124.39              S67-C6-H61=113.02              C35-C7-C2=121.64               H62-C7-C2=118.31               
H62-C7-C35=120.01              C40-C8-C34=121.04              H52-C8-C34=119.23              H52-C8-C40=119.73              
C35-C9-C30=120.08              C36-C9-C30=120.30              C36-C9-C35=119.58              C38-C10-C36=121.70             
S67-C10-C36=123.75             S67-C10-C38=114.54             
 
 selected dihedral angles (degree)
 ---------------------------------
H60-C3-C1-C5=180.45           H60-C3-C1-H51=  0.10          S69-C3-C1-C5=  0.55           S69-C3-C1-H51=180.20          
C19-C5-C1-C3=359.23           C19-C5-C1-H51=179.57          C24-C5-C1-C3=179.30           C24-C5-C1-H51=359.63          
C35-C7-C2-C13=  0.27          C35-C7-C2-H59=181.00          H62-C7-C2-C13=177.99          H62-C7-C2-H59=358.72          
           -------------------------------------------------
          |                Final Singlepoint                |
           -------------------------------------------------

          ...................................................
          :                      SETUP                      :
          :.................................................:
          :  # basis functions                 256          :
          :  # atomic orbitals                 252          :
          :  # shells                          128          :
          :  # electrons                       240          :
          :  max. iterations                   250          :
          :  Hamiltonian                  GFN2-xTB          :
          :  restarted?                      false          :
          :  GBSA solvation                  false          :
          :  PC potential                    false          :
          :  electronic temp.          300.0000000     K    :
          :  accuracy                    1.0000000          :
          :  -> integral cutoff          0.2500000E+02      :
          :  -> integral neglect         0.1000000E-07      :
          :  -> SCF convergence          0.1000000E-05 Eh   :
          :  -> wf. convergence          0.1000000E-03 e    :
          :  Broyden damping             0.4000000          :
          :  net charge                          0          :
          :  unpaired electrons                  0          :
          ...................................................

 iter      E             dE          RMSdq      gap      omega  full diag
   1   -130.7730386 -0.130773E+03  0.519E-05    0.82       0.0  T
   2   -130.7730386  0.147992E-09  0.616E-05    0.82     193.9  T
   3   -130.7730386 -0.315993E-09  0.193E-05    0.82     619.8  T

   *** convergence criteria satisfied after 3 iterations ***

         #    Occupation            Energy/Eh            Energy/eV
      -------------------------------------------------------------
         1        2.0000           -0.7327225             -19.9384
       ...           ...                  ...                  ...
       114        2.0000           -0.3962639             -10.7829
       115        2.0000           -0.3948388             -10.7441
       116        2.0000           -0.3850037             -10.4765
       117        2.0000           -0.3718201             -10.1177
       118        2.0000           -0.3630674              -9.8796
       119        2.0000           -0.3547791              -9.6540
       120        2.0000           -0.3279619              -8.9243 (HOMO)
       121        0.0000           -0.2977872              -8.1032 (LUMO)
       122                         -0.2793149              -7.6005
       123                         -0.2713509              -7.3838
       124                         -0.2676611              -7.2834
       125                         -0.2578216              -7.0157
       ...                                ...                  ...
       252                          0.7574340              20.6108
      -------------------------------------------------------------
                  HL-Gap            0.0301747 Eh            0.8211 eV
             Fermi-level           -0.3128746 Eh           -8.5138 eV

 SCC (total)                   0 d,  0 h,  0 min,  0.109 sec
 SCC setup                      ...        0 min,  0.000 sec (  0.000%)
 Dispersion                     ...        0 min,  0.000 sec (  0.000%)
 classical contributions        ...        0 min,  0.001 sec (  0.917%)
 integral evaluation            ...        0 min,  0.016 sec ( 14.679%)
 iterations                     ...        0 min,  0.047 sec ( 43.119%)
 molecular gradient             ...        0 min,  0.044 sec ( 40.367%)
 printout                       ...        0 min,  0.001 sec (  0.917%)

         :::::::::::::::::::::::::::::::::::::::::::::::::::::
         ::                     SUMMARY                     ::
         :::::::::::::::::::::::::::::::::::::::::::::::::::::
         :: total energy            -128.468073950105 Eh    ::
         :: gradient norm              0.000256267429 Eh/a0 ::
         :: HOMO-LUMO gap              0.821095890899 eV    ::
         ::.................................................::
         :: SCC energy              -130.775208861865 Eh    ::
         :: -> isotropic ES            0.003471854528 Eh    ::
         :: -> anisotropic ES          0.005005691233 Eh    ::
         :: -> anisotropic XC          0.050737695895 Eh    ::
         :: -> dispersion             -0.143671845970 Eh    ::
         :: repulsion energy           2.307134911760 Eh    ::
         :: add. restraining           0.000000000000 Eh    ::
         :: total charge              -0.000000000000 e     ::
         :::::::::::::::::::::::::::::::::::::::::::::::::::::

           -------------------------------------------------
          |                Property Printout                |
           -------------------------------------------------

    * Orbital Energies and Occupations

         #    Occupation            Energy/Eh            Energy/eV
      -------------------------------------------------------------
         1        2.0000           -0.7327225             -19.9384
       ...           ...                  ...                  ...
       108        2.0000           -0.4152821             -11.3004
       109        2.0000           -0.4117661             -11.2047
       110        2.0000           -0.4103456             -11.1661
       111        2.0000           -0.4080416             -11.1034
       112        2.0000           -0.4025607             -10.9542
       113        2.0000           -0.4008788             -10.9085
       114        2.0000           -0.3962639             -10.7829
       115        2.0000           -0.3948388             -10.7441
       116        2.0000           -0.3850037             -10.4765
       117        2.0000           -0.3718201             -10.1177
       118        2.0000           -0.3630674              -9.8796
       119        2.0000           -0.3547791              -9.6540
       120        2.0000           -0.3279619              -8.9243 (HOMO)
       121        0.0000           -0.2977872              -8.1032 (LUMO)
       122                         -0.2793149              -7.6005
       123                         -0.2713509              -7.3838
       124                         -0.2676611              -7.2834
       125                         -0.2578216              -7.0157
       126                         -0.2505514              -6.8178
       127                         -0.2413684              -6.5680
       128                         -0.2342553              -6.3744
       129                         -0.2309589              -6.2847
       130                         -0.2282639              -6.2114
       131                         -0.2229812              -6.0676
       ...                                ...                  ...
       252                          0.7574340              20.6108
      -------------------------------------------------------------
                  HL-Gap            0.0301747 Eh            0.8211 eV
             Fermi-level           -0.3128746 Eh           -8.5138 eV

     #   Z          covCN         q      C6AA      α(0)
     1   6 C        2.961    -0.042    29.038     8.839
     2   6 C        2.922    -0.038    28.954     8.824
     3   6 C        2.889     0.002    27.980     8.672
     4   6 C        2.967     0.028    27.369     8.581
     5   6 C        2.975     0.013    27.723     8.637
     6   6 C        2.887    -0.001    28.049     8.683
     7   6 C        2.916    -0.037    28.919     8.818
     8   6 C        2.924    -0.037    28.928     8.820
     9   6 C        2.971     0.004    27.937     8.670
    10   6 C        2.963     0.041    27.090     8.537
    11   6 C        3.002     0.002    27.975     8.676
    12   6 C        2.983     0.003    27.953     8.673
    13   6 C        3.050    -0.005    28.107     8.695
    14   6 C        2.989     0.002    27.983     8.677
    15   6 C        2.988    -0.001    28.041     8.686
    16   6 C        3.030    -0.046    29.119     8.851
    17   6 C        2.984     0.011    27.771     8.644
    18   6 C        2.925    -0.044    29.093     8.845
    19   6 C        3.002     0.001    27.984     8.678
    20   6 C        2.970     0.012    27.738     8.639
    21   6 C        2.984    -0.002    28.073     8.691
    22   6 C        2.984    -0.004    28.108     8.697
    23   6 C        2.989    -0.001    28.053     8.688
    24   6 C        3.051    -0.055    29.323     8.881
    25   6 C        2.967     0.031    27.312     8.572
    26   6 C        2.998    -0.002    28.072     8.691
    27   6 C        2.888     0.001    28.013     8.677
    28   6 C        2.982    -0.002    28.058     8.689
    29   6 C        2.992     0.002    27.983     8.677
    30   6 C        2.951    -0.043    29.078     8.844
    31   6 C        2.967     0.043    27.043     8.530
    32   6 C        2.970     0.001    28.013     8.682
    33   6 C        2.988     0.003    27.957     8.673
    34   6 C        3.048    -0.003    28.061     8.688
    35   6 C        2.983    -0.000    28.033     8.685
    36   6 C        2.999     0.002    27.965     8.675
    37   6 C        2.972     0.045    26.987     8.521
    38   6 C        3.015    -0.057    29.390     8.893
    39   6 C        2.987     0.005    27.901     8.665
    40   6 C        2.918    -0.036    28.906     8.817
    41   6 C        2.991     0.001    28.005     8.681
    42   6 C        2.987     0.000    28.018     8.683
    43   6 C        2.992    -0.003    28.082     8.693
    44   6 C        2.916    -0.029    28.737     8.791
    45   6 C        2.931    -0.053    29.310     8.879
    46   6 C        2.989    -0.002    28.064     8.690
    47   6 C        2.957    -0.042    29.042     8.839
    48   6 C        2.983    -0.003    28.095     8.695
    49   6 C        2.986    -0.004    28.117     8.698
    50   6 C        3.003     0.003    27.954     8.673
    51   1 H        0.926     0.044     2.393     2.419
    52   1 H        0.926     0.045     2.380     2.412
    53   1 H        0.926     0.039     2.457     2.451
    54   1 H        0.926     0.038     2.470     2.458
    55   1 H        0.926     0.041     2.442     2.444
    56   1 H        0.926     0.050     2.319     2.381
    57   1 H        0.926     0.037     2.486     2.466
    58   1 H        0.926     0.036     2.508     2.477
    59   1 H        0.926     0.043     2.407     2.426
    60   1 H        0.926     0.052     2.289     2.366
    61   1 H        0.926     0.048     2.343     2.394
    62   1 H        0.926     0.034     2.536     2.490
    63   1 H        0.926     0.045     2.381     2.413
    64   1 H        0.926     0.039     2.468     2.457
    65   1 H        0.926     0.031     2.576     2.510
    66   1 H        0.925     0.042     2.425     2.435
    67  16 S        2.118    -0.078   144.302    20.218
    68  16 S        2.102    -0.075   144.153    20.208
    69  16 S        2.107    -0.069   143.933    20.192
    70  16 S        2.240    -0.100   145.212    20.282

 Mol. C6AA /au·bohr⁶  :     114478.613862
 Mol. C8AA /au·bohr⁸  :    3422696.852805
 Mol. α(0) /au        :        555.301009


Wiberg/Mayer (AO) data.
largest (>0.10) Wiberg bond orders for each atom

 ---------------------------------------------------------------------------
     #   Z sym  total        # sym  WBO       # sym  WBO       # sym  WBO
 ---------------------------------------------------------------------------
     1   6 C    3.978 --     3 C    1.729     5 C    1.148    51 H    0.956
     2   6 C    3.954 --     7 C    1.635    13 C    1.208    59 H    0.953
     3   6 C    3.938 --     1 C    1.729    69 S    1.120    60 H    0.962
     4   6 C    3.873 --    13 C    1.343    19 C    1.292    69 S    1.039
     5   6 C    3.937 --    24 C    1.396    19 C    1.232     1 C    1.148
     6   6 C    3.913 --    30 C    1.719    67 S    1.115    61 H    0.963
     7   6 C    3.972 --     2 C    1.635    35 C    1.215    62 H    0.959
     8   6 C    3.957 --    40 C    1.587    34 C    1.247    52 H    0.953
     9   6 C    3.914 --    35 C    1.305    36 C    1.253    30 C    1.160
    10   6 C    3.924 --    38 C    1.487    36 C    1.243    67 S    1.039
    11   6 C    3.974 --    37 C    1.280    39 C    1.264    32 C    1.205
    12   6 C    3.964 --    33 C    1.309    40 C    1.258    39 C    1.181
    13   6 C    3.977 --     4 C    1.343    41 C    1.219     2 C    1.208
    14   6 C    3.971 --    41 C    1.267    42 C    1.252    35 C    1.229
    15   6 C    3.973 --    43 C    1.249    42 C    1.247    36 C    1.244
    16   6 C    3.971 --    37 C    1.439    44 C    1.375    53 H    0.967
    17   6 C    3.953 --    38 C    1.282    45 C    1.262    43 C    1.250
    18   6 C    3.979 --    44 C    1.499    39 C    1.319    54 H    0.959
    19   6 C    3.981 --     4 C    1.292     5 C    1.232    46 C    1.229
    20   6 C    3.961 --    45 C    1.487    50 C    1.175    47 C    1.141
    21   6 C    3.979 --    46 C    1.260    41 C    1.254    48 C    1.236
    22   6 C    3.956 --    48 C    1.283    42 C    1.245    49 C    1.211
    23   6 C    3.967 --    49 C    1.276    43 C    1.240    50 C    1.221
    24   6 C    3.978 --     5 C    1.396    31 C    1.376    55 H    0.963
    25   6 C    3.889 --    50 C    1.356    34 C    1.282    68 S    1.047
    26   6 C    3.979 --    31 C    1.307    46 C    1.238    32 C    1.191
    27   6 C    3.942 --    47 C    1.739    68 S    1.112    56 H    0.962
    28   6 C    3.979 --    32 C    1.325    48 C    1.219    33 C    1.203
    29   6 C    3.975 --    49 C    1.261    34 C    1.242    33 C    1.241
    30   6 C    3.981 --     6 C    1.719     9 C    1.160    63 H    0.947
    31   6 C    3.904 --    24 C    1.376    26 C    1.307    70 S    1.067
    32   6 C    3.950 --    28 C    1.325    11 C    1.205    26 C    1.191
    33   6 C    3.983 --    12 C    1.309    29 C    1.241    28 C    1.203
    34   6 C    3.974 --    25 C    1.282     8 C    1.247    29 C    1.242
    35   6 C    3.974 --     9 C    1.305    14 C    1.229     7 C    1.215
    36   6 C    3.963 --     9 C    1.253    15 C    1.244    10 C    1.243
    37   6 C    3.952 --    16 C    1.439    11 C    1.280    70 S    1.055
    38   6 C    3.950 --    10 C    1.487    17 C    1.282    64 H    0.964
    39   6 C    3.967 --    18 C    1.319    11 C    1.264    12 C    1.181
    40   6 C    3.975 --     8 C    1.587    12 C    1.258    57 H    0.959
    41   6 C    3.966 --    14 C    1.267    21 C    1.254    13 C    1.219
    42   6 C    3.978 --    14 C    1.252    15 C    1.247    22 C    1.245
    43   6 C    3.983 --    17 C    1.250    15 C    1.249    23 C    1.240
    44   6 C    3.974 --    18 C    1.499    16 C    1.375    58 H    0.969
    45   6 C    3.973 --    20 C    1.487    17 C    1.262    65 H    0.965
    46   6 C    3.971 --    21 C    1.260    26 C    1.238    19 C    1.229
    47   6 C    3.979 --    27 C    1.739    20 C    1.141    66 H    0.956
    48   6 C    3.957 --    22 C    1.283    21 C    1.236    28 C    1.219
    49   6 C    3.982 --    23 C    1.276    29 C    1.261    22 C    1.211
    50   6 C    3.974 --    25 C    1.356    23 C    1.221    20 C    1.175
    51   1 H    0.997 --     1 C    0.956
    52   1 H    0.997 --     8 C    0.953
    53   1 H    0.998 --    16 C    0.967
    54   1 H    0.997 --    18 C    0.959
    55   1 H    0.997 --    24 C    0.963
    56   1 H    0.996 --    27 C    0.962
    57   1 H    0.998 --    40 C    0.959
    58   1 H    0.998 --    44 C    0.969
    59   1 H    0.997 --     2 C    0.953
    60   1 H    0.996 --     3 C    0.962
    61   1 H    0.996 --     6 C    0.963
    62   1 H    0.998 --     7 C    0.959
    63   1 H    0.997 --    30 C    0.947
    64   1 H    0.997 --    38 C    0.964
    65   1 H    0.998 --    45 C    0.965
    66   1 H    0.997 --    47 C    0.956
    67  16 S    2.444 --     6 C    1.115    10 C    1.039
    68  16 S    2.480 --    27 C    1.112    25 C    1.047
    69  16 S    2.476 --     3 C    1.120     4 C    1.039
    70  16 S    2.431 --    31 C    1.067    37 C    1.055
 ---------------------------------------------------------------------------

Topologies differ in total number of bonds
Writing topology from bond orders to xtbtopo.mol

molecular dipole:
                 x           y           z       tot (Debye)
 q only:        0.002      -0.128       0.091
   full:        0.044      -0.144       0.135       0.513
molecular quadrupole (traceless):
                xx          xy          yy          xz          yz          zz
 q only:        2.748      -8.941       9.504      -0.010      -0.412     -12.251
  q+dip:       15.047     -11.157      13.530       0.043      -0.519     -28.578
   full:        6.235     -12.098       5.727      -0.059      -0.731     -11.961

           -------------------------------------------------
          |                Geometry Summary                 |
           -------------------------------------------------

      molecular mass/u    :      744.9229966
   center of mass at/Å    :        0.0016310      -0.0046758      -0.0011484
  moments of inertia/u·Å² :        0.8501460E+04   0.1114487E+05   0.1960564E+05
rotational constants/cm⁻¹ :        0.1982910E-02   0.1512591E-02   0.8598361E-03

 * 80 selected distances

     #   Z          #   Z                                           value/Å
     1   6 C        3   6 C                                       1.3345992
     1   6 C        5   6 C                                       1.4361882
     2   6 C        7   6 C                                       1.3493703
     2   6 C       13   6 C                                       1.4198151
     4   6 C       13   6 C                                       1.3923782
     4   6 C       19   6 C                                       1.4064778
     5   6 C       19   6 C                                       1.4203092
     5   6 C       24   6 C                                       1.3791406
     6   6 C       30   6 C                                       1.3376114
    24   6 C       31   6 C                                       1.3841609
    26   6 C       31   6 C                                       1.4013207
    28   6 C       32   6 C                                       1.4086113
    12   6 C       33   6 C                                       1.4055733
    28   6 C       33   6 C                                       1.4291998
    29   6 C       33   6 C                                       1.4207369
     8   6 C       34   6 C                                       1.4114428
    25   6 C       34   6 C                                       1.4068393
    29   6 C       34   6 C                                       1.4173494
     7   6 C       35   6 C                                       1.4223633
     9   6 C       35   6 C                                       1.4066376
    14   6 C       35   6 C                                       1.4236816
     9   6 C       36   6 C                                       1.4182178
    10   6 C       36   6 C                                       1.4179784
    15   6 C       36   6 C                                       1.4244480
    11   6 C       37   6 C                                       1.4112607
    16   6 C       37   6 C                                       1.3800378
    10   6 C       38   6 C                                       1.3687941
    17   6 C       38   6 C                                       1.4002980
    11   6 C       39   6 C                                       1.4210825
    12   6 C       39   6 C                                       1.4304871
    18   6 C       39   6 C                                       1.4064199
     8   6 C       40   6 C                                       1.3554164
    12   6 C       40   6 C                                       1.4132423
    13   6 C       41   6 C                                       1.4200802
    14   6 C       41   6 C                                       1.4143645
    21   6 C       41   6 C                                       1.4162687
    14   6 C       42   6 C                                       1.4140204
    15   6 C       42   6 C                                       1.4185217
    22   6 C       42   6 C                                       1.4190853
    15   6 C       43   6 C                                       1.4178516
    17   6 C       43   6 C                                       1.4121484
    23   6 C       43   6 C                                       1.4191831
    16   6 C       44   6 C                                       1.3857276
    18   6 C       44   6 C                                       1.3695339
    17   6 C       45   6 C                                       1.4047355
    20   6 C       45   6 C                                       1.3698184
    19   6 C       46   6 C                                       1.4324044
    21   6 C       46   6 C                                       1.4182191
    26   6 C       46   6 C                                       1.4279612
    27   6 C       47   6 C                                       1.3339273
    21   6 C       48   6 C                                       1.4207294
    22   6 C       48   6 C                                       1.4135999
    28   6 C       48   6 C                                       1.4268566
    22   6 C       49   6 C                                       1.4248000
    23   6 C       49   6 C                                       1.4126085
    29   6 C       49   6 C                                       1.4109525
    20   6 C       50   6 C                                       1.4359739
    23   6 C       50   6 C                                       1.4298540
    25   6 C       50   6 C                                       1.3941591
     1   6 C       51   1 H                                       1.0808983
     8   6 C       52   1 H                                       1.0790436
    16   6 C       53   1 H                                       1.0793700
    18   6 C       54   1 H                                       1.0762935 (min)
    24   6 C       55   1 H                                       1.0800087
    27   6 C       56   1 H                                       1.0777488
    40   6 C       57   1 H                                       1.0764840
    44   6 C       58   1 H                                       1.0790206
     2   6 C       59   1 H                                       1.0791906
     3   6 C       60   1 H                                       1.0775686
     6   6 C       61   1 H                                       1.0775659
     7   6 C       62   1 H                                       1.0773155
    30   6 C       63   1 H                                       1.0783480
    38   6 C       64   1 H                                       1.0798776
    45   6 C       65   1 H                                       1.0803712
    47   6 C       66   1 H                                       1.0813298
     6   6 C       67  16 S                                       1.7278425
    27   6 C       68  16 S                                       1.7287293
     3   6 C       69  16 S                                       1.7257596
    31   6 C       70  16 S                                       1.7434018
    37   6 C       70  16 S                                       1.7465879 (max)

 * 3 distinct bonds (by element types)

   Z      Z             #   av. dist./Å        max./Å        min./Å
   1 H    6 C          16     1.0787772     1.0813298     1.0762935
   6 C    6 C          59     1.4055064     1.4361882     1.3339273
   6 C   16 S           5     1.7344642     1.7465879     1.7257596


optimized geometry written to: xtbopt.xyz


           -------------------------------------------------
          | TOTAL ENERGY             -128.468073950105 Eh   |
          | GRADIENT NORM               0.000256267429 Eh/α |
          | HOMO-LUMO GAP               0.821095890899 eV   |
           -------------------------------------------------

------------------------------------------------------------------------
 * finished run on 2025/12/08 at 00:34:44.048     
------------------------------------------------------------------------
 total:
 * wall-time:     0 d,  0 h,  0 min,  4.319 sec
 *  cpu-time:     0 d,  0 h,  0 min, 17.078 sec
 * ratio c/w:     3.954 speedup
 SCF:
 * wall-time:     0 d,  0 h,  0 min,  0.315 sec
 *  cpu-time:     0 d,  0 h,  0 min,  1.250 sec
 * ratio c/w:     3.968 speedup
 ANC optimizer:
 * wall-time:     0 d,  0 h,  0 min,  3.938 sec
 *  cpu-time:     0 d,  0 h,  0 min, 15.578 sec
 * ratio c/w:     3.956 speedup

normal termination of xtb
