70
 energy: -128.458191699285 gnorm: 0.038625069879 xtb: 6.7.1pre (5071a88)
C            6.03898600000000       -3.25265500000000       -0.11311200000000
C            1.00423000000000       -4.81074300000000        0.03925600000000
C            5.62724300000000       -4.52515900000000       -0.01399900000000
C            3.07439500000000       -3.45566000000000        0.02782800000000
C            5.16117500000000       -2.09995000000000       -0.11475600000000
C           -4.54052200000000       -5.40011600000000        0.21815600000000
C           -0.34697500000000       -4.90036700000000        0.06045600000000
C           -1.04537500000000        4.92789200000000        0.09208400000000
C           -2.59210500000000       -3.84100300000000        0.11760200000000
C           -4.82271400000000       -2.69689000000000       -0.02548400000000
C            3.39353500000000        2.83240400000000        0.03888700000000
C            1.14622300000000        3.87123900000000        0.15156900000000
C            1.68006100000000       -3.54518900000000        0.03535600000000
C           -0.54043400000000       -2.45019500000000        0.03816700000000
C           -2.75567600000000       -1.36778800000000       -0.00183600000000
C            5.37309200000000        4.30089400000000        0.17655600000000
C           -4.95823900000000       -0.27388800000000       -0.09146300000000
C            3.18906800000000        5.26447200000000        0.40234800000000
C            3.73643500000000       -2.19703100000000       -0.03817300000000
C           -5.18585700000000        2.15851600000000       -0.12291300000000
C            1.51753200000000       -1.07377400000000       -0.00232100000000
C           -0.69394500000000        0.01773400000000        0.00337800000000
C           -2.92244700000000        1.11443600000000       -0.04420800000000
C            5.74310400000000       -0.84508700000000       -0.20306600000000
C           -3.10686900000000        3.55557800000000       -0.02996500000000
C            3.57869600000000        0.30286200000000       -0.10063900000000
C           -5.66542200000000        4.58896100000000       -0.13566200000000
C            1.36833600000000        1.40790500000000        0.00817300000000
C           -0.88419300000000        2.48345800000000        0.02672200000000
C           -3.22241600000000       -5.14286800000000        0.27555000000000
C            4.98525500000000        0.32199100000000       -0.20414300000000
C            2.77985700000000        1.51728600000000       -0.03870800000000
C            0.54748500000000        2.59426500000000        0.06270100000000
C           -1.69456500000000        3.66230900000000        0.03111500000000
C           -1.18656400000000       -3.73599800000000        0.08050100000000
C           -3.39082100000000       -2.65597100000000        0.02807600000000
C            4.80330600000000        3.05129800000000       -0.01259000000000
C           -5.56948100000000       -1.54111600000000       -0.08324600000000
C            2.58062300000000        3.99779000000000        0.20562100000000
C            0.31108400000000        5.02399600000000        0.15870400000000
C            0.88296900000000       -2.35092100000000        0.02307000000000
C           -1.32718900000000       -1.26516000000000        0.01611300000000
C           -3.54259400000000       -0.17670800000000       -0.04969700000000
C            4.55699600000000        5.41563000000000        0.39986500000000
C           -5.74394000000000        0.90408400000000       -0.13598800000000
C            2.94528600000000       -0.98900700000000       -0.04225100000000
C           -6.06740000000000        3.31007400000000       -0.16128400000000
C            0.72419700000000        0.11761900000000       -0.00024300000000
C           -1.50486500000000        1.20682500000000       -0.00860400000000
C           -3.74112400000000        2.30265100000000       -0.06787200000000
H            7.10522000000000       -3.05904500000000       -0.19454700000000
H           -1.62793100000000        5.84193100000000        0.08569100000000
H            6.45359400000000        4.40922700000000        0.15086300000000
H            2.57626800000000        6.13813000000000        0.57730200000000
H            6.82535200000000       -0.77395500000000       -0.26780900000000
H           -6.36256000000000        5.41996600000000       -0.16418400000000
H            0.74763300000000        6.01302100000000        0.18882800000000
H            5.00297800000000        6.39165600000000        0.56533200000000
H            1.58034700000000       -5.72831100000000        0.00185300000000
H            6.31538300000000       -5.36402800000000       -0.00797300000000
H           -4.93337400000000       -6.40250900000000        0.35176800000000
H           -0.78744100000000       -5.88768300000000        0.02616600000000
H           -2.59097800000000       -5.99535100000000        0.48867200000000
H           -6.65442700000000       -1.59517300000000       -0.11896000000000
H           -6.82539600000000        0.80325700000000       -0.17497900000000
H           -7.13430300000000        3.10770700000000       -0.21195500000000
S           -5.77257900000000       -4.20089600000000       -0.06618700000000
S           -3.99953000000000        5.10341400000000       -0.05171600000000
S            3.95935700000000       -5.00805300000000        0.12431500000000
S            5.94556600000000        1.77600900000000       -0.41577900000000
70
 energy: -128.465995103072 gnorm: 0.017326205783 xtb: 6.7.1pre (5071a88)
C            6.01353418869877       -3.23999757339267       -0.11006807309001
C            1.00646919808772       -4.78254457370396        0.03645852313434
C            5.60360699242951       -4.50688386452740       -0.01256895768964
C            3.06133280826870       -3.43098600547278        0.02736312758599
C            5.14065470406544       -2.09230886293905       -0.11121991192040
C           -4.52586834509164       -5.37312984350285        0.21980473344876
C           -0.34069222995676       -4.87555232034137        0.05546715809898
C           -1.04531082316384        4.90096442646195        0.08905717062952
C           -2.58372428224097       -3.82394182376332        0.11805337653677
C           -4.79961757861216       -2.68303356222557       -0.02723059062315
C            3.37877191004429        2.81859018219469        0.03939763372247
C            1.14279851835853        3.85504383032017        0.15003084374407
C            1.67174424903722       -3.52229624011575        0.03535626130934
C           -0.53972341663428       -2.44058023374781        0.03794546763162
C           -2.74645163969278       -1.36265330322344       -0.00168261885646
C            5.35048257372738        4.28347691791108        0.17290649028023
C           -4.94050789126857       -0.27141009539095       -0.08900451403185
C            3.18225090612878        5.23830223196293        0.40303140127782
C            3.72189135128077       -2.18386317260640       -0.03715039844822
C           -5.16307436877117        2.15094315701934       -0.12166707509360
C            1.51171969655204       -1.06709640860471       -0.00249773469424
C           -0.69311848334140        0.01652828962129        0.00411417297736
C           -2.91278980265619        1.10831265194430       -0.04353263378590
C            5.71996946805080       -0.84123607417971       -0.20224040963274
C           -3.09100743461530        3.53254270591873       -0.02926767430525
C            3.56148700169981        0.30304936837144       -0.09896018501380
C           -5.63995244534168        4.57054233525183       -0.13480198319312
C            1.36200448083152        1.40191965006702        0.01093731553047
C           -0.87733698678659        2.46962242423655        0.02658223452829
C           -3.21400240782872       -5.11589475874006        0.27738035980461
C            4.96169096609687        0.31924737999240       -0.20419474221539
C            2.76848860727575        1.51105925365053       -0.03525831690400
C            0.54615554079761        2.58202500005942        0.06213513107041
C           -1.68572392844131        3.64012627527993        0.03082918244279
C           -1.17999643678542       -3.72001158548481        0.08040120748450
C           -3.37755798489247       -2.64473088460611        0.02791391304106
C            4.77804153652779        3.04139154796222       -0.01531808456709
C           -5.54724353219203       -1.53567358622021       -0.08354036843981
C            2.57216313932261        3.98000771867491        0.20494012251797
C            0.30693762803116        5.00024755476617        0.15497697449926
C            0.87681193775290       -2.33752463317811        0.02207498338542
C           -1.32507672811241       -1.26064077100337        0.01676721975534
C           -3.52996939698025       -0.17600322637692       -0.04817345308023
C            4.54363153430552        5.39112112513252        0.40265193115065
C           -5.72269537444683        0.90066571211328       -0.13419413827569
C            2.93308223268000       -0.98287206108470       -0.04181731483440
C           -6.03987236658848        3.29764872558309       -0.16009731993348
C            0.72049612647706        0.11869686515816        0.00081270229514
C           -1.49971967885523        1.19950276548805       -0.00837399455607
C           -3.72718798383164        2.28976060275819       -0.06702985421132
H            7.07578312326671       -3.04539011154756       -0.19272450596217
H           -1.63778493040792        5.80567747827214        0.08266548080037
H            6.42666375600164        4.38754370943511        0.13881896700278
H            2.57529524855048        6.11222106697671        0.57365636161432
H            6.79732565228385       -0.76260821748233       -0.27315461116704
H           -6.32941312964561        5.40215944849060       -0.16304367596389
H            0.73901803976670        5.98756975459654        0.18752860923651
H            4.99047165838314        6.36305553253203        0.56386683135790
H            1.59371573414644       -5.69046531156691        0.00667616392769
H            6.28386759431964       -5.34630517190566       -0.00754387790250
H           -4.92377250991699       -6.36940674899252        0.34773896100311
H           -0.77793868072809       -5.86129941828037        0.02546590343782
H           -2.58395570507476       -5.96669389127130        0.48635605566876
H           -6.62731441698862       -1.59833064234481       -0.12241556368635
H           -6.80021682649224        0.79976607968864       -0.17384787429044
H           -7.10308057350040        3.09465647435555       -0.21079819505226
S           -5.75058121881767       -4.17840657178979       -0.06378965383031
S           -3.97855412028018        5.07389079430333       -0.05010983756318
S            3.93921144964755       -4.97918037213542        0.11455931429799
S            5.92388010608593        1.76931188519789       -0.39507214341645
70
 energy: -128.467786636991 gnorm: 0.006372824983 xtb: 6.7.1pre (5071a88)
C            5.99357302415555       -3.23013324858307       -0.10933659028243
C            1.00724783428472       -4.76552592357097        0.03735401962912
C            5.58201471242997       -4.49540237564216       -0.01312408620189
C            3.05237166757341       -3.41543752353625        0.02575083315291
C            5.12573556262207       -2.08539014681889       -0.11248165571063
C           -4.51329921814008       -5.35527133139870        0.22027134927031
C           -0.33813664310146       -4.86090468007728        0.05502592743796
C           -1.04378304777092        4.88517404676159        0.08675560999239
C           -2.57572897971825       -3.81182765599771        0.11828973841135
C           -4.78343575766270       -2.67516732704745       -0.02823483737327
C            3.36750901687919        2.80679487222138        0.04129774071227
C            1.13877358077441        3.84378239296832        0.15009998619485
C            1.66438388127874       -3.50762027627545        0.03554783640994
C           -0.53878159338170       -2.43368201800289        0.03806128258103
C           -2.73891154892679       -1.35874921760633       -0.00168512425081
C            5.33377838853517        4.27114674075672        0.16708490460733
C           -4.92839496314513       -0.27002897810127       -0.08930568798765
C            3.17068543034490        5.22023642603560        0.40364655406786
C            3.71066536683781       -2.17463940823015       -0.03783726862689
C           -5.14580905084279        2.14511338219650       -0.12060092731058
C            1.50722669386312       -1.06194066942641       -0.00197195929670
C           -0.69255326172007        0.01566282775458        0.00529227684615
C           -2.90521838112526        1.10362389834869       -0.04272604394255
C            5.70449578424175       -0.83677688339267       -0.20571856525071
C           -3.07956952868148        3.51924312066419       -0.02902453527396
C            3.54890039766393        0.30421929452876       -0.09691747138889
C           -5.61600536123522        4.56017487661692       -0.13377639273158
C            1.35593586276474        1.39712781535987        0.01274136886402
C           -0.87269925586084        2.45989756983971        0.02670704094186
C           -3.20274586476821       -5.09742408275224        0.27795608864299
C            4.94572117782268        0.31971899738204       -0.20305571398614
C            2.75920332956544        1.50575225169226       -0.03345433610206
C            0.54405754297802        2.57288209182514        0.06280800676909
C           -1.67835491035355        3.62640921952454        0.02994359094969
C           -1.17336721541513       -3.70912800939868        0.07976440775442
C           -3.36709600713047       -2.63732262895647        0.02820293683792
C            4.76022572196106        3.03094973185225       -0.01472195797038
C           -5.53291014626895       -1.53234464129392       -0.08595032397133
C            2.56366512039441        3.96634738197452        0.20554536114633
C            0.30632754565569        4.98607188860949        0.15341558085922
C            0.87246689389730       -2.32804209582814        0.02239373655397
C           -1.32314023714379       -1.25697068117651        0.01738519860433
C           -3.52048334967265       -0.17570584990544       -0.04772622687840
C            4.53052837907722        5.37607395872101        0.40060239404052
C           -5.70850430201058        0.89745001570058       -0.13349603398155
C            2.92349974273473       -0.97787988072335       -0.04178262284199
C           -6.01766562678835        3.28916842394779       -0.15932992092928
C            0.71746124648208        0.11950068050643        0.00217077700187
C           -1.49558839279873        1.19379913006523       -0.00763839424251
C           -3.71665103738021        2.28114341053040       -0.06623226686209
H            7.05345743803577       -3.03219422035570       -0.18744697192412
H           -1.64470863088966        5.78192263877611        0.07835002673323
H            6.40797718997783        4.36809593790264        0.12582824005273
H            2.56279084444471        6.09158465070981        0.57499533338434
H            6.77852599452986       -0.75056630260383       -0.27995629478500
H           -6.29768130709835        5.39438893876300       -0.16212607135791
H            0.73882250671552        5.97133816785091        0.18641105650719
H            4.97693931665191        6.34454753160489        0.56652216671330
H            1.60396714320820       -5.66490538949071        0.00842916820075
H            6.25469012128798       -5.33711955999189       -0.00566679074230
H           -4.91551305803715       -6.34660911284735        0.34934869478038
H           -0.77531438581021       -5.84492246294309        0.02431431271807
H           -2.56976442964823       -5.94482293580884        0.48595834036567
H           -6.60986435849838       -1.60170468109618       -0.12727016953653
H           -6.78352615347504        0.79634805917883       -0.17283142135606
H           -7.07829394595270        3.08365278274611       -0.21063329879372
S           -5.73297012137568       -4.16477779057957       -0.06237714334631
S           -3.95944637082226        5.05643097449822       -0.04827939577870
S            3.92171116638034       -4.96089850725695        0.10648899901078
S            5.91119681660075        1.76430136830145       -0.37571238573122
70
 energy: -128.467855734869 gnorm: 0.003220383342 xtb: 6.7.1pre (5071a88)
C            5.99078933110579       -3.22925374950724       -0.10934463986669
C            1.00779939552247       -4.76481642142271        0.03658137835294
C            5.57778737418794       -4.49462186119047       -0.01373525954824
C            3.05154791395448       -3.41468685562022        0.02474065550856
C            5.12403705042640       -2.08447464226868       -0.11458208566530
C           -4.51184031617678       -5.35356596535091        0.22328780758307
C           -0.33749767082698       -4.86092950408418        0.05375970573346
C           -1.04389925522954        4.88448697944544        0.08498737068271
C           -2.57445414616006       -3.81120831574718        0.11887349456774
C           -4.78211331675685       -2.67526893719996       -0.02984615446906
C            3.36590180324538        2.80537611347643        0.04238425764701
C            1.13750111871791        3.84337178945796        0.15094120449104
C            1.66310342715830       -3.50637002369628        0.03559753971663
C           -0.53860335197533       -2.43326793174802        0.03875781105841
C           -2.73799818346968       -1.35845208775309       -0.00188138214923
C            5.33152009910269        4.27066355993674        0.16430710244370
C           -4.92757162924689       -0.27001723030163       -0.09066595076911
C            3.16862088759216        5.21846727211967        0.40761224230511
C            3.70906352541496       -2.17378033722675       -0.03900634039235
C           -5.14359498932662        2.14471127411870       -0.12063360808407
C            1.50670469174042       -1.06114638074804       -0.00158228529046
C           -0.69255695293443        0.01527787726572        0.00628073867955
C           -2.90417243236208        1.10279486224865       -0.04247651196618
C            5.70312907607161       -0.83614771828753       -0.20867366074177
C           -3.07831269358633        3.51889751385908       -0.02894886891027
C            3.54759950551782        0.30474787075654       -0.09635349774766
C           -5.61080462737092        4.56017276956525       -0.13354274121801
C            1.35476712418982        1.39658559260194        0.01455534191079
C           -0.87231161192626        2.45862443160599        0.02731235638377
C           -3.20077094431703       -5.09599621227205        0.28108354294065
C            4.94448370633139        0.32059788347380       -0.20290022977334
C            2.75795258136922        1.50502145769723       -0.03151604251910
C            0.54346990567871        2.57205349391542        0.06393916959979
C           -1.67726486253774        3.62518432923253        0.02972211167803
C           -1.17172784254115       -3.70886082661396        0.08000486447822
C           -3.36576883344649       -2.63711974363943        0.02761758662845
C            4.75815562606747        3.02939658909162       -0.01488461996403
C           -5.53202110308241       -1.53227755491159       -0.08869646029323
C            2.56203357291247        3.96529582589478        0.20703825255397
C            0.30584132970661        4.98592320494639        0.15220351970428
C            0.87202438168066       -2.32694453537598        0.02289463093157
C           -1.32295476828445       -1.25675452951796        0.01802167689027
C           -3.51954095963810       -0.17591589563880       -0.04805539946614
C            4.52874196267067        5.37520964165609        0.40172609749305
C           -5.70751734899665        0.89713405477085       -0.13425321251481
C            2.92217574590137       -0.97714819823282       -0.04224352618127
C           -6.01417254096660        3.28917119563050       -0.15940967446404
C            0.71702937543791        0.11966158461248        0.00327116127179
C           -1.49499694128411        1.19274299968289       -0.00685555012267
C           -3.71520227852867        2.28029757335925       -0.06608890002012
H            7.05047646074968       -3.02996082915037       -0.18496831782661
H           -1.64676521206653        5.77945289740975        0.07467646602215
H            6.40570378672358        4.36474929881023        0.11866087287097
H            2.56024323130534        6.08847826084314        0.58294070136909
H            6.77669460279513       -0.74791842167627       -0.28486978002704
H           -6.29043204802331        5.39584170957411       -0.16214696270749
H            0.73785573693604        5.97112916261188        0.18316003467932
H            4.97452102031327        6.34378866150382        0.56706772433700
H            1.60670255845501       -5.66226128312127        0.00823074127497
H            6.24871897716794       -5.33751379018626       -0.00477211964674
H           -4.91416882106666       -6.34464381209683        0.35286514032367
H           -0.77381725921554       -5.84494780621335        0.02162710121523
H           -2.56722882744646       -5.94209627102651        0.49175778182471
H           -6.60866986877262       -1.60292650186134       -0.13157601579716
H           -6.78236603127575        0.79610465179766       -0.17360998973627
H           -7.07442229217855        3.08287974163330       -0.21131406784060
S           -5.73041034886626       -4.16431155177689       -0.06284183690995
S           -3.95568644165878        5.05533209776198       -0.04743746400127
S            3.91866767647859       -4.95956960590586        0.10180684729110
S            5.91088818891340        1.76379010900270       -0.36824987581249
70
 energy: -128.467890127684 gnorm: 0.001171623555 xtb: 6.7.1pre (5071a88)
C            5.99004235132835       -3.22926603189215       -0.11023858228129
C            1.00765615353195       -4.76533887573922        0.03537106295590
C            5.57590961864880       -4.49459095616900       -0.01533656673162
C            3.05141604032535       -3.41541646230316        0.02254845444934
C            5.12353003373083       -2.08443015304133       -0.11791496467122
C           -4.51104888653088       -5.35304757041443        0.22740850932750
C           -0.33775199425848       -4.86185074817154        0.05238825817853
C           -1.04344672546275        4.88487273462282        0.08213047247851
C           -2.57408155335953       -3.81120616702291        0.12041685145960
C           -4.78201525174320       -2.67593704965880       -0.03193375444334
C            3.36534979170959        2.80478022006141        0.04492122942602
C            1.13693107418839        3.84349382912735        0.15268729180643
C            1.66222077374009       -3.50634808980280        0.03517519582445
C           -0.53862621526988       -2.43340519840722        0.03958536521571
C           -2.73786751991547       -1.35833942058799       -0.00209845229001
C            5.33008156551251        4.27207194153438        0.16054525518397
C           -4.92773284251187       -0.27005013273058       -0.09310709729052
C            3.16744732989114        5.21775445581875        0.41362003347767
C            3.70833879197005       -2.17395733978388       -0.04108235151371
C           -5.14279684479923        2.14489076554187       -0.12111304616852
C            1.50665537109390       -1.06093938717225       -0.00091523120566
C           -0.69263841783588        0.01494345910118        0.00795823314777
C           -2.90384475196677        1.10249271233907       -0.04216965930891
C            5.70274208868887       -0.83627205893286       -0.21283667829580
C           -3.07794746374405        3.51963744210703       -0.02875072567031
C            3.54739665599939        0.30491240786953       -0.09547258763176
C           -5.60816946561343        4.56066009140405       -0.13347909044584
C            1.35425929334582        1.39630051936014        0.01727155150619
C           -0.87219619295114        2.45811782167512        0.02850298951594
C           -3.19958580838805       -5.09570252427548        0.28616933875001
C            4.94446666017531        0.32124135983064       -0.20287710232378
C            2.75767638996381        1.50456308063960       -0.02878201271586
C            0.54324560858427        2.57179818494863        0.06608963697314
C           -1.67657265017311        3.62496403321835        0.02954765663549
C           -1.17094251879374       -3.70917431088748        0.08045038206461
C           -3.36541969142567       -2.63730317524884        0.02741387548921
C            4.75739823583486        3.02901713136990       -0.01413548678227
C           -5.53202295517052       -1.53251820738388       -0.09279762194213
C            2.56129495446532        3.96498707721407        0.21042353345042
C            0.30614138486609        4.98664465306559        0.15001894012824
C            0.87189291528460       -2.32672825163584        0.02344807456157
C           -1.32307894399239       -1.25684025472934        0.01897696487392
C           -3.51948610950304       -0.17600478084085       -0.04880301648288
C            4.52775704757442        5.37590748851488        0.40227577267343
C           -5.70756897305128        0.89720260420450       -0.13602944421644
C            2.92172169669956       -0.97713546835795       -0.04279498254721
C           -6.01288715086143        3.28979914708649       -0.15991336334950
C            0.71692289896768        0.11966418108719        0.00517926675877
C           -1.49478677533107        1.19220006519248       -0.00550974739879
C           -3.71462777960884        2.28021103620153       -0.06594215438751
H            7.04972775685700       -3.02870065752236       -0.18212762855708
H           -1.64736555289225        5.77879714323859        0.06866769921688
H            6.40429556917087        4.36379851882733        0.11002980908379
H            2.55836151493550        6.08592350264639        0.59564279079642
H            6.77603461484641       -0.74640541488516       -0.29099537278086
H           -6.28644640323253        5.39753950492152       -0.16226186080983
H            0.73802066399363        5.97193417351289        0.17768382863603
H            4.97279709132070        6.34466680595798        0.56812254525721
H            1.60774901221273       -5.66160227099951        0.00613188104561
H            6.24588517954454       -5.33832620879568       -0.00362456816282
H           -4.91313854140871       -6.34386852114992        0.36038411550087
H           -0.77356766217717       -5.84590826255228        0.01791586069905
H           -2.56554615512783       -5.94018111689411        0.50159140469919
H           -6.60852827617211       -1.60422835204620       -0.13780258571923
H           -6.78238911628073        0.79633885653136       -0.17576177249220
H           -7.07288488489893        3.08293688183759       -0.21255887597574
S           -5.72861882780172       -4.16507115418608       -0.06468672673532
S           -3.95426520026331        5.05486270473996       -0.04639579289188
S            3.91771493721026       -4.95929128657184        0.09500753185584
S            5.91142903630440        1.76369832544283       -0.35912075888337
70
 energy: -128.467912006101 gnorm: 0.002452791334 xtb: 6.7.1pre (5071a88)
C            5.99065888187661       -3.22976707396837       -0.11233761867854
C            1.00714438898905       -4.76624091217533        0.03229783050602
C            5.57569226109838       -4.49494731649062       -0.01853057186197
C            3.05166799918152       -3.41681015354222        0.01816206181462
C            5.12367502312198       -2.08491081425208       -0.12289300112726
C           -4.51088986687362       -5.35258638265266        0.23502050351217
C           -0.33846311602751       -4.86277529307901        0.05019511649052
C           -1.04271523396449        4.88551099536375        0.07731880313346
C           -2.57431456485965       -3.81127307050760        0.12339847678632
C           -4.78240047968072       -2.67676667803998       -0.03508039457168
C            3.36557643902654        2.80472477326174        0.04946783958348
C            1.13691342839358        3.84356364772864        0.15583048594478
C            1.66184868821978       -3.50698416091688        0.03334612854943
C           -0.53868767308018       -2.43381299479321        0.04070041639693
C           -2.73813409648514       -1.35837903223674       -0.00210621343205
C            5.32904378811500        4.27481490965046        0.15624621640135
C           -4.92822841383663       -0.27024174903259       -0.09707864718664
C            3.16692476165091        5.21719404534283        0.42330869146569
C            3.70821062496702       -2.17471961787246       -0.04459022944379
C           -5.14284647110819        2.14516594070533       -0.12248732901370
C            1.50693435443081       -1.06119564182837        0.00005504295366
C           -0.69269567097073        0.01468809074856        0.01065859585562
C           -2.90401304701770        1.10251143082173       -0.04178434723350
C            5.70268984941169       -0.83686452857372       -0.21799965838037
C           -3.07812767825160        3.52058087757276       -0.02846878327980
C            3.54785698046922        0.30475830302344       -0.09384286635431
C           -5.60750546356954        4.56104243560721       -0.13340103437790
C            1.35433114587249        1.39612297976170        0.02178016643791