70
 energy: -128.468073950105 gnorm: 0.000256267429 xtb: 6.7.1pre (5071a88)
C            5.98868380934283       -3.23231107547162       -0.18461268114176
C            1.00167487507740       -4.76741036144613       -0.03015968192308
C            5.57282965269786       -4.49945722868924       -0.13400929612789
C            3.04900068247731       -3.41917228327723       -0.05169160395644
C            5.12311160993756       -2.08662839934146       -0.15576532944242
C           -4.50087540935168       -5.34248124701828        0.37061624025147
C           -0.34321908926304       -4.86153725390815        0.02641021007079
C           -1.04001646333063        4.88590665660006        0.00024441550897
C           -2.57059190390606       -3.80527572140729        0.17647767306362
C           -4.77944012007865       -2.67803277653356       -0.00134343754622
C            3.36601161393607        2.80372357120466        0.09783538299306
C            1.13581297749677        3.84271264522077        0.14353828812203
C            1.65991842405222       -3.50944282674164       -0.01977943294486
C           -0.53728641327145       -2.43187583936797        0.03722493348337
C           -2.73652073543850       -1.35717018224338        0.00731509487709
C            5.32421764923869        4.27454816327934        0.26437360788233
C           -4.92708918928774       -0.27344832587052       -0.10597420355514
C            3.15528947539980        5.21397107705605        0.48215365340779
C            3.70744482317037       -2.17678132743072       -0.08478724853936
C           -5.14226387740815        2.14203095667982       -0.15501987244347
C            1.50803956642251       -1.06194948114809       -0.01307046354632
C           -0.69125752533448        0.01573526671315        0.00684529365040
C           -2.90340912441383        1.10205017067206       -0.06106485545410
C            5.70464226180081       -0.83690725272473       -0.20101685097530
C           -3.07705684618186        3.51929372267607       -0.07519352447842
C            3.55025290982847        0.30427502053793       -0.07204102617720
C           -5.60899614156657        4.55757030600392       -0.17940471343172
C            1.35588637377708        1.39548946171037        0.02868035867072
C           -0.87186817773132        2.45837064538073        0.00571209117653
C           -3.19001441081967       -5.08072395533618        0.41889075451935
C            4.94887176832611        0.32188234261227       -0.15721555087824
C            2.76010161721813        1.50367272949046        0.00296521355366
C            0.54333407237198        2.57078734106663        0.06101185640898
C           -1.67535901318989        3.62569794389328       -0.01935659100485
C           -1.16991132906768       -3.70603444429303        0.09356787294041
C           -3.36347833562265       -2.63510097067393        0.06087740625847
C            4.75884890606875        3.02990156603909        0.07538395171493
C           -5.53036247710455       -1.53702775297658       -0.08977480418629
C            2.55752485374574        3.96292984937380        0.24637852987762
C            0.30882045143938        4.98732074255420        0.08689006120482
C            0.87274625786690       -2.32766844321748        0.00014017483483
C           -1.32174568037116       -1.25548337390756        0.02389048083877
C           -3.51914538916887       -0.17659192328329       -0.05621673535951
C            4.51524313341594        5.37470387302551        0.49986953712671
C           -5.70644830363720        0.89382449823963       -0.16389699850154
C            2.92316844985540       -0.97851969210457       -0.05543603343524
C           -6.01319737541333        3.28650626075197       -0.19887628608677
C            0.71856006231692        0.11907196060205        0.00647639732297
C           -1.49436352746998        1.19237485253464       -0.01753976363009
C           -3.71399390015441        2.27935307605489       -0.09837974584125
H            7.04887378263868       -3.03110035674027       -0.24668044523656
H           -1.64137712015280        5.78007907823302       -0.05593314051373
H            6.39902625292527        4.36937876170289        0.23551269946021
H            2.53790881418777        6.07545964059305        0.66946618188458
H            6.77899560398302       -0.74682608658326       -0.26480429307039
H           -6.28843834867671        5.39365527609274       -0.20877147989752
H            0.74591487405397        5.97106296364612        0.08272769495820
H            4.95524274810878        6.34239469430180        0.68496396775191
H            1.59835592705778       -5.66418058184582       -0.09669530992171
H            6.24229309802104       -5.34368109867845       -0.15009350877445
H           -4.90492216487912       -6.32181878988416        0.56757352717141
H           -0.78906216040897       -5.84126531573659       -0.01792145148670
H           -2.55041512869356       -5.90243780495635        0.69912856801713
H           -6.60651822119030       -1.61038707659721       -0.14118152843789
H           -6.78123901106330        0.79307251776438       -0.20720593872208
H           -7.07344377270908        3.07949242290338       -0.24680052351398
S           -5.71579171763105       -4.17465145551726       -0.01094781180813
S           -3.95478000532953        5.05370674565437       -0.10244999783192
S            3.91396529141841       -4.96563995362267       -0.03867674497621
S            5.92390173964394        1.76525285771018       -0.23102121420398
