      -----------------------------------------------------------      
     |                   =====================                   |     
     |                           x T B                           |     
     |                   =====================                   |     
     |                         S. Grimme                         |     
     |          Mulliken Center for Theoretical Chemistry        |     
     |                    University of Bonn                     |     
      -----------------------------------------------------------      

   * xtb version 6.7.1pre (5071a88) compiled by 'Marcel@Raven' on 2024-07-23

   xtb is free software: you can redistribute it and/or modify it under
   the terms of the GNU Lesser General Public License as published by
   the Free Software Foundation, either version 3 of the License, or
   (at your option) any later version.
   
   xtb is distributed in the hope that it will be useful,
   but WITHOUT ANY WARRANTY; without even the implied warranty of
   MERCHANTABILITY or FITNESS FOR A PARTICULAR PURPOSE.  See the
   GNU Lesser General Public License for more details.
   
   Cite this work as:
   * C. Bannwarth, E. Caldeweyher, S. Ehlert, A. Hansen, P. Pracht,
     J. Seibert, S. Spicher, S. Grimme, WIREs Comput. Mol. Sci., 2020, 11,
     e01493. DOI: 10.1002/wcms.1493
   
   for GFN2-xTB:
   * C. Bannwarth, S. Ehlert and S. Grimme., J. Chem. Theory Comput., 2019,
     15, 1652-1671. DOI: 10.1021/acs.jctc.8b01176
   for GFN1-xTB:
   * S. Grimme, C. Bannwarth, P. Shushkov, J. Chem. Theory Comput., 2017,
     13, 1989-2009. DOI: 10.1021/acs.jctc.7b00118
   for GFN0-xTB:
   * P. Pracht, E. Caldeweyher, S. Ehlert, S. Grimme, ChemRxiv, 2019, preprint.
     DOI: 10.26434/chemrxiv.8326202.v1
   for GFN-FF:
   * S. Spicher and S. Grimme, Angew. Chem. Int. Ed., 2020, 59, 15665-15673.
     DOI: 10.1002/anie.202004239
   
   for ALPB and GBSA implicit solvation:
   * S. Ehlert, M. Stahn, S. Spicher, S. Grimme, J. Chem. Theory Comput.,
     2021, 17, 4250-4261. DOI: 10.1021/acs.jctc.1c00471
   
   for ddCOSMO and CPCM-X implicit solvation:
   * M. Stahn, S. Ehlert, S. Grimme, J. Phys. Chem. A,
     2023, XX, XXXX-XXXX. DOI: 10.1021/acs.jpca.3c04382
   
   for DFT-D4:
   * E. Caldeweyher, C. Bannwarth and S. Grimme, J. Chem. Phys., 2017,
     147, 034112. DOI: 10.1063/1.4993215
   * E. Caldeweyher, S. Ehlert, A. Hansen, H. Neugebauer, S. Spicher,
     C. Bannwarth and S. Grimme, J. Chem. Phys., 2019, 150, 154122.
     DOI: 10.1063/1.5090222
   * E. Caldeweyher, J.-M. Mewes, S. Ehlert and S. Grimme, Phys. Chem. Chem. Phys.
     2020, 22, 8499-8512. DOI: 10.1039/D0CP00502A
   
   for sTDA-xTB:
   * S. Grimme and C. Bannwarth, J. Chem. Phys., 2016, 145, 054103.
     DOI: 10.1063/1.4959605
   
   in the mass-spec context:
   * V. Asgeirsson, C. Bauer and S. Grimme, Chem. Sci., 2017, 8, 4879.
     DOI: 10.1039/c7sc00601b
   * J. Koopman and S. Grimme, ACS Omega 2019, 4, 12, 15120-15133.
     DOI: 10.1021/acsomega.9b02011
   
   for metadynamics refer to:
   * S. Grimme, J. Chem. Theory Comput., 2019, 155, 2847-2862
     DOI: 10.1021/acs.jctc.9b00143
   
   for SPH calculations refer to:
   * S. Spicher and S. Grimme, J. Chem. Theory Comput., 2021, 17, 1701-1714
     DOI: 10.1021/acs.jctc.0c01306
   
   for ONIOM refer to:
   * C. Plett, A. Katbashev, S. Ehlert, S. Grimme, M. Bursch,
     Phys. Chem. Chem. Phys., 2023, 25, 17860-17868. DOI: 10.1039/D3CP02178E
   
   for DIPRO refer to:
   * J. Kohn, N. Gildemeister, S. Grimme, D. Fazzi, A. Hansen,
     J. Chem. Phys., 2023, just accepted.
   
   for PTB refer to:
   * S. Grimme, M. Mueller, A. Hansen, J. Chem. Phys., 2023, 158, 124111.
     DOI: 10.1063/5.0137838
   
   with help from (in alphabetical order)
   P. Atkinson, C. Bannwarth, F. Bohle, G. Brandenburg, E. Caldeweyher
   M. Checinski, S. Dohm, S. Ehlert, S. Ehrlich, I. Gerasimov, C. Hölzer
   A. Katbashev, J. Kohn, J. Koopman, C. Lavigne, S. Lehtola, F. März, M. Müller,
   F. Musil, H. Neugebauer, J. Pisarek, C. Plett, P. Pracht, F. Pultar,
   J. Seibert, P. Shushkov, S. Spicher, M. Stahn, M. Steiner, T. Strunk,
   J. Stückrath, T. Rose, and J. Unsleber
   
 * started run on 2025/12/08 at 00:34:48.191     
   ID    Z sym.   atoms
    1    6 C      1-48, 64
    2    1 H      49-63, 65, 66, 72
    3    8 O      67-71

           -------------------------------------------------
          |                Calculation Setup                |
           -------------------------------------------------

          program call               : xtb "C:\Users\LENOVO GAMING\Documents\GitHub\molecular-conductivity-sim\dataset\1nm-5Odoped-7percent.xyz" --opt --parallel 4
          coordinate file            : C:\Users\LENOVO GAMING\Documents\GitHub\molecular-conductivity-sim\dataset\1nm-5Odoped-7percent.xyz
          omp threads                :                     4


           -------------------------------------------------
          |                 G F N 2 - x T B                 |
           -------------------------------------------------

        Reference                      10.1021/acs.jctc.8b01176
      * Hamiltonian:
        H0-scaling (s, p, d)           1.850000    2.230000    2.230000
        zeta-weighting                 0.500000
      * Dispersion:
        s8                             2.700000
        a1                             0.520000
        a2                             5.000000
        s9                             5.000000
      * Repulsion:
        kExp                           1.500000    1.000000
        rExp                           1.000000
      * Coulomb:
        alpha                          2.000000
        third order                    shell-resolved
        anisotropic                    true
        a3                             3.000000
        a5                             4.000000
        cn-shift                       1.200000
        cn-exp                         4.000000
        max-rad                        5.000000


          ...................................................
          :                      SETUP                      :
          :.................................................:
          :  # basis functions                 234          :
          :  # atomic orbitals                 234          :
          :  # shells                          126          :
          :  # electrons                       244          :
          :  max. iterations                   250          :
          :  Hamiltonian                  GFN2-xTB          :
          :  restarted?                      false          :
          :  GBSA solvation                  false          :
          :  PC potential                    false          :
          :  electronic temp.          300.0000000     K    :
          :  accuracy                    1.0000000          :
          :  -> integral cutoff          0.2500000E+02      :
          :  -> integral neglect         0.1000000E-07      :
          :  -> SCF convergence          0.1000000E-05 Eh   :
          :  -> wf. convergence          0.1000000E-03 e    :
          :  Broyden damping             0.4000000          :
          :  net charge                          0          :
          :  unpaired electrons                  0          :
          ...................................................

 iter      E             dE          RMSdq      gap      omega  full diag
   1   -136.5309323 -0.136531E+03  0.496E+00    0.20       0.0  T
   2   -136.4958127  0.351197E-01  0.335E+00    0.33       1.0  T
   3   -136.1876128  0.308200E+00  0.249E+00    0.94       1.0  T
   4   -136.3182621 -0.130649E+00  0.159E+00    0.65       1.0  T
   5   -136.5243777 -0.206116E+00  0.107E+00    0.75       1.0  T
   6   -136.6565059 -0.132128E+00  0.433E-01    0.32       1.0  T
   7   -136.6740337 -0.175278E-01  0.174E-01    0.25       1.0  T
   8   -136.6680135  0.602018E-02  0.291E-01    0.30       1.0  T
   9   -136.6686496 -0.636106E-03  0.237E-01    0.29       1.0  T
  10   -136.6758401 -0.719049E-02  0.803E-02    0.25       1.0  T
  11   -136.6761729 -0.332737E-03  0.599E-02    0.25       1.0  T
  12   -136.6766345 -0.461610E-03  0.121E-02    0.26       1.0  T
  13   -136.6766476 -0.131082E-04  0.417E-03    0.26       2.8  T
  14   -136.6766490 -0.137369E-05  0.100E-03    0.26      11.7  T
  15   -136.6766489  0.841212E-07  0.102E-03    0.26      11.5  T
  16   -136.6766490 -0.908464E-07  0.562E-04    0.26      21.0  T
  17   -136.6766490 -0.281811E-07  0.240E-04    0.26      49.2  T

   *** convergence criteria satisfied after 17 iterations ***

         #    Occupation            Energy/Eh            Energy/eV
      -------------------------------------------------------------
         1        2.0000           -0.7468010             -20.3215
       ...           ...                  ...                  ...
       116        2.0000           -0.3934253             -10.7056
       117        2.0000           -0.3853671             -10.4864
       118        2.0000           -0.3818036             -10.3894
       119        2.0000           -0.3704517             -10.0805
       120        2.0000           -0.3636364              -9.8950
       121        2.0000           -0.3322257              -9.0403
       122        1.9863           -0.3166531              -8.6166 (HOMO)
       123        0.0137           -0.3071938              -8.3592 (LUMO)
       124                         -0.2876250              -7.8267
       125                         -0.2704510              -7.3593
       126                         -0.2623930              -7.1401
       127                         -0.2545474              -6.9266
       ...                                ...                  ...
       234                          0.7242458              19.7077
      -------------------------------------------------------------
                  HL-Gap            0.0094594 Eh            0.2574 eV
             Fermi-level           -0.3119235 Eh           -8.4879 eV

 SCC (total)                   0 d,  0 h,  0 min,  0.313 sec
 SCC setup                      ...        0 min,  0.001 sec (  0.320%)
 Dispersion                     ...        0 min,  0.001 sec (  0.319%)
 classical contributions        ...        0 min,  0.001 sec (  0.319%)
 integral evaluation            ...        0 min,  0.013 sec (  4.153%)
 iterations                     ...        0 min,  0.247 sec ( 78.914%)
 molecular gradient             ...        0 min,  0.049 sec ( 15.655%)
 printout                       ...        0 min,  0.001 sec (  0.320%)

         :::::::::::::::::::::::::::::::::::::::::::::::::::::
         ::                     SUMMARY                     ::
         :::::::::::::::::::::::::::::::::::::::::::::::::::::
         :: total energy            -134.557465822526 Eh    ::
         :: gradient norm              0.059566802624 Eh/a0 ::
         :: HOMO-LUMO gap              0.257402409768 eV    ::
         ::.................................................::
         :: SCC energy              -136.678057097997 Eh    ::
         :: -> isotropic ES            0.062063767529 Eh    ::
         :: -> anisotropic ES          0.007631417177 Eh    ::
         :: -> anisotropic XC          0.039045128108 Eh    ::
         :: -> dispersion             -0.129596636379 Eh    ::
         :: repulsion energy           2.120591275471 Eh    ::
         :: add. restraining           0.000000000000 Eh    ::
         :: total charge               0.000000001033 e     ::
         :::::::::::::::::::::::::::::::::::::::::::::::::::::

      ----------------------------------------------------------- 
     |                   =====================                   |
     |                        A N C O P T                        |
     |                   =====================                   |
     |               Approximate Normal Coordinate               |
     |                Rational Function Optimizer                |
      ----------------------------------------------------------- 
      ----------------------------------------------------------- 
     |                   =====================                   |
     |                        A N C O P T                        |
     |                   =====================                   |
     |               Approximate Normal Coordinate               |
     |                Rational Function Optimizer                |
      ----------------------------------------------------------- 

          ...................................................
          :                      SETUP                      :
          :.................................................:
          :   optimization level            normal          :
          :   max. optcycles                   216          :
          :   ANC micro-cycles                  20          :
          :   degrees of freedom               210          :
          :.................................................:
          :   RF solver                   davidson          :
          :   write xtbopt.log                true          :
          :   linear?                        false          :
          :   energy convergence         0.5000000E-05 Eh   :
          :   grad. convergence          0.1000000E-02 Eh/α :
          :   maxmium RF displ.          1.0000000          :
          :   Hlow (freq-cutoff)         0.1000000E-01      :
          :   Hmax (freq-cutoff)         5.0000000          :
          :   S6 in model hess.         20.0000000          :
          ...................................................

generating ANC from exact Hessian ...
Using Lindh-Hessian (1995)
 Shifting diagonal of input Hessian by   9.630324909755739E-003
 Lowest  eigenvalues of input Hessian
    0.000000    0.000000    0.000000    0.000000    0.000000    0.000000
    0.010000    0.010409    0.010751    0.011090    0.011762    0.013138
    0.013951    0.014903    0.015654    0.015817    0.016785    0.018322
 Highest eigenvalues
    2.052060    2.073223    2.092207    2.126563    2.140343    2.166538
 

........................................................................
.............................. CYCLE    1 ..............................
........................................................................

 iter      E             dE          RMSdq      gap      omega  full diag
   1   -136.6766490 -0.136677E+03  0.103E-04    0.26       0.0  T
   2   -136.6766489  0.574621E-07  0.638E-04    0.26      18.5  T
   3   -136.6766490 -0.577848E-07  0.850E-05    0.26     138.6  T
     SCC iter.                  ...        0 min,  0.044 sec
     gradient                   ...        0 min,  0.046 sec
 * total energy  :  -134.5574658 Eh     change       -0.5445173E-08 Eh
   gradient norm :     0.0595702 Eh/α   predicted     0.0000000E+00 (-100.00%)
   displ. norm   :     0.3630372 α      lambda       -0.1121764E-01
   maximum displ.:     0.1726394 α      in ANC's #34, #29, #30, ...

........................................................................
.............................. CYCLE    2 ..............................
........................................................................

 iter      E             dE          RMSdq      gap      omega  full diag
   1   -136.7546972 -0.136755E+03  0.181E-01    0.24       0.0  T
   2   -136.7062076  0.484896E-01  0.604E-01    0.35       1.0  T
   3   -136.7545775 -0.483699E-01  0.132E-01    0.24       1.0  T
   4   -136.7557405 -0.116292E-02  0.708E-02    0.24       1.0  T
   5   -136.7559308 -0.190357E-03  0.406E-02    0.24       1.0  T
   6   -136.7560928 -0.162016E-03  0.124E-02    0.24       1.0  T
   7   -136.7561029 -0.100565E-04  0.665E-03    0.24       1.8  T
   8   -136.7561073 -0.437127E-05  0.435E-03    0.24       2.7  T
   9   -136.7561097 -0.246327E-05  0.113E-03    0.24      10.5  T
  10   -136.7561098 -0.819847E-07  0.417E-04    0.24      28.2  T
  11   -136.7561098 -0.111617E-07  0.224E-04    0.24      52.6  T
     SCC iter.                  ...        0 min,  0.152 sec
     gradient                   ...        0 min,  0.044 sec
 * total energy  :  -134.5654720 Eh     change       -0.8006176E-02 Eh
   gradient norm :     0.0328034 Eh/α   predicted    -0.6349169E-02 ( -20.70%)
   displ. norm   :     0.3212456 α      lambda       -0.4241970E-02
   maximum displ.:     0.1383440 α      in ANC's #34, #29, #30, ...

........................................................................
.............................. CYCLE    3 ..............................
........................................................................

 iter      E             dE          RMSdq      gap      omega  full diag
   1   -136.8035710 -0.136804E+03  0.182E-01    0.22       0.0  T
   2   -136.7246484  0.789227E-01  0.767E-01    0.40       1.0  T
   3   -136.8058242 -0.811758E-01  0.778E-02    0.22       1.0  T
   4   -136.8047399  0.108432E-02  0.108E-01    0.21       1.0  T
   5   -136.8058375 -0.109763E-02  0.421E-02    0.22       1.0  T
   6   -136.8059699 -0.132435E-03  0.186E-02    0.22       1.0  T
   7   -136.8060058 -0.358337E-04  0.103E-02    0.22       1.1  T
   8   -136.8060206 -0.148822E-04  0.241E-03    0.22       4.9  T
   9   -136.8060210 -0.388162E-06  0.130E-03    0.22       9.1  T
  10   -136.8060212 -0.128883E-06  0.593E-04    0.22      19.9  T
  11   -136.8060212 -0.411431E-07  0.259E-04    0.22      45.5  T
     SCC iter.                  ...        0 min,  0.164 sec
     gradient                   ...        0 min,  0.041 sec
 * total energy  :  -134.5679087 Eh     change       -0.2436717E-02 Eh
   gradient norm :     0.0126390 Eh/α   predicted    -0.2340262E-02 (  -3.96%)
   displ. norm   :     0.1089033 α      lambda       -0.4078807E-03
   maximum displ.:     0.0433699 α      in ANC's #11, #29, #10, ...

........................................................................
.............................. CYCLE    4 ..............................
........................................................................

 iter      E             dE          RMSdq      gap      omega  full diag
   1   -136.8099697 -0.136810E+03  0.715E-02    0.21       0.0  T
   2   -136.7785178  0.314518E-01  0.477E-01    0.27       1.0  T
   3   -136.8104489 -0.319310E-01  0.259E-02    0.21       1.0  T
   4   -136.8103982  0.506951E-04  0.285E-02    0.21       1.0  T
   5   -136.8104565 -0.583168E-04  0.135E-02    0.21       1.0  T
   6   -136.8104676 -0.111636E-04  0.769E-03    0.21       1.5  T
   7   -136.8104756 -0.792499E-05  0.211E-03    0.21       5.6  T
   8   -136.8104761 -0.551269E-06  0.588E-04    0.21      20.0  T
   9   -136.8104762 -0.337847E-07  0.244E-04    0.21      48.2  T
     SCC iter.                  ...        0 min,  0.129 sec
     gradient                   ...        0 min,  0.047 sec
 * total energy  :  -134.5681758 Eh     change       -0.2670401E-03 Eh
   gradient norm :     0.0059842 Eh/α   predicted    -0.2063616E-03 ( -22.72%)
   displ. norm   :     0.1132672 α      lambda       -0.2034891E-03
   maximum displ.:     0.0522863 α      in ANC's #11, #10, #18, ...

........................................................................
.............................. CYCLE    5 ..............................
........................................................................

 iter      E             dE          RMSdq      gap      omega  full diag
   1   -136.8076293 -0.136808E+03  0.650E-02    0.20       0.0  T
   2   -136.7795021  0.281272E-01  0.450E-01    0.26       1.0  T
   3   -136.8080116 -0.285095E-01  0.233E-02    0.21       1.0  T
   4   -136.8079346  0.770035E-04  0.299E-02    0.20       1.0  T
   5   -136.8080039 -0.693208E-04  0.137E-02    0.20       1.0  T
   6   -136.8080246 -0.206564E-04  0.493E-03    0.21       2.4  T
   7   -136.8080280 -0.339635E-05  0.118E-03    0.21      10.0  T
   8   -136.8080281 -0.115564E-06  0.586E-04    0.21      20.1  T
   9   -136.8080281 -0.344863E-07  0.227E-04    0.21      51.9  T
     SCC iter.                  ...        0 min,  0.127 sec
     gradient                   ...        0 min,  0.046 sec
 * total energy  :  -134.5683008 Eh     change       -0.1250670E-03 Eh
   gradient norm :     0.0028786 Eh/α   predicted    -0.1030529E-03 ( -17.60%)
   displ. norm   :     0.0885530 α      lambda       -0.8082743E-04
   maximum displ.:     0.0409552 α      in ANC's #10, #3, #7, ...

........................................................................
.............................. CYCLE    6 ..............................
........................................................................

 iter      E             dE          RMSdq      gap      omega  full diag
   1   -136.8046091 -0.136805E+03  0.390E-02    0.20       0.0  T
   2   -136.7939516  0.106575E-01  0.276E-01    0.23       1.0  T
   3   -136.8046969 -0.107453E-01  0.212E-02    0.20       1.0  T
   4   -136.8046874  0.954126E-05  0.200E-02    0.20       1.0  T
   5   -136.8047228 -0.354811E-04  0.715E-03    0.20       1.6  T
   6   -136.8047281 -0.522913E-05  0.294E-03    0.20       4.0  T
   7   -136.8047293 -0.121958E-05  0.701E-04    0.20      16.8  T
   8   -136.8047293 -0.500176E-07  0.372E-04    0.20      31.7  T
   9   -136.8047294 -0.120828E-07  0.165E-04    0.20      71.3  T
     SCC iter.                  ...        0 min,  0.134 sec
     gradient                   ...        0 min,  0.048 sec
 * total energy  :  -134.5683571 Eh     change       -0.5630276E-04 Eh
   gradient norm :     0.0028391 Eh/α   predicted    -0.4074832E-04 ( -27.63%)
   displ. norm   :     0.1094269 α      lambda       -0.6322037E-04
   maximum displ.:     0.0491224 α      in ANC's #10, #3, #7, ...

........................................................................
.............................. CYCLE    7 ..............................
........................................................................

 iter      E             dE          RMSdq      gap      omega  full diag
   1   -136.8026262 -0.136803E+03  0.359E-02    0.20       0.0  T
   2   -136.7962740  0.635224E-02  0.213E-01    0.22       1.0  T
   3   -136.8025998 -0.632584E-02  0.308E-02    0.20       1.0  T
   4   -136.8026394 -0.395701E-04  0.228E-02    0.20       1.0  T
   5   -136.8026883 -0.488439E-04  0.700E-03    0.20       1.7  T
   6   -136.8026939 -0.563509E-05  0.216E-03    0.20       5.4  T
   7   -136.8026945 -0.604533E-06  0.766E-04    0.20      15.4  T
   8   -136.8026946 -0.697375E-07  0.310E-04    0.20      38.0  T
     SCC iter.                  ...        0 min,  0.117 sec
     gradient                   ...        0 min,  0.044 sec
 * total energy  :  -134.5684021 Eh     change       -0.4496949E-04 Eh
   gradient norm :     0.0025749 Eh/α   predicted    -0.3199179E-04 ( -28.86%)
   displ. norm   :     0.1166351 α      lambda       -0.4725728E-04
   maximum displ.:     0.0560302 α      in ANC's #3, #6, #7, ...

........................................................................
.............................. CYCLE    8 ..............................
........................................................................

 iter      E             dE          RMSdq      gap      omega  full diag
   1   -136.8027942 -0.136803E+03  0.294E-02    0.20       0.0  T
   2   -136.8014457  0.134852E-02  0.990E-02    0.20       1.0  T
   3   -136.8025427 -0.109706E-02  0.464E-02    0.20       1.0  T
   4   -136.8027506 -0.207905E-03  0.227E-02    0.20       1.0  T
   5   -136.8028064 -0.557242E-04  0.513E-03    0.20       2.3  T
   6   -136.8028093 -0.294159E-05  0.132E-03    0.20       8.9  T
   7   -136.8028095 -0.175005E-06  0.674E-04    0.20      17.5  T
   8   -136.8028095 -0.569015E-07  0.218E-04    0.20      54.0  T
     SCC iter.                  ...        0 min,  0.120 sec
     gradient                   ...        0 min,  0.054 sec
 * total energy  :  -134.5684362 Eh     change       -0.3411225E-04 Eh
   gradient norm :     0.0021087 Eh/α   predicted    -0.2395178E-04 ( -29.79%)
   displ. norm   :     0.1119891 α      lambda       -0.3440584E-04
   maximum displ.:     0.0567778 α      in ANC's #3, #6, #7, ...

........................................................................
.............................. CYCLE    9 ..............................
........................................................................

 iter      E             dE          RMSdq      gap      omega  full diag
   1   -136.8041255 -0.136804E+03  0.248E-02    0.20       0.0  T
   2   -136.8040814  0.440826E-04  0.235E-02    0.20       1.0  T
   3   -136.8028957  0.118568E-02  0.932E-02    0.20       1.0  T
   4   -136.8040660 -0.117027E-02  0.229E-02    0.20       1.0  T
   5   -136.8041261 -0.600944E-04  0.332E-03    0.20       3.6  T
   6   -136.8041273 -0.122168E-05  0.648E-04    0.20      18.2  T
   7   -136.8041273  0.410222E-08  0.582E-04    0.20      20.3  T
   8   -136.8041274 -0.446613E-07  0.155E-04    0.20      76.0  T
     SCC iter.                  ...        0 min,  0.112 sec
     gradient                   ...        0 min,  0.051 sec
 * total energy  :  -134.5684611 Eh     change       -0.2489352E-04 Eh
   gradient norm :     0.0016384 Eh/α   predicted    -0.1741955E-04 ( -30.02%)
   displ. norm   :     0.1434045 α      lambda       -0.2272899E-04
   maximum displ.:     0.0747002 α      in ANC's #3, #6, #1, ...

........................................................................
.............................. CYCLE   10 ..............................
........................................................................

 iter      E             dE          RMSdq      gap      omega  full diag
   1   -136.8060299 -0.136806E+03  0.318E-02    0.20       0.0  T
   2   -136.8036644  0.236548E-02  0.131E-01    0.20       1.0  T
   3   -136.8060063 -0.234189E-02  0.244E-02    0.20       1.0  T
   4   -136.8060021  0.417524E-05  0.199E-02    0.20       1.0  T
   5   -136.8060506 -0.484637E-04  0.337E-03    0.20       3.5  T
   6   -136.8060518 -0.121019E-05  0.819E-04    0.20      14.4  T
   7   -136.8060518 -0.377975E-07  0.457E-04    0.20      25.8  T
   8   -136.8060519 -0.194938E-07  0.196E-04    0.20      60.2  T
     SCC iter.                  ...        0 min,  0.122 sec
     gradient                   ...        0 min,  0.049 sec
 * total energy  :  -134.5684810 Eh     change       -0.1989149E-04 Eh
   gradient norm :     0.0013510 Eh/α   predicted    -0.1146965E-04 ( -42.34%)
   displ. norm   :     0.0513073 α      lambda       -0.8225149E-05
   maximum displ.:     0.0318587 α      in ANC's #1, #3, #6, ...

........................................................................
.............................. CYCLE   11 ..............................
........................................................................

 iter      E             dE          RMSdq      gap      omega  full diag
   1   -136.8058721 -0.136806E+03  0.116E-02    0.20       0.0  T
   2   -136.8053417  0.530374E-03  0.617E-02    0.20       1.0  T
   3   -136.8058723 -0.530583E-03  0.801E-03    0.20       1.5  T
   4   -136.8058764 -0.405539E-05  0.245E-03    0.20       4.8  T
   5   -136.8058768 -0.478771E-06  0.622E-04    0.20      18.9  T
   6   -136.8058769 -0.293449E-07  0.363E-04    0.20      32.5  T
     SCC iter.                  ...        0 min,  0.085 sec
     gradient                   ...        0 min,  0.048 sec
 * total energy  :  -134.5684907 Eh     change       -0.9683523E-05 Eh
   gradient norm :     0.0008173 Eh/α   predicted    -0.4118576E-05 ( -57.47%)
   displ. norm   :     0.0655391 α      lambda       -0.8321419E-05
   maximum displ.:     0.0450283 α      in ANC's #1, #3, #2, ...

........................................................................
.............................. CYCLE   12 ..............................
........................................................................

 iter      E             dE          RMSdq      gap      omega  full diag
   1   -136.8053027 -0.136805E+03  0.132E-02    0.20       0.0  T
   2   -136.8050178  0.284836E-03  0.457E-02    0.20       1.0  T
   3   -136.8052847 -0.266906E-03  0.138E-02    0.20       1.0  T
   4   -136.8053039 -0.191862E-04  0.370E-03    0.20       3.2  T
   5   -136.8053050 -0.111017E-05  0.152E-03    0.20       7.8  T
   6   -136.8053053 -0.265160E-06  0.358E-04    0.20      32.9  T
   7   -136.8053053 -0.141005E-07  0.136E-04    0.20      86.4  T
     SCC iter.                  ...        0 min,  0.106 sec
     gradient                   ...        0 min,  0.053 sec
 * total energy  :  -134.5684998 Eh     change       -0.9151387E-05 Eh
   gradient norm :     0.0007490 Eh/α   predicted    -0.4171242E-05 ( -54.42%)
   displ. norm   :     0.0593647 α      lambda       -0.5164826E-05
   maximum displ.:     0.0429701 α      in ANC's #1, #3, #2, ...

........................................................................
.............................. CYCLE   13 ..............................
........................................................................

 iter      E             dE          RMSdq      gap      omega  full diag
   1   -136.8049171 -0.136805E+03  0.111E-02    0.20       0.0  T
   2   -136.8047880  0.129054E-03  0.308E-02    0.20       1.0  T
   3   -136.8048753 -0.872908E-04  0.185E-02    0.20       1.0  T
   4   -136.8049152 -0.399313E-04  0.515E-03    0.20       2.3  T
   5   -136.8049181 -0.288469E-05  0.134E-03    0.20       8.8  T
   6   -136.8049183 -0.192715E-06  0.386E-04    0.20      30.6  T
   7   -136.8049183 -0.203954E-07  0.102E-04    0.20     116.0  T
     SCC iter.                  ...        0 min,  0.100 sec
     gradient                   ...        0 min,  0.045 sec
 * total energy  :  -134.5685060 Eh     change       -0.6174442E-05 Eh
   gradient norm :     0.0007965 Eh/α   predicted    -0.2589641E-05 ( -58.06%)
   displ. norm   :     0.0558418 α      lambda       -0.4728484E-05
   maximum displ.:     0.0416444 α      in ANC's #1, #3, #2, ...

........................................................................
.............................. CYCLE   14 ..............................
........................................................................

 iter      E             dE          RMSdq      gap      omega  full diag
   1   -136.8048992 -0.136805E+03  0.122E-02    0.20       0.0  T
   2   -136.8042032  0.695994E-03  0.704E-02    0.20       1.0  T
   3   -136.8048911 -0.687904E-03  0.117E-02    0.20       1.0  T
   4   -136.8049025 -0.114284E-04  0.510E-03    0.20       2.3  T
   5   -136.8049054 -0.282985E-05  0.153E-03    0.20       7.7  T
   6   -136.8049056 -0.239633E-06  0.521E-04    0.20      22.6  T
   7   -136.8049056 -0.325661E-07  0.164E-04    0.20      71.8  T
     SCC iter.                  ...        0 min,  0.102 sec
     gradient                   ...        0 min,  0.043 sec
 * total energy  :  -134.5685118 Eh     change       -0.5835905E-05 Eh
   gradient norm :     0.0006321 Eh/α   predicted    -0.2368097E-05 ( -59.42%)
   displ. norm   :     0.0538051 α      lambda       -0.4254686E-05
   maximum displ.:     0.0417098 α      in ANC's #1, #2, #3, ...

........................................................................
.............................. CYCLE   15 ..............................
........................................................................

 iter      E             dE          RMSdq      gap      omega  full diag
   1   -136.8049620 -0.136805E+03  0.121E-02    0.20       0.0  T
   2   -136.8041969  0.765165E-03  0.738E-02    0.20       1.0  T
   3   -136.8049553 -0.758437E-03  0.114E-02    0.20       1.0  T
   4   -136.8049649 -0.962921E-05  0.594E-03    0.20       2.0  T
   5   -136.8049688 -0.389474E-05  0.160E-03    0.20       7.4  T
   6   -136.8049691 -0.258549E-06  0.563E-04    0.20      20.9  T
   7   -136.8049691 -0.381917E-07  0.199E-04    0.20      59.3  T
     SCC iter.                  ...        0 min,  0.100 sec
     gradient                   ...        0 min,  0.054 sec
 * total energy  :  -134.5685171 Eh     change       -0.5216717E-05 Eh
   gradient norm :     0.0003535 Eh/α   predicted    -0.2132028E-05 ( -59.13%)
   displ. norm   :     0.0414892 α      lambda       -0.2662529E-05
   maximum displ.:     0.0337655 α      in ANC's #1, #2, #3, ...

........................................................................
.............................. CYCLE   16 ..............................
........................................................................

 iter      E             dE          RMSdq      gap      omega  full diag
   1   -136.8051451 -0.136805E+03  0.922E-03    0.20       0.0  T
   2   -136.8046285  0.516570E-03  0.606E-02    0.20       1.0  T
   3   -136.8051431 -0.514618E-03  0.803E-03    0.20       1.5  T
   4   -136.8051487 -0.556240E-05  0.310E-03    0.20       3.8  T
   5   -136.8051496 -0.931435E-06  0.121E-03    0.20       9.7  T
   6   -136.8051497 -0.150557E-06  0.423E-04    0.20      27.9  T
   7   -136.8051498 -0.221584E-07  0.162E-04    0.20      72.9  T
     SCC iter.                  ...        0 min,  0.101 sec
     gradient                   ...        0 min,  0.044 sec
 * total energy  :  -134.5685205 Eh     change       -0.3402522E-05 Eh
   gradient norm :     0.0003271 Eh/α   predicted    -0.1333880E-05 ( -60.80%)
   displ. norm   :     0.0274634 α      lambda       -0.1704966E-05
   maximum displ.:     0.0241368 α      in ANC's #1, #2, #8, ...

   *** GEOMETRY OPTIMIZATION CONVERGED AFTER 16 ITERATIONS ***

------------------------------------------------------------------------
 total energy gain   :        -0.0110546 Eh       -6.9369 kcal/mol
 total RMSD          :         0.1408636 a0        0.0745 Å
 total power (kW/mol):        -1.8139970 (step)   -9.9533 (real)
------------------------------------------------------------------------

 ANCopt (total)                0 d,  0 h,  0 min,  2.916 sec
 optimizer setup                ...        0 min,  0.000 sec (  0.000%)
 model hessian                  ...        0 min,  0.039 sec (  1.337%)
 ANC generation                 ...        0 min,  0.008 sec (  0.274%)
 coordinate transformation      ...        0 min,  0.002 sec (  0.069%)
 single point calculation       ...        0 min,  2.843 sec ( 97.497%)
 optimization log               ...        0 min,  0.018 sec (  0.617%)
 hessian update                 ...        0 min,  0.000 sec (  0.000%)
 rational function              ...        0 min,  0.003 sec (  0.103%)

================
 final structure:
================
72
 xtb: 6.7.1pre (5071a88)
C            5.78121575499224       -3.34645700945703       -0.31903905195650
C            0.98662292451264       -4.88061530954850       -0.28189310324049
C            5.12508034607724       -4.51350343293122       -0.35630157730930
C            3.03585842913354       -3.49905548445017       -0.19293881649943
C            5.04703492272465       -2.11312757314957       -0.17467895429478
C           -4.67558750231396       -4.97012387929534       -0.01299318104333
C           -0.37496799835885       -4.94615150678023       -0.16279235414111
C           -0.96887529025640        4.85750390904253       -0.24882755766513
C           -2.56557768244256       -3.74314736474522        0.06738984427687
C           -4.73938717111166       -2.59463261866762        0.19543135899307
C            3.32673388112379        2.59071502550602        0.26018696404654
C            1.18887612740866        3.75799984325947        0.01548224020435
C            1.65010962452393       -3.61974395040779       -0.23052511497933
C           -2.75378730696063       -1.28216155483820        0.60082103337224
C            5.48743733278272        3.83622679896335        0.14722583253069
C           -4.91578686687383       -0.24480743351679        0.12372468491090
C            3.36584503196914        4.98650097341900       -0.03449063757933
C            3.63473962387506       -2.23211374024892       -0.08971566059024
C           -5.10214632896183        2.13771177483571       -0.19394599356081
C            1.39594550802674       -1.18703659678430        0.11731944116529
C           -0.75491108802187        0.04511821388313        0.57471611503560
C           -2.91000860013989        1.12772310584929        0.20249747920509
C            5.64341428189874       -0.87090516229326       -0.11941141947520
C           -3.05662113040148        3.51480905536327       -0.20033735283020
C            3.46733451947261        0.16528941530358        0.17704716796178
C           -5.12869501284315        4.51949015061695       -0.54193832458452
C            1.27160178911063        1.28942707720970        0.19908121376681
C           -0.87799843038912        2.45364648207520        0.08057295990316
C           -3.30704398276480       -4.94775140200764       -0.04055039964769
C            4.85722831515908        0.26842052375494        0.05559758213059
C            2.68925468418031        1.37731675461290        0.20405965802804
C            0.53578502394082        2.51494799684677        0.12770511634047
C           -1.65435390940182        3.62574138199772       -0.12834121641800
C           -1.15143732217980       -3.77659122982366       -0.15622456056258
C           -3.33135418496952       -2.55666444839352        0.32104595562663
C            4.79743219051222        2.58569318305909        0.58422322120391
C            2.62977782443817        3.82201654523086        0.09737186837960
C            0.39061586745066        4.91201054836064       -0.16761833479351
C            0.84352082816413       -2.44805331631843       -0.16512422372760
C           -1.43945141244510       -1.09574195690584        1.00361657168485
C           -3.53574497161054       -0.13089344558797        0.29180126676964
C            4.78368245831998        4.95746692235120       -0.08749278673037
C           -5.69751921580968        0.88932363106208       -0.10876236361294
C            2.82362569841545       -1.08638347980449        0.08582295156944
C           -5.80979449403196        3.36649058148123       -0.44051864397476
C            0.64457586159462        0.04394705539150        0.32486899048317
C           -1.50983165791513        1.21265147119569        0.27343124387110
C           -3.69186003857883        2.27315364831364       -0.05462769314393
H            6.85536079985845       -3.32000567931637       -0.38520512060087
H           -1.54686434219112        5.75675076411692       -0.39721720719308
H            6.56139873920567        3.79135593144789        0.07408236675123
H            2.88089253005969        5.93727319691398       -0.17873337053365
H            6.71199485482164       -0.76223504914019       -0.21162901586407
H           -5.59594049301519        5.47600562737849       -0.72504688927600
H            0.87110490506134        5.87333256857189       -0.25402953793456
H            5.29900471163170        5.87150796419906       -0.34578945114451
H            1.58712667078244       -5.77402409223101       -0.31948458512091
H            5.60728355060574       -5.47569223672256       -0.44761069153424
H           -5.19690305784980       -5.91170269836089       -0.09587710917166
H           -0.84437295703606       -5.90675403890499       -0.04800934293030
H           -2.78896618273342       -5.88051693299119       -0.18355130812483
H           -6.76462677329319        0.78155108596696       -0.22012414880260
H           -6.88155954144329        3.35804693610461       -0.54432259369089
C           -5.41419364695178       -3.78964273365625        0.05816997239676
H           -6.49027878902570       -3.79103592192161        0.00697405178735
H            4.89109517441431        2.51114534781673        1.69585809200177
O           -5.51335118521630       -1.45875770166348        0.22265472169460
O           -3.79135595047938        4.64231250813343       -0.44108905096985
O           -0.48484980006169       -2.59573232350251       -0.42635308878605
O            3.78625313618543       -4.64158279304625       -0.29362044139204
O            5.49796817570830        1.46057974963123        0.04830832733578
H           -0.92590178006285       -1.85800765185425        1.56856398200364
 
 Bond Distances (Angstroems)
 ---------------------------
C1-C3=1.3394         C1-C5=1.4426         C1-H49=1.0765        C2-C7=1.3684         C2-C13=1.4257        C2-H57=1.0771        
C3-C1=1.3394         C3-H58=1.0801        C3-O70=1.3464        C4-C13=1.3915        C4-C18=1.4052        C4-O70=1.3706        
C5-C1=1.4426         C5-C18=1.4198        C5-C23=1.3791        C6-C29=1.3690        C6-H59=1.0794        C6-C64=1.3943        
C7-C2=1.3684         C7-C34=1.4039        C7-H60=1.0753        C8-C33=1.4148        C8-C38=1.3630        C8-H50=1.0792        
C9-C29=1.4186        C9-C34=1.4321        C9-C35=1.4347        C10-C35=1.4141       C10-C64=1.3792       C10-O67=1.3748       
C11-C31=1.3718       C11-C36=1.5060       C11-C37=1.4242       C12-C32=1.4087       C12-C37=1.4446       C12-C38=1.4151       
C13-C2=1.4257        C13-C4=1.3915        C13-C39=1.4240       C14-C35=1.4270       C14-C40=1.3873       C14-C41=1.4256       
C15-C36=1.4936       C15-C42=1.3444       C15-H51=1.0774       C16-C41=1.3949       C16-C43=1.3969       C16-O67=1.3567       
C17-C37=1.3839       C17-C42=1.4191       C17-H52=1.0770       C18-C4=1.4052        C18-C5=1.4198        C18-C44=1.4147       
C19-C43=1.3857       C19-C45=1.4393       C19-C48=1.4236       C20-C39=1.4054       C20-C44=1.4316       C20-C46=1.4570       
C21-C40=1.3979       C21-C46=1.4216       C21-C47=1.4226       C22-C41=1.4084       C22-C47=1.4045       C22-C48=1.4105       
C23-C5=1.3791        C23-C30=1.3953       C23-H53=1.0780       C24-C33=1.4085       C24-C48=1.4023       C24-O68=1.3671       
C25-C30=1.3990       C25-C31=1.4405       C25-C44=1.4104       C26-C45=1.3430       C26-H54=1.0802       C26-O68=1.3467       
C27-C31=1.4204       C27-C32=1.4312       C27-C46=1.4001       C28-C32=1.4159       C28-C33=1.4213       C28-C47=1.4059       
C29-C6=1.3690        C29-C9=1.4186        C29-H61=1.0765       C30-C23=1.3953       C30-C25=1.3990       C30-O71=1.3535       
C31-C11=1.3718       C31-C25=1.4405       C31-C27=1.4204       C32-C12=1.4087       C32-C27=1.4312       C32-C28=1.4159       
C33-C8=1.4148        C33-C24=1.4085       C33-C28=1.4213       C34-C7=1.4039        C34-C9=1.4321        C34-O69=1.3827       
C35-C9=1.4347        C35-C10=1.4141       C35-C14=1.4270       C36-C11=1.5060       C36-C15=1.4936       C36-H66=1.1181       
C36-O71=1.4296       C37-C11=1.4242       C37-C12=1.4446       C37-C17=1.3839       C38-C8=1.3630        C38-C12=1.4151       
C38-H55=1.0782       C39-C13=1.4240       C39-C20=1.4054       C39-O69=1.3618       C40-C14=1.3873       C40-C21=1.3979       
C40-H72=1.0789       C41-C14=1.4256       C41-C16=1.3949       C41-C22=1.4084       C42-C15=1.3444       C42-C17=1.4191       
C42-H56=1.0806       C43-C16=1.3969       C43-C19=1.3857       C43-H62=1.0783       C44-C18=1.4147       C44-C20=1.4316       
C44-C25=1.4104       C45-C19=1.4393       C45-C26=1.3430       C45-H63=1.0768       C46-C20=1.4570       C46-C21=1.4216       
C46-C27=1.4001       C47-C21=1.4226       C47-C22=1.4045       C47-C28=1.4059       C48-C19=1.4236       C48-C22=1.4105       
C48-C24=1.4023       H49-C1=1.0765        H50-C8=1.0792        H51-C15=1.0774       H52-C17=1.0770       H53-C23=1.0780       
H54-C26=1.0802       H55-C38=1.0782       H56-C42=1.0806       H57-C2=1.0771        H58-C3=1.0801        H59-C6=1.0794        
H60-C7=1.0753        H61-C29=1.0765       H62-C43=1.0783       H63-C45=1.0768       C64-C6=1.3943        C64-C10=1.3792       
C64-H65=1.0773       H65-C64=1.0773       H66-C36=1.1181       O67-C10=1.3748       O67-C16=1.3567       O68-C24=1.3671       
O68-C26=1.3467       O69-C34=1.3827       O69-C39=1.3618       O70-C3=1.3464        O70-C4=1.3706        O71-C30=1.3535       
O71-C36=1.4296       H72-C40=1.0789       
 C  H  Rav=1.0803 sigma=0.0093  Rmin=1.0753  Rmax=1.1181    18
 C  C  Rav=1.4097 sigma=0.0297  Rmin=1.3394  Rmax=1.5060    60
 O  C  Rav=1.3690 sigma=0.0231  Rmin=1.3464  Rmax=1.4296    10
 
 selected bond angles (degree)
 --------------------
C5-C1-C3=119.90                H49-C1-C3=120.56               H49-C1-C5=119.54               C13-C2-C7=120.15               
H57-C2-C7=121.20               H57-C2-C13=118.38              H58-C3-C1=124.05               O70-C3-C1=124.66               
O70-C3-H58=111.29              C18-C4-C13=120.31              O70-C4-C13=118.10              O70-C4-C18=121.58              
C18-C5-C1=116.14               C23-C5-C1=123.64               C23-C5-C18=120.21              H59-C6-C29=119.70              
C64-C6-C29=121.11              C64-C6-H59=119.12              C34-C7-C2=120.72               H60-C7-C2=119.11               
H60-C7-C34=120.15              C38-C8-C33=120.86              H50-C8-C33=118.53              H50-C8-C38=120.60              
C34-C9-C29=118.97              C35-C9-C29=115.89              C35-C9-C34=125.03              C64-C10-C35=121.28             
O67-C10-C35=122.45             O67-C10-C64=116.26             
 
 selected dihedral angles (degree)
 ---------------------------------
H58-C3-C1-C5=180.93           H58-C3-C1-H49=  0.26          O70-C3-C1-C5=  1.36           O70-C3-C1-H49=180.69          
C18-C5-C1-C3=359.55           C18-C5-C1-H49=180.21          C23-C5-C1-C3=179.60           C23-C5-C1-H49=  0.26          
C34-C7-C2-C13=  7.97          C34-C7-C2-H57=181.98          H60-C7-C2-C13=189.56          H60-C7-C2-H57=  3.56          
           -------------------------------------------------
          |                Final Singlepoint                |
           -------------------------------------------------

          ...................................................
          :                      SETUP                      :
          :.................................................:
          :  # basis functions                 234          :
          :  # atomic orbitals                 234          :
          :  # shells                          126          :
          :  # electrons                       244          :
          :  max. iterations                   250          :
          :  Hamiltonian                  GFN2-xTB          :
          :  restarted?                      false          :
          :  GBSA solvation                  false          :
          :  PC potential                    false          :
          :  electronic temp.          300.0000000     K    :
          :  accuracy                    1.0000000          :
          :  -> integral cutoff          0.2500000E+02      :
          :  -> integral neglect         0.1000000E-07      :
          :  -> SCF convergence          0.1000000E-05 Eh   :
          :  -> wf. convergence          0.1000000E-03 e    :
          :  Broyden damping             0.4000000          :
          :  net charge                          0          :
          :  unpaired electrons                  0          :
          ...................................................

 iter      E             dE          RMSdq      gap      omega  full diag
   1   -136.8051498 -0.136805E+03  0.393E-05    0.20       0.0  T
   2   -136.8051498  0.942438E-08  0.257E-04    0.20      45.9  T
   3   -136.8051498 -0.949356E-08  0.258E-05    0.20     456.2  T

   *** convergence criteria satisfied after 3 iterations ***

         #    Occupation            Energy/Eh            Energy/eV
      -------------------------------------------------------------
         1        2.0000           -0.7488052             -20.3760
       ...           ...                  ...                  ...
       116        2.0000           -0.3928136             -10.6890
       117        2.0000           -0.3849714             -10.4756
       118        2.0000           -0.3822496             -10.4015
       119        2.0000           -0.3699466             -10.0668
       120        2.0000           -0.3620017              -9.8506
       121        2.0000           -0.3304605              -8.9923
       122        1.9566           -0.3137845              -8.5385 (HOMO)
       123        0.0434           -0.3065479              -8.3416 (LUMO)
       124                         -0.2853897              -7.7658
       125                         -0.2673544              -7.2751
       126                         -0.2590215              -7.0483
       127                         -0.2517438              -6.8503
       ...                                ...                  ...
       234                          0.7528979              20.4874
      -------------------------------------------------------------
                  HL-Gap            0.0072367 Eh            0.1969 eV
             Fermi-level           -0.3101662 Eh           -8.4401 eV

 SCC (total)                   0 d,  0 h,  0 min,  0.100 sec
 SCC setup                      ...        0 min,  0.001 sec (  1.000%)
 Dispersion                     ...        0 min,  0.001 sec (  1.000%)
 classical contributions        ...        0 min,  0.000 sec (  0.000%)
 integral evaluation            ...        0 min,  0.012 sec ( 12.000%)
 iterations                     ...        0 min,  0.044 sec ( 44.000%)
 molecular gradient             ...        0 min,  0.041 sec ( 41.000%)
 printout                       ...        0 min,  0.001 sec (  1.000%)

         :::::::::::::::::::::::::::::::::::::::::::::::::::::
         ::                     SUMMARY                     ::
         :::::::::::::::::::::::::::::::::::::::::::::::::::::
         :: total energy            -134.568520465769 Eh    ::
         :: gradient norm              0.000332612587 Eh/a0 ::
         :: HOMO-LUMO gap              0.196920459482 eV    ::
         ::.................................................::
         :: SCC energy              -136.806530005970 Eh    ::
         :: -> isotropic ES            0.057408853157 Eh    ::
         :: -> anisotropic ES          0.008681025052 Eh    ::
         :: -> anisotropic XC          0.035227706023 Eh    ::
         :: -> dispersion             -0.131185693291 Eh    ::
         :: repulsion energy           2.238009540200 Eh    ::
         :: add. restraining           0.000000000000 Eh    ::
         :: total charge               0.000000001047 e     ::
         :::::::::::::::::::::::::::::::::::::::::::::::::::::

           -------------------------------------------------
          |                Property Printout                |
           -------------------------------------------------

    * Orbital Energies and Occupations

         #    Occupation            Energy/Eh            Energy/eV
      -------------------------------------------------------------
         1        2.0000           -0.7488052             -20.3760
       ...           ...                  ...                  ...
       110        2.0000           -0.4167839             -11.3413
       111        2.0000           -0.4113150             -11.1925
       112        2.0000           -0.4076740             -11.0934
       113        2.0000           -0.4035601             -10.9814
       114        2.0000           -0.3991595             -10.8617
       115        2.0000           -0.3958019             -10.7703
       116        2.0000           -0.3928136             -10.6890
       117        2.0000           -0.3849714             -10.4756
       118        2.0000           -0.3822496             -10.4015
       119        2.0000           -0.3699466             -10.0668
       120        2.0000           -0.3620017              -9.8506
       121        2.0000           -0.3304605              -8.9923
       122        1.9566           -0.3137845              -8.5385 (HOMO)
       123        0.0434           -0.3065479              -8.3416 (LUMO)
       124                         -0.2853897              -7.7658
       125                         -0.2673544              -7.2751
       126                         -0.2590215              -7.0483
       127                         -0.2517438              -6.8503
       128                         -0.2464496              -6.7062
       129                         -0.2402239              -6.5368
       130                         -0.2293257              -6.2403
       131                         -0.2199902              -5.9862
       132                         -0.2100306              -5.7152
       133                         -0.2070794              -5.6349
       ...                                ...                  ...
       234                          0.7528979              20.4874
      -------------------------------------------------------------
                  HL-Gap            0.0072367 Eh            0.1969 eV
             Fermi-level           -0.3101662 Eh           -8.4401 eV

     #   Z          covCN         q      C6AA      α(0)
     1   6 C        2.903    -0.065    29.611     8.922
     2   6 C        2.916    -0.036    28.893     8.814
     3   6 C        2.815     0.099    25.797     8.322
     4   6 C        2.889     0.117    25.417     8.266
     5   6 C        2.987     0.019    27.576     8.614
     6   6 C        2.916    -0.033    28.820     8.803
     7   6 C        2.903    -0.053    29.311     8.877
     8   6 C        2.913    -0.035    28.861     8.809
     9   6 C        2.962    -0.013    28.341     8.732
    10   6 C        2.882     0.135    25.048     8.205
    11   6 C        2.985    -0.022    28.556     8.766
    12   6 C        2.976     0.004    27.931     8.669
    13   6 C        2.972    -0.033    28.813     8.805
    14   6 C        2.990     0.008    27.842     8.655
    15   6 C        2.901    -0.051    29.263     8.870
    16   6 C        2.876     0.140    24.941     8.187
    17   6 C        2.916    -0.049    29.220     8.864
    18   6 C        2.993    -0.021    28.525     8.761
    19   6 C        2.984     0.018    27.591     8.616
    20   6 C        2.964    -0.030    28.754     8.796
    21   6 C        2.991     0.010    27.784     8.647
    22   6 C        3.001    -0.005    28.124     8.699
    23   6 C        2.916    -0.072    29.795     8.951
    24   6 C        2.887     0.126    25.239     8.236
    25   6 C        2.988    -0.031    28.763     8.797
    26   6 C        2.815     0.099    25.801     8.322
    27   6 C        2.991    -0.002    28.061     8.689
    28   6 C        2.997     0.001    27.982     8.677
    29   6 C        2.922    -0.053    29.308     8.878
    30   6 C        2.871     0.146    24.833     8.169
    31   6 C        2.991     0.000    28.018     8.683
    32   6 C        2.992     0.002    27.976     8.676
    33   6 C        2.977    -0.014    28.351     8.734
    34   6 C        2.853     0.117    25.419     8.263
    35   6 C        2.980    -0.011    28.276     8.723
    36   6 C        3.760     0.124    18.610     6.150
    37   6 C        2.969     0.004    27.930     8.669
    38   6 C        2.916    -0.036    28.888     8.814
    39   6 C        2.866     0.133    25.090     8.211
    40   6 C        2.928    -0.021    28.542     8.761
    41   6 C        2.998    -0.018    28.450     8.750
    42   6 C        2.902    -0.033    28.813     8.801
    43   6 C        2.913    -0.073    29.824     8.955
    44   6 C        2.992    -0.003    28.082     8.693
    45   6 C        2.904    -0.062    29.538     8.911
    46   6 C        2.976     0.003    27.950     8.672
    47   6 C        2.999    -0.006    28.162     8.705
    48   6 C        2.992    -0.015    28.372     8.737
    49   1 H        0.926     0.050     2.321     2.383
    50   1 H        0.926     0.041     2.434     2.440
    51   1 H        0.926     0.045     2.385     2.415
    52   1 H        0.926     0.032     2.554     2.499
    53   1 H        0.926     0.050     2.324     2.384
    54   1 H        0.926     0.058     2.217     2.328
    55   1 H        0.926     0.037     2.487     2.466
    56   1 H        0.926     0.035     2.518     2.482
    57   1 H        0.926     0.043     2.413     2.429
    58   1 H        0.926     0.056     2.243     2.342
    59   1 H        0.926     0.037     2.491     2.468
    60   1 H        0.926     0.044     2.401     2.423
    61   1 H        0.926     0.035     2.517     2.481
    62   1 H        0.926     0.050     2.325     2.384
    63   1 H        0.926     0.051     2.306     2.375
    64   6 C        2.914    -0.067    29.673     8.932
    65   1 H        0.926     0.045     2.389     2.417
    66   1 H        0.920     0.025     2.662     2.552
    67   8 O        1.709    -0.230    17.805     5.697
    68   8 O        1.708    -0.195    17.248     5.607
    69   8 O        1.712    -0.219    17.635     5.670
    70   8 O        1.709    -0.201    17.356     5.625
    71   8 O        1.704    -0.272    18.503     5.808
    72   1 H        0.926     0.040     2.454     2.450

 Mol. C6AA /au·bohr⁶  :      94069.265670
 Mol. C8AA /au·bohr⁸  :    2489969.268435
 Mol. α(0) /au        :        494.385717


Wiberg/Mayer (AO) data.
largest (>0.10) Wiberg bond orders for each atom

 ---------------------------------------------------------------------------
     #   Z sym  total        # sym  WBO       # sym  WBO       # sym  WBO
 ---------------------------------------------------------------------------
     1   6 C    3.965 --     3 C    1.712     5 C    1.134    49 H    0.966
     2   6 C    3.806 --     7 C    1.526    13 C    1.200    57 H    0.968
     3   6 C    3.912 --     1 C    1.712    70 O    1.100    58 H    0.958
     4   6 C    3.836 --    13 C    1.323    18 C    1.267    70 O    1.035
     5   6 C    3.950 --    23 C    1.425    18 C    1.227     1 C    1.134
     6   6 C    3.968 --    29 C    1.525    64 C    1.349    59 H    0.970
     7   6 C    3.965 --     2 C    1.526    34 C    1.312    60 H    0.959
     8   6 C    3.935 --    38 C    1.575    33 C    1.246    50 H    0.968
     9   6 C    3.949 --    29 C    1.276    34 C    1.229    35 C    1.226
    10   6 C    3.912 --    64 C    1.417    35 C    1.279    67 O    1.030
    11   6 C    3.900 --    31 C    1.466    37 C    1.214    36 C    0.988
    12   6 C    3.911 --    32 C    1.312    38 C    1.271    37 C    1.149
    13   6 C    3.967 --     4 C    1.323    39 C    1.218     2 C    1.200
    14   6 C    3.949 --    40 C    1.372    35 C    1.187    41 C    1.177
    15   6 C    3.832 --    42 C    1.713    36 C    1.013    51 H    0.968
    16   6 C    3.882 --    43 C    1.334    41 C    1.303    67 O    1.066
    17   6 C    3.759 --    37 C    1.433    42 C    1.235    52 H    0.965
    18   6 C    3.978 --     4 C    1.267    44 C    1.250     5 C    1.227
    19   6 C    3.930 --    43 C    1.414    48 C    1.213    45 C    1.149
    20   6 C    3.960 --    39 C    1.354    44 C    1.217    46 C    1.133
    21   6 C    3.952 --    40 C    1.325    46 C    1.215    47 C    1.203
    22   6 C    3.982 --    47 C    1.268    41 C    1.243    48 C    1.236
    23   6 C    3.976 --     5 C    1.425    30 C    1.329    53 H    0.966
    24   6 C    3.837 --    48 C    1.299    33 C    1.278    68 O    1.046
    25   6 C    3.975 --    30 C    1.315    44 C    1.275    31 C    1.118
    26   6 C    3.900 --    45 C    1.696    68 O    1.104    54 H    0.959
    27   6 C    3.954 --    46 C    1.353    32 C    1.193    31 C    1.189
    28   6 C    3.969 --    47 C    1.267    32 C    1.249    33 C    1.229
    29   6 C    3.939 --     6 C    1.525     9 C    1.276    61 H    0.962
    30   6 C    3.895 --    23 C    1.329    25 C    1.315    71 O    1.084
    31   6 C    3.977 --    11 C    1.466    27 C    1.189    25 C    1.118
    32   6 C    3.982 --    12 C    1.312    28 C    1.249    27 C    1.193
    33   6 C    3.969 --    24 C    1.278     8 C    1.246    28 C    1.229
    34   6 C    3.743 --     7 C    1.312     9 C    1.229    69 O    1.016
    35   6 C    3.918 --    10 C    1.279     9 C    1.226    14 C    1.187
    36   6 C    3.936 --    15 C    1.013    11 C    0.988    71 O    0.935
                            66 H    0.918
    37   6 C    3.975 --    17 C    1.433    11 C    1.214    12 C    1.149
    38   6 C    3.976 --     8 C    1.575    12 C    1.271    55 H    0.962
    39   6 C    3.843 --    20 C    1.354    13 C    1.218    69 O    1.066
    40   6 C    3.909 --    14 C    1.372    21 C    1.325    72 H    0.965
    41   6 C    3.979 --    16 C    1.303    22 C    1.243    14 C    1.177
    42   6 C    3.986 --    15 C    1.713    17 C    1.235    56 H    0.967
    43   6 C    3.971 --    19 C    1.414    16 C    1.334    62 H    0.966
    44   6 C    3.966 --    25 C    1.275    18 C    1.250    20 C    1.217
    45   6 C    3.965 --    26 C    1.696    19 C    1.149    63 H    0.966
    46   6 C    3.917 --    27 C    1.353    21 C    1.215    20 C    1.133
    47   6 C    3.981 --    22 C    1.268    28 C    1.267    21 C    1.203
    48   6 C    3.982 --    24 C    1.299    22 C    1.236    19 C    1.213
    49   1 H    0.997 --     1 C    0.966
    50   1 H    0.997 --     8 C    0.968
    51   1 H    0.997 --    15 C    0.968
    52   1 H    0.998 --    17 C    0.965
    53   1 H    0.996 --    23 C    0.966
    54   1 H    0.995 --    26 C    0.959
    55   1 H    0.998 --    38 C    0.962
    56   1 H    0.998 --    42 C    0.967
    57   1 H    0.997 --     2 C    0.968
    58   1 H    0.996 --     3 C    0.958
    59   1 H    0.997 --     6 C    0.970
    60   1 H    0.997 --     7 C    0.959
    61   1 H    0.998 --    29 C    0.962
    62   1 H    0.996 --    43 C    0.966
    63   1 H    0.997 --    45 C    0.966
    64   6 C    3.912 --    10 C    1.417     6 C    1.349    65 H    0.968
    65   1 H    0.997 --    64 C    0.968
    66   1 H    0.975 --    36 C    0.918
    67   8 O    2.332 --    16 C    1.066    10 C    1.030
    68   8 O    2.365 --    26 C    1.104    24 C    1.046
    69   8 O    2.322 --    39 C    1.066    34 C    1.016
    70   8 O    2.360 --     3 C    1.100     4 C    1.035
    71   8 O    2.223 --    30 C    1.084    36 C    0.935
    72   1 H    0.997 --    40 C    0.965
 ---------------------------------------------------------------------------

Topologies differ in total number of bonds
Writing topology from bond orders to xtbtopo.mol

molecular dipole:
                 x           y           z       tot (Debye)
 q only:       -0.359       0.115       0.162
   full:       -0.330       0.041       0.158       0.937
molecular quadrupole (traceless):
                xx          xy          yy          xz          yz          zz
 q only:        4.562     -21.146       9.537       3.229      -0.814     -14.100
  q+dip:       13.385     -24.859      16.658       4.856      -2.377     -30.043
   full:        5.439     -25.734       8.993       4.205      -1.074     -14.432

           -------------------------------------------------
          |                Geometry Summary                 |
           -------------------------------------------------

      molecular mass/u    :      686.6660172
   center of mass at/Å    :       -0.0049286      -0.0024751       0.0071640
  moments of inertia/u·Å² :        0.7004701E+04   0.9299696E+04   0.1617766E+05
rotational constants/cm⁻¹ :        0.2406617E-02   0.1812708E-02   0.1042032E-02

 * 80 selected distances

     #   Z          #   Z                                           value/Å
     1   6 C        3   6 C                                       1.3393655
     2   6 C        7   6 C                                       1.3683604
     2   6 C       13   6 C                                       1.4257104
     4   6 C       13   6 C                                       1.3915023
     4   6 C       18   6 C                                       1.4051532
     5   6 C       18   6 C                                       1.4198432
     5   6 C       23   6 C                                       1.3790720
     6   6 C       29   6 C                                       1.3690039
     9   6 C       29   6 C                                       1.4186242
    23   6 C       30   6 C                                       1.3952705
    25   6 C       30   6 C                                       1.3989965
    11   6 C       31   6 C                                       1.3718111
    27   6 C       31   6 C                                       1.4203836
    12   6 C       32   6 C                                       1.4086519
    27   6 C       32   6 C                                       1.4312312
    28   6 C       32   6 C                                       1.4158967
     8   6 C       33   6 C                                       1.4147923
    24   6 C       33   6 C                                       1.4084897
    28   6 C       33   6 C                                       1.4213303
     7   6 C       34   6 C                                       1.4038587
     9   6 C       34   6 C                                       1.4321017 (max)
    10   6 C       35   6 C                                       1.4141350
    14   6 C       35   6 C                                       1.4269603
    11   6 C       37   6 C                                       1.4242051
    17   6 C       37   6 C                                       1.3839100
     8   6 C       38   6 C                                       1.3630049
    12   6 C       38   6 C                                       1.4150923
    13   6 C       39   6 C                                       1.4239811
    20   6 C       39   6 C                                       1.4053864
    14   6 C       40   6 C                                       1.3872547
    21   6 C       40   6 C                                       1.3978960
    14   6 C       41   6 C                                       1.4256120
    16   6 C       41   6 C                                       1.3948986
    22   6 C       41   6 C                                       1.4084165
    15   6 C       42   6 C                                       1.3444491
    17   6 C       42   6 C                                       1.4191249
    16   6 C       43   6 C                                       1.3969285
    19   6 C       43   6 C                                       1.3857122
    18   6 C       44   6 C                                       1.4147147
    20   6 C       44   6 C                                       1.4315705
    25   6 C       44   6 C                                       1.4104497
    26   6 C       45   6 C                                       1.3429783
    21   6 C       46   6 C                                       1.4216149
    27   6 C       46   6 C                                       1.4000732
    21   6 C       47   6 C                                       1.4226074
    22   6 C       47   6 C                                       1.4045427
    28   6 C       47   6 C                                       1.4058722
    19   6 C       48   6 C                                       1.4236088
    22   6 C       48   6 C                                       1.4104668
    24   6 C       48   6 C                                       1.4023082
     1   6 C       49   1 H                                       1.0765061
     8   6 C       50   1 H                                       1.0792293
    15   6 C       51   1 H                                       1.0773842
    17   6 C       52   1 H                                       1.0770111
    23   6 C       53   1 H                                       1.0780436
    26   6 C       54   1 H                                       1.0801709
    38   6 C       55   1 H                                       1.0781822
    42   6 C       56   1 H                                       1.0806227
     2   6 C       57   1 H                                       1.0771246
     3   6 C       58   1 H                                       1.0801226
     6   6 C       59   1 H                                       1.0794492
     7   6 C       60   1 H                                       1.0753016 (min)
    29   6 C       61   1 H                                       1.0765248
    43   6 C       62   1 H                                       1.0783020
    45   6 C       63   1 H                                       1.0768134
     6   6 C       64   6 C                                       1.3943240
    10   6 C       64   6 C                                       1.3792222
    64   6 C       65   1 H                                       1.0773033
    36   6 C       66   1 H                                       1.1180619
    10   6 C       67   8 O                                       1.3747631
    16   6 C       67   8 O                                       1.3566672
    24   6 C       68   8 O                                       1.3671361
    26   6 C       68   8 O                                       1.3467487
    34   6 C       69   8 O                                       1.3826556
    39   6 C       69   8 O                                       1.3618438
     3   6 C       70   8 O                                       1.3463996
     4   6 C       70   8 O                                       1.3706196
    30   6 C       71   8 O                                       1.3534566
    36   6 C       71   8 O                                       1.4296279
    40   6 C       72   1 H                                       1.0788642

 * 3 distinct bonds (by element types)

   Z      Z             #   av. dist./Å        max./Å        min./Å
   1 H    6 C          18     1.0802788     1.1180619     1.0753016
   6 C    6 C          52     1.4023225     1.4321017     1.3393655
   6 C    8 O          10     1.3689918     1.4296279     1.3463996


optimized geometry written to: xtbopt.xyz


           -------------------------------------------------
          | TOTAL ENERGY             -134.568520465769 Eh   |
          | GRADIENT NORM               0.000332612587 Eh/α |
          | HOMO-LUMO GAP               0.196920459482 eV   |
           -------------------------------------------------

------------------------------------------------------------------------
 * finished run on 2025/12/08 at 00:34:51.593     
------------------------------------------------------------------------
 total:
 * wall-time:     0 d,  0 h,  0 min,  3.399 sec
 *  cpu-time:     0 d,  0 h,  0 min, 13.422 sec
 * ratio c/w:     3.949 speedup
 SCF:
 * wall-time:     0 d,  0 h,  0 min,  0.314 sec
 *  cpu-time:     0 d,  0 h,  0 min,  1.281 sec
 * ratio c/w:     4.080 speedup
 ANC optimizer:
 * wall-time:     0 d,  0 h,  0 min,  3.026 sec
 *  cpu-time:     0 d,  0 h,  0 min, 11.938 sec
 * ratio c/w:     3.945 speedup

normal termination of xtb
