72
 energy: -134.557465827971 gnorm: 0.059570226908 xtb: 6.7.1pre (5071a88)
C            5.82507900000000       -3.36679600000000       -0.31934500000000
C            1.00403300000000       -4.93743700000000       -0.32759100000000
C            5.17474000000000       -4.54271200000000       -0.35239100000000
C            3.05648600000000       -3.51311400000000       -0.19106600000000
C            5.08549800000000       -2.12819000000000       -0.18786500000000
C           -4.69365400000000       -4.99895500000000        0.07841100000000
C           -0.35870700000000       -5.00909000000000       -0.21281700000000
C           -0.98907100000000        4.90484100000000       -0.26987600000000
C           -2.55530500000000       -3.77174700000000        0.10397200000000
C           -4.75947800000000       -2.61366900000000        0.18365600000000
C            3.34450600000000        2.60671400000000        0.24707700000000
C            1.18028000000000        3.78711200000000        0.00176000000000
C            1.67347400000000       -3.66255500000000       -0.24301600000000
C           -2.78375900000000       -1.27598400000000        0.59625700000000
C            5.52183400000000        3.85337800000000        0.22569100000000
C           -4.94517800000000       -0.22172400000000        0.11757900000000
C            3.37714900000000        5.02002400000000        0.01261800000000
C            3.66487200000000       -2.24658900000000       -0.08217800000000
C           -5.15204700000000        2.16747000000000       -0.20831200000000
C            1.40518700000000       -1.20161600000000        0.11882500000000
C           -0.77329100000000        0.05747300000000        0.55551500000000
C           -2.94046500000000        1.14900700000000        0.19187100000000
C            5.67875700000000       -0.87275000000000       -0.16401200000000
C           -3.08679300000000        3.53666100000000       -0.21433800000000
C            3.48688200000000        0.17383200000000        0.16366800000000
C           -5.18049000000000        4.56207300000000       -0.56066600000000
C            1.27475700000000        1.29776700000000        0.18523900000000
C           -0.90004000000000        2.48127900000000        0.06270900000000
C           -3.32108400000000       -4.99498100000000        0.08735900000000
C            4.88006500000000        0.26704400000000       -0.00106900000000
C            2.70696800000000        1.38944900000000        0.18464500000000
C            0.52689100000000        2.53966600000000        0.11009300000000
C           -1.67738400000000        3.66594700000000       -0.14572700000000
C           -1.15565000000000       -3.83901000000000       -0.16028600000000
C           -3.33644500000000       -2.55451100000000        0.32018600000000
C            4.81884100000000        2.58167900000000        0.57902100000000
C            2.64012600000000        3.85048700000000        0.09858900000000
C            0.38063700000000        4.95466500000000       -0.18829900000000
C            0.87365300000000       -2.48657400000000       -0.17439800000000
C           -1.44971200000000       -1.08129700000000        0.97440300000000
C           -3.56700600000000       -0.11425100000000        0.30393800000000
C            4.81628400000000        4.98935900000000        0.01613500000000
C           -5.74716100000000        0.90614700000000       -0.12340700000000
C            2.84422600000000       -1.09556300000000        0.09017000000000
C           -5.85926800000000        3.40120000000000       -0.45714800000000
C            0.64615000000000        0.04998700000000        0.30898500000000
C           -1.53421200000000        1.23613900000000        0.25374800000000
C           -3.73104600000000        2.29813500000000       -0.06609900000000
H            6.90719300000000       -3.35723000000000       -0.38630200000000
H           -1.55752200000000        5.81608200000000       -0.42152500000000
H            6.60781200000000        3.84209600000000        0.22541200000000
H            2.89177500000000        5.97997700000000       -0.11766400000000
H            6.75286100000000       -0.75844700000000       -0.26798700000000
H           -5.62692200000000        5.53050600000000       -0.74348000000000
H            0.86465500000000        5.92004900000000       -0.28101700000000
H            5.34417700000000        5.92265600000000       -0.16409900000000
H            1.60240700000000       -5.83883100000000       -0.37556100000000
H            5.64324900000000       -5.51503100000000       -0.43572200000000
H           -5.22011400000000       -5.94865600000000        0.03710100000000
H           -0.82857500000000       -5.98108100000000       -0.12979400000000
H           -2.80731300000000       -5.94674300000000        0.03075700000000
H           -6.81855100000000        0.78700000000000       -0.24568900000000
H           -6.93797300000000        3.41315400000000       -0.56572300000000
C           -5.44767600000000       -3.79828800000000        0.07661200000000
H           -6.52974500000000       -3.80009300000000        0.00862400000000
H            4.93968100000000        2.37416100000000        1.66214400000000
O           -5.53193500000000       -1.44926700000000        0.20064900000000
O           -3.82310900000000        4.66372200000000       -0.45353600000000
O           -0.45790400000000       -2.65543000000000       -0.47997300000000
O            3.81665100000000       -4.65689400000000       -0.28916100000000
O            5.50012700000000        1.47779500000000       -0.08840800000000
H           -0.91245200000000       -1.87977500000000        1.46099800000000
72
 energy: -134.565472004023 gnorm: 0.032803357345 xtb: 6.7.1pre (5071a88)
C            5.80477710126911       -3.35444520023987       -0.31656179132863
C            0.99543425480639       -4.90788141198756       -0.31742969490536
C            5.15575084468566       -4.52634588866360       -0.34821636885783
C            3.04940925052855       -3.50676597825485       -0.19008370051636
C            5.06616821137940       -2.12033335615933       -0.18548182552478
C           -4.68092815477820       -4.98279824028640        0.07833430453450
C           -0.36373865295032       -4.98103513736480       -0.20287433309981
C           -0.97854285345660        4.87916796084209       -0.26635899768970
C           -2.55540667843588       -3.75895552928622        0.10217263874310
C           -4.74697322632710       -2.60482125444755        0.18527001961171
C            3.33268433313151        2.59831820891493        0.25168380899987
C            1.18402401563029        3.77130584471261        0.00231777847384
C            1.66409156748422       -3.64148968204646       -0.23768309794086
C           -2.77027927054812       -1.27844830336635        0.57898084346572
C            5.50172581414069        3.84951102481756        0.23222478682642
C           -4.93247166849292       -0.23029991617874        0.11039623923823
C            3.37268970317516        5.00213778992912        0.01328382628672
C            3.65075382484974       -2.23903680857493       -0.08779228051591
C           -5.12981379313022        2.15539720886031       -0.20534347791244
C            1.40093488968457       -1.19509011913888        0.10907173449296
C           -0.76439132962298        0.05168644849093        0.53923736125222
C           -2.92644621062982        1.14113670752780        0.18966006765218
C            5.65735477353465       -0.87102656034804       -0.16302508992292
C           -3.07493529031276        3.52847937206201       -0.21306735247733
C            3.47476816255684        0.16972889320974        0.15329980848727
C           -5.15927970780500        4.54282447404544       -0.55452670133705
C            1.27203809829735        1.29300639851855        0.17934749923963
C           -0.88951172963998        2.46990418770586        0.06039657074039
C           -3.31500778115566       -4.97207109155219        0.07567994639071
C            4.86445945422467        0.26791227598072       -0.00460494240510
C            2.69621307705535        1.38378099008268        0.18372012622482
C            0.53101400582901        2.52801345236903        0.10812691547955
C           -1.66772487513790        3.64763373150745       -0.14401482423062
C           -1.15699632896735       -3.81261349808340       -0.15624850262017
C           -3.33100352048449       -2.55427997250011        0.31531632977465
C            4.80626111443315        2.57358673664767        0.57192108774152
C            2.63466105367529        3.83694684185188        0.09970520545395
C            0.38456702400358        4.92963954685074       -0.18516364268460
C            0.85905346979900       -2.46886731762460       -0.17167318783576
C           -1.44141462013433       -1.08701987463333        0.95654510587126
C           -3.55391779892843       -0.11973936411682        0.28989861433513
C            4.79953295677941        4.97655656238719        0.01931270689858
C           -5.72368579196932        0.90155160745455       -0.12389237055135
C            2.83318584390033       -1.09151916097112        0.08079615265272
C           -5.83664353654126        3.38642304206553       -0.45178832180713
C            0.64750506001458        0.04808649416143        0.30144663410835
C           -1.52302513123411        1.22781535435526        0.24786205384719
C           -3.71411909895796        2.28817188329650       -0.06561505097866
H            6.88221111826161       -3.33781026025587       -0.38347588122003
H           -1.54838852219633        5.78575540745788       -0.41708546268504
H            6.58177554365176        3.83254262312459        0.21750939644571
H            2.89418418403185        5.96033306058174       -0.11638266963897
H            6.72635666605078       -0.75861696837218       -0.27155399234266
H           -5.61265848391736        5.50607126116476       -0.73775765562092
H            0.86535494671711        5.89260235352519       -0.27642296543432
H            5.32284459898286        5.90524533917193       -0.17139691702364
H            1.59452101485364       -5.80378460305818       -0.37911349852121
H            5.62924808284238       -5.49378220725861       -0.43265081091021
H           -5.20674978255148       -5.92805390962041        0.04292611899678
H           -0.82968430656934       -5.95134904147091       -0.12777874950524
H           -2.80108561987343       -5.91883604666022        0.02500281911692
H           -6.79147739504321        0.78839323841442       -0.24184867553373
H           -6.91134895663485        3.39178749142204       -0.55899325222029
C           -5.42725874861702       -3.79287806322208        0.07833899444959
H           -6.50394537008188       -3.80008240559470        0.01090724093285
H            4.92091324032369        2.38458693350414        1.66196569338636
O           -5.52189534829553       -1.45215612085635        0.19633384890686
O           -3.81117496293631        4.65531948049477       -0.45155322735389
O           -0.47248679694452       -2.62712406197280       -0.45744892118204
O            3.80745810412008       -4.64873744230933       -0.28706343545259
O            5.48980984792891        1.47339324776657       -0.07490608477009
H           -0.91839790933116       -1.86680667879883        1.48675547549895
72
 energy: -134.567908720751 gnorm: 0.012639020344 xtb: 6.7.1pre (5071a88)
C            5.78627589831562       -3.34524737639161       -0.31600257126653
C            0.98801022158921       -4.88477418024175       -0.31380263525019
C            5.13467103299793       -4.51439697913244       -0.34436333477521
C            3.04041781669610       -3.50233307796650       -0.19121626734397
C            5.04881132736168       -2.11300318654524       -0.18912851368763
C           -4.66918329226077       -4.97405657436455        0.08011927113731
C           -0.37036013103892       -4.95704267522365       -0.19846278150507
C           -0.96959289407349        4.86085778650078       -0.26483787953589
C           -2.55572143335466       -3.74711446531306        0.09700080983234
C           -4.73721725096895       -2.59620961812124        0.18644131984033
C            3.32451104774574        2.59078775875079        0.25301954305972
C            1.18751734783721        3.75908436266792        0.00295955245359
C            1.65461463258475       -3.62431144806750       -0.23833031101003
C           -2.75893137617874       -1.27803595412098        0.57270063369960
C            5.48731176084354        3.84184730764888        0.22840299507966
C           -4.92078770372946       -0.23945208836177        0.10202290400650
C            3.36618120963699        4.99000619077491        0.01499299076712
C            3.63713286560685       -2.23323095608816       -0.09571662433070
C           -5.10935005668057        2.14445263862811       -0.20522667322234
C            1.39571892316015       -1.18968683210589        0.09865232049216
C           -0.75726941756540        0.04818387590760        0.53663556824463
C           -2.91386793666478        1.13341674054543        0.18239637705099
C            5.64067589530626       -0.86771169364367       -0.16600125325532
C           -3.06273866308257        3.52160027550934       -0.21324578893877
C            3.46533734013034        0.16639774453847        0.14537198957205
C           -5.13729940640464        4.52742704364740       -0.54937227212677
C            1.26957625309090        1.28917508330200        0.17430513300792
C           -0.88075088296583        2.45895538865641        0.05578614311352
C           -3.30409015329340       -4.95645076565892        0.06779860743978
C            4.85276864247739        0.27087907363288       -0.00377287129852
C            2.68750221235401        1.37866284063735        0.18025817514519
C            0.53403835320286        2.51758686031989        0.10538689533083
C           -1.65836199368754        3.63224807493725       -0.14500328522971
C           -1.15535089885342       -3.78807954395032       -0.15940521730188
C           -3.32706104464456       -2.55309652808224        0.31294124982187
C            4.79601989683117        2.56608920669675        0.57227516401422
C            2.62939634317019        3.82509003074403        0.10246990951763
C            0.38998073303337        4.91251055706087       -0.18290222622934
C            0.84636699267642       -2.45414476033249       -0.17800407269401
C           -1.43808512661945       -1.08818480564696        0.96336497463741
C           -3.54151260045570       -0.12482661691200        0.27352950859461
C            4.78546407454679        4.96630909864298        0.01361123611180
C           -5.70357864300586        0.89586916054347       -0.12612090646992
C            2.82322181998218       -1.08768748806122        0.07025189031792
C           -5.81635990361350        3.37396075306435       -0.44801838206244
C            0.64602881411843        0.04537230379286        0.29648648241379
C           -1.51322937855342        1.21841011944922        0.24150930790456
C           -3.69785392621672        2.27969207300868       -0.06800116085540
H            6.86067785243888       -3.32094239951225       -0.38033809782075
H           -1.54272456477054        5.76329824433209       -0.41317626863601
H            6.56396035801759        3.81722881097818        0.20691822402779
H            2.88806333964838        5.94581978947032       -0.11619716804508
H            6.70722020888865       -0.75732512638523       -0.27365553077854
H           -5.59916498199232        5.48644445672903       -0.73069079994872
H            0.87061689605386        5.87344605481257       -0.27157780330575
H            5.30517550029745        5.89437173723722       -0.17493848576126
H            1.58869183214667       -5.77677766384157       -0.37628850406732
H            5.61437207061429       -5.47806709370603       -0.42719888641162
H           -5.19344557860518       -5.91691106492234        0.04594522394006
H           -0.83658910191295       -5.92348144890764       -0.12040604455918
H           -2.78619754979237       -5.89803522589282        0.00707610360904
H           -6.76997871889450        0.78779123641394       -0.23972008395670
H           -6.88849404119144        3.37133610932452       -0.55138080437300
C           -5.41092932832566       -3.79062617759511        0.08084786703191
H           -6.48526941033436       -3.80010778967365        0.01570157106642
H            4.90050976591148        2.39962784086502        1.67167709466920
O           -5.51312855745420       -1.45555395763409        0.19205544181975
O           -3.79788177039145        4.64888064946768       -0.45002929293731
O           -0.48207256397916       -2.60588935220847       -0.44903549413246
O            3.79477175713909       -4.64337297094940       -0.28501719644225
O            5.48250588297733        1.47178116846022       -0.05303431152707
H           -0.92876063787322       -1.84887856213861        1.53757732232139
72
 energy: -134.568175760839 gnorm: 0.005984159193 xtb: 6.7.1pre (5071a88)
C            5.78100205466092       -3.34469225538541       -0.31875859164958
C            0.98535819245862       -4.87950555251020       -0.31312155797813
C            5.12672429392421       -4.51290599328972       -0.34444613553931
C            3.03594417252712       -3.50033282783362       -0.19528561871036
C            5.04487740806088       -2.11144216930208       -0.19343293618761
C           -4.66747907803165       -4.97516846001124        0.07728408426346
C           -0.37357399224029       -4.95016640008933       -0.19512119757289
C           -0.96769509637879        4.85882003942493       -0.26528166736957
C           -2.55757548260610       -3.74532263403475        0.09680670750152
C           -4.73670137478054       -2.59488391002942        0.18854186754669
C            3.32409555396148        2.58980460754654        0.25328260888350
C            1.18859840564172        3.75801869998839        0.00340177647884
C            1.65040827173404       -3.61929935891633       -0.24043327661894
C           -2.75563497001104       -1.27797445985461        0.57565673129128
C            5.48578104865255        3.84023218042307        0.22649238473269
C           -4.91706112808708       -0.24301955036652        0.09806196865360
C            3.36468765392836        4.98960580746163        0.01594898385883
C            3.63360000792481       -2.23170624043370       -0.10110825685189
C           -5.10352779881210        2.14124401933929       -0.20804083057567
C            1.39488494830651       -1.18711533188084        0.09802180474261
C           -0.75544983318754        0.04710158475813        0.54151199090479
C           -2.91051144582205        1.13072519365512        0.17795915822774
C            5.63871442234031       -0.86693915844065       -0.16687105861101
C           -3.05834029770395        3.51937706773512       -0.21542036553115
C            3.46473293451758        0.16648109081113        0.14371775976939
C           -5.13072711865391        4.52425915164828       -0.54710919910972
C            1.26978691031022        1.28943573473699        0.17265201309919
C           -0.87866291880677        2.45593919759682        0.05449482501540
C           -3.30094760061990       -4.95565016216258        0.05910815041618
C            4.85230711193222        0.27211128812915        0.00011846466329
C            2.68672305863274        1.37802596820677        0.17887597328913
C            0.53484463162614        2.51590057801346        0.10474199210592
C           -1.65521667542415        3.62885880151400       -0.14707836923668
C           -1.15452553659979       -3.78042754820459       -0.15624970693675
C           -3.32785465091825       -2.55315640891189        0.31486760212912
C            4.79424497768573        2.56582077329590        0.57678677097898
C            2.62860602251724        3.82306704234769        0.10373313949353
C            0.39168353800900        4.91168190860536       -0.18205831244687
C            0.84219184524607       -2.44941875993650       -0.17642849181590
C           -1.43736338528255       -1.08998943646769        0.97265512312786
C           -3.53747493439255       -0.12704885839376        0.26778016670630
C            4.78348014687481        4.96594437070989        0.01236659114800
C           -5.69838785775298        0.89297205863081       -0.12923111244862
C            2.82171273151206       -1.08590027717164        0.06549773617016
C           -5.81110671703573        3.37099777717950       -0.44729871142855
C            0.64517111425149        0.04535185081788        0.29672180154634
C           -1.51066718557244        1.21505939883993        0.24162217132407
C           -3.69282616696808        2.27714457070227       -0.07193525770151
H            6.85515985016410       -3.31843360346932       -0.38094311063805
H           -1.54301101620647        5.75974346906953       -0.41291918393323
H            6.56228780531367        3.81044216223298        0.19666865590666
H            2.88397184762323        5.94410567334554       -0.11621555310538
H            6.70551350407669       -0.75764161162641       -0.27338475244331
H           -5.59631628883035        5.48212506950783       -0.72624425315458
H            0.87302139926489        5.87228832937319       -0.26915125818479
H            5.30274382920650        5.89240043185811       -0.18566796023951
H            1.58661949366056       -5.77102580895229       -0.37436071525430
H            5.60876478953776       -5.47603156203561       -0.42303714099655
H           -5.19040111686699       -5.91857807970829        0.04470817606922
H           -0.84116821914772       -5.91499184337465       -0.11407713509892
H           -2.78127584907511       -5.89566305496950       -0.01050568257785
H           -6.76532297975550        0.78624097609805       -0.24035418194449
H           -6.88303247435658        3.36504589862546       -0.54834209590457
C           -5.40895478225136       -3.79227459700390        0.08416667075956
H           -6.48379692476465       -3.80074624004696        0.02215101943474
H            4.89168641544568        2.41066527836932        1.68003646620635
O           -5.51143852953419       -1.45724637931736        0.19152821085081
O           -3.79316045498058        4.64723934058065       -0.44977670673112
O           -0.48628790350037       -2.59808238260234       -0.43798629803095
O            3.78813982743485       -4.64209859088840       -0.28593636293699
O            5.48355622492446        1.47175035964572       -0.03697679865417
H           -0.92722265893111       -1.85129624320235        1.54149029685368
72
 energy: -134.568300827865 gnorm: 0.002878589592 xtb: 6.7.1pre (5071a88)
C            5.77863911205523       -3.34583364718055       -0.32267986246632
C            0.98457394474601       -4.87860893965473       -0.31314866743302
C            5.12234310879855       -4.51336918295531       -0.34581758626860
C            3.03330766110298       -3.49925710314262       -0.20067083041276
C            5.04362971516621       -2.11121540534355       -0.19781191232779
C           -4.66773787759839       -4.97680317822923        0.07410187185575
C           -0.37512027300741       -4.94755114352796       -0.19216402552092
C           -0.96699828421653        4.85916970793614       -0.26640513787124
C           -2.55939513115038       -3.74513644425598        0.09433093067773
C           -4.73701277311390       -2.59478131309490        0.19222598587712
C            3.32458232730436        2.58979110160602        0.25396927592497
C            1.18929836389967        3.75886490502983        0.00403349422526
C            1.64822504412490       -3.61765075369883       -0.24466413659982
C           -2.75360933697838       -1.27747665650449        0.58128730633309
C            5.48624664352957        3.83928498168729        0.22077612221572
C           -4.91469467118873       -0.24540885225189        0.09517878659555
C            3.36498534318525        4.99066091135554        0.01688729103313
C            3.63221864321110       -2.23118957491934       -0.10670440875669
C           -5.10075411121679        2.13930472361386       -0.21252877890976
C            1.39439003419064       -1.18580178312944        0.09643073196934
C           -0.75500814612692        0.04716771804188        0.54913790394201
C           -2.90906207905518        1.12926607900392        0.17431191117140
C            5.63925785850613       -0.86722074342228       -0.16540796157074
C           -3.05580337551327        3.51798009740676       -0.21870794736007
C            3.46532232327065        0.16659703999339        0.14406420556584
C           -5.12787476418435        4.52305657327117       -0.54577402877047
C            1.27022820242786        1.29005999875241        0.17306351192481
C           -0.87772320855535        2.45464091746575        0.05405584922919
C           -3.29993196406121       -4.95616098244366        0.04896264686708
C            4.85369882504901        0.27219502829474        0.00689288601079
C            2.68701250103021        1.37774731393613        0.17901440812222
C            0.53537203578971        2.51573987018766        0.10494437846221
C           -1.65340199405089        3.62759294411859       -0.14952915862904
C           -1.15330907111915       -3.77724721969225       -0.15741982439344
C           -3.32868032412837       -2.55367789673041        0.31854603513054
C            4.79366093431819        2.56760665080367        0.58234540756783
C            2.62870821703883        3.82273664845255        0.10527463572831
C            0.39238725450704        4.91324838355030       -0.18125420635180
C            0.84054622615969       -2.44758159885478       -0.17968736373737
C           -1.43876782427510       -1.08937865499590        0.98623519830880
C           -3.53501134676827       -0.12862093610924        0.26448114268443
C            4.78387799032776        4.96600199151119        0.00671619788777
C           -5.69581371825309        0.89050851183312       -0.13304131682729
C            2.82143059085587       -1.08505352214422        0.06148319925582
C           -5.80911468051136        3.36959135494274       -0.44816300684271
C            0.64421478790562        0.04526235844245        0.29955321152698
C           -1.50950312171953        1.21343858493862        0.24364406095503
C           -3.69030528258875        2.27557649915617       -0.07725709492092
H            6.85287687736265       -3.31873643871792       -0.38345899940776
H           -1.54422471026849        5.75885025466469       -0.41433859214184
H            6.56268741492444        3.80501291014678        0.18289825077048
H            2.88192480746061        5.94430247598265       -0.11454755078702
H            6.70667822751883       -0.75888183349246       -0.26980822725270
H           -5.59661266177296        5.48036443301220       -0.72117152754878
H            0.87409044451982        5.87394881009947       -0.26654199332423
H            5.30320861035924        5.89124210264185       -0.19831679383320
H            1.58609423984745       -5.77015025976103       -0.37126111014729
H            5.60610211718624       -5.47628273727118       -0.42031690114010
H           -5.18933228283103       -5.92100731128128        0.03857619626957
H           -0.84375781556176       -5.91098513659102       -0.10466348058181
H           -2.78032144779698       -5.89527894067516       -0.03408442734714
H           -6.76329588424307        0.78423945169596       -0.24231557828631
H           -6.88120661538058        3.36136245647438       -0.54650943788337
C           -5.40885618152803       -3.79421185972825        0.08897522084954
H           -6.48449292228544       -3.80101969244103        0.03113711937001
H            4.88438443410070        2.42559963707849        1.68885077133702
O           -5.51068058951290       -1.45872594796868        0.19278131307543
O           -3.79092398808256        4.64636072591866       -0.45024572077674
O           -0.48785538283105       -2.59592445544004       -0.43505455987567
O            3.78394942963790       -4.64190301549895       -0.28843818914558
O            5.48666938562780        1.47070463155892       -0.01727058613428
H           -0.92970383557048       -1.84709362345739        1.56088347286369
72
 energy: -134.568357130622 gnorm: 0.002839063873 xtb: 6.7.1pre (5071a88)
C            5.77886184543756       -3.34704758859309       -0.32620197955954
C            0.98466959797696       -4.87942977734888       -0.31167976003898
C            5.12190372637952       -4.51426971956667       -0.34876521179170
C            3.03293192171793       -3.49870376847857       -0.20441831111074
C            5.04444588476020       -2.11164032760383       -0.19985906721728
C           -4.67001663073653       -4.97741555036292        0.06946841557275
C           -0.37541554314017       -4.94763584860078       -0.18806902177563
C           -0.96711622150784        4.86007430381104       -0.26722537480017
C           -2.56135164817922       -3.74614442112157        0.09305432693361
C           -4.73803731226031       -2.59534569359190        0.19564249534130
C            3.32534933571153        2.59052246315304        0.25476500277822
C            1.18964123259556        3.76034872666988        0.00542580209102
C            1.64779134486264       -3.61785141316661       -0.24623176350708
C           -2.75272575522942       -1.27787973319290        0.58450968223056
C            5.48749674253735        3.83918884171438        0.21384907849606
C           -4.91399780033302       -0.24602328427674        0.09553082474761
C            3.36626509522875        4.99191059299596        0.01705073486570
C            3.63273744814393       -2.23112251408329       -0.10955079902665