72
 energy: -134.568520465769 gnorm: 0.000332612587 xtb: 6.7.1pre (5071a88)
C            5.78121575499224       -3.34645700945703       -0.31903905195650
C            0.98662292451264       -4.88061530954850       -0.28189310324049
C            5.12508034607724       -4.51350343293122       -0.35630157730930
C            3.03585842913354       -3.49905548445017       -0.19293881649943
C            5.04703492272465       -2.11312757314957       -0.17467895429478
C           -4.67558750231396       -4.97012387929534       -0.01299318104333
C           -0.37496799835885       -4.94615150678023       -0.16279235414111
C           -0.96887529025640        4.85750390904253       -0.24882755766513
C           -2.56557768244256       -3.74314736474522        0.06738984427687
C           -4.73938717111166       -2.59463261866762        0.19543135899307
C            3.32673388112379        2.59071502550602        0.26018696404654
C            1.18887612740866        3.75799984325947        0.01548224020435
C            1.65010962452393       -3.61974395040779       -0.23052511497933
C           -2.75378730696063       -1.28216155483820        0.60082103337224
C            5.48743733278272        3.83622679896335        0.14722583253069
C           -4.91578686687383       -0.24480743351679        0.12372468491090
C            3.36584503196914        4.98650097341900       -0.03449063757933
C            3.63473962387506       -2.23211374024892       -0.08971566059024
C           -5.10214632896183        2.13771177483571       -0.19394599356081
C            1.39594550802674       -1.18703659678430        0.11731944116529
C           -0.75491108802187        0.04511821388313        0.57471611503560
C           -2.91000860013989        1.12772310584929        0.20249747920509
C            5.64341428189874       -0.87090516229326       -0.11941141947520
C           -3.05662113040148        3.51480905536327       -0.20033735283020
C            3.46733451947261        0.16528941530358        0.17704716796178
C           -5.12869501284315        4.51949015061695       -0.54193832458452
C            1.27160178911063        1.28942707720970        0.19908121376681
C           -0.87799843038912        2.45364648207520        0.08057295990316
C           -3.30704398276480       -4.94775140200764       -0.04055039964769
C            4.85722831515908        0.26842052375494        0.05559758213059
C            2.68925468418031        1.37731675461290        0.20405965802804
C            0.53578502394082        2.51494799684677        0.12770511634047
C           -1.65435390940182        3.62574138199772       -0.12834121641800
C           -1.15143732217980       -3.77659122982366       -0.15622456056258
C           -3.33135418496952       -2.55666444839352        0.32104595562663
C            4.79743219051222        2.58569318305909        0.58422322120391
C            2.62977782443817        3.82201654523086        0.09737186837960
C            0.39061586745066        4.91201054836064       -0.16761833479351
C            0.84352082816413       -2.44805331631843       -0.16512422372760
C           -1.43945141244510       -1.09574195690584        1.00361657168485
C           -3.53574497161054       -0.13089344558797        0.29180126676964
C            4.78368245831998        4.95746692235120       -0.08749278673037
C           -5.69751921580968        0.88932363106208       -0.10876236361294
C            2.82362569841545       -1.08638347980449        0.08582295156944
C           -5.80979449403196        3.36649058148123       -0.44051864397476
C            0.64457586159462        0.04394705539150        0.32486899048317
C           -1.50983165791513        1.21265147119569        0.27343124387110
C           -3.69186003857883        2.27315364831364       -0.05462769314393
H            6.85536079985845       -3.32000567931637       -0.38520512060087
H           -1.54686434219112        5.75675076411692       -0.39721720719308
H            6.56139873920567        3.79135593144789        0.07408236675123
H            2.88089253005969        5.93727319691398       -0.17873337053365
H            6.71199485482164       -0.76223504914019       -0.21162901586407
H           -5.59594049301519        5.47600562737849       -0.72504688927600
H            0.87110490506134        5.87333256857189       -0.25402953793456
H            5.29900471163170        5.87150796419906       -0.34578945114451
H            1.58712667078244       -5.77402409223101       -0.31948458512091
H            5.60728355060574       -5.47569223672256       -0.44761069153424
H           -5.19690305784980       -5.91170269836089       -0.09587710917166
H           -0.84437295703606       -5.90675403890499       -0.04800934293030
H           -2.78896618273342       -5.88051693299119       -0.18355130812483
H           -6.76462677329319        0.78155108596696       -0.22012414880260
H           -6.88155954144329        3.35804693610461       -0.54432259369089
C           -5.41419364695178       -3.78964273365625        0.05816997239676
H           -6.49027878902570       -3.79103592192161        0.00697405178735
H            4.89109517441431        2.51114534781673        1.69585809200177
O           -5.51335118521630       -1.45875770166348        0.22265472169460
O           -3.79135595047938        4.64231250813343       -0.44108905096985
O           -0.48484980006169       -2.59573232350251       -0.42635308878605
O            3.78625313618543       -4.64158279304625       -0.29362044139204
O            5.49796817570830        1.46057974963123        0.04830832733578
H           -0.92590178006285       -1.85800765185425        1.56856398200364
