      -----------------------------------------------------------      
     |                   =====================                   |     
     |                           x T B                           |     
     |                   =====================                   |     
     |                         S. Grimme                         |     
     |          Mulliken Center for Theoretical Chemistry        |     
     |                    University of Bonn                     |     
      -----------------------------------------------------------      

   * xtb version 6.7.1pre (5071a88) compiled by 'Marcel@Raven' on 2024-07-23

   xtb is free software: you can redistribute it and/or modify it under
   the terms of the GNU Lesser General Public License as published by
   the Free Software Foundation, either version 3 of the License, or
   (at your option) any later version.
   
   xtb is distributed in the hope that it will be useful,
   but WITHOUT ANY WARRANTY; without even the implied warranty of
   MERCHANTABILITY or FITNESS FOR A PARTICULAR PURPOSE.  See the
   GNU Lesser General Public License for more details.
   
   Cite this work as:
   * C. Bannwarth, E. Caldeweyher, S. Ehlert, A. Hansen, P. Pracht,
     J. Seibert, S. Spicher, S. Grimme, WIREs Comput. Mol. Sci., 2020, 11,
     e01493. DOI: 10.1002/wcms.1493
   
   for GFN2-xTB:
   * C. Bannwarth, S. Ehlert and S. Grimme., J. Chem. Theory Comput., 2019,
     15, 1652-1671. DOI: 10.1021/acs.jctc.8b01176
   for GFN1-xTB:
   * S. Grimme, C. Bannwarth, P. Shushkov, J. Chem. Theory Comput., 2017,
     13, 1989-2009. DOI: 10.1021/acs.jctc.7b00118
   for GFN0-xTB:
   * P. Pracht, E. Caldeweyher, S. Ehlert, S. Grimme, ChemRxiv, 2019, preprint.
     DOI: 10.26434/chemrxiv.8326202.v1
   for GFN-FF:
   * S. Spicher and S. Grimme, Angew. Chem. Int. Ed., 2020, 59, 15665-15673.
     DOI: 10.1002/anie.202004239
   
   for ALPB and GBSA implicit solvation:
   * S. Ehlert, M. Stahn, S. Spicher, S. Grimme, J. Chem. Theory Comput.,
     2021, 17, 4250-4261. DOI: 10.1021/acs.jctc.1c00471
   
   for ddCOSMO and CPCM-X implicit solvation:
   * M. Stahn, S. Ehlert, S. Grimme, J. Phys. Chem. A,
     2023, XX, XXXX-XXXX. DOI: 10.1021/acs.jpca.3c04382
   
   for DFT-D4:
   * E. Caldeweyher, C. Bannwarth and S. Grimme, J. Chem. Phys., 2017,
     147, 034112. DOI: 10.1063/1.4993215
   * E. Caldeweyher, S. Ehlert, A. Hansen, H. Neugebauer, S. Spicher,
     C. Bannwarth and S. Grimme, J. Chem. Phys., 2019, 150, 154122.
     DOI: 10.1063/1.5090222
   * E. Caldeweyher, J.-M. Mewes, S. Ehlert and S. Grimme, Phys. Chem. Chem. Phys.
     2020, 22, 8499-8512. DOI: 10.1039/D0CP00502A
   
   for sTDA-xTB:
   * S. Grimme and C. Bannwarth, J. Chem. Phys., 2016, 145, 054103.
     DOI: 10.1063/1.4959605
   
   in the mass-spec context:
   * V. Asgeirsson, C. Bauer and S. Grimme, Chem. Sci., 2017, 8, 4879.
     DOI: 10.1039/c7sc00601b
   * J. Koopman and S. Grimme, ACS Omega 2019, 4, 12, 15120-15133.
     DOI: 10.1021/acsomega.9b02011
   
   for metadynamics refer to:
   * S. Grimme, J. Chem. Theory Comput., 2019, 155, 2847-2862
     DOI: 10.1021/acs.jctc.9b00143
   
   for SPH calculations refer to:
   * S. Spicher and S. Grimme, J. Chem. Theory Comput., 2021, 17, 1701-1714
     DOI: 10.1021/acs.jctc.0c01306
   
   for ONIOM refer to:
   * C. Plett, A. Katbashev, S. Ehlert, S. Grimme, M. Bursch,
     Phys. Chem. Chem. Phys., 2023, 25, 17860-17868. DOI: 10.1039/D3CP02178E
   
   for DIPRO refer to:
   * J. Kohn, N. Gildemeister, S. Grimme, D. Fazzi, A. Hansen,
     J. Chem. Phys., 2023, just accepted.
   
   for PTB refer to:
   * S. Grimme, M. Mueller, A. Hansen, J. Chem. Phys., 2023, 158, 124111.
     DOI: 10.1063/5.0137838
   
   with help from (in alphabetical order)
   P. Atkinson, C. Bannwarth, F. Bohle, G. Brandenburg, E. Caldeweyher
   M. Checinski, S. Dohm, S. Ehlert, S. Ehrlich, I. Gerasimov, C. Hölzer
   A. Katbashev, J. Kohn, J. Koopman, C. Lavigne, S. Lehtola, F. März, M. Müller,
   F. Musil, H. Neugebauer, J. Pisarek, C. Plett, P. Pracht, F. Pultar,
   J. Seibert, P. Shushkov, S. Spicher, M. Stahn, M. Steiner, T. Strunk,
   J. Stückrath, T. Rose, and J. Unsleber
   
 * started run on 2025/12/08 at 00:48:07.106     
   ID    Z sym.   atoms
    1    6 C      1-165
    2    1 H      166-200
    3   15 P      201-205

           -------------------------------------------------
          |                Calculation Setup                |
           -------------------------------------------------

          program call               : xtb "C:\Users\LENOVO GAMING\Documents\GitHub\molecular-conductivity-sim\dataset\2nm-5Pdoped-3percent.xyz" --opt --parallel 4
          coordinate file            : C:\Users\LENOVO GAMING\Documents\GitHub\molecular-conductivity-sim\dataset\2nm-5Pdoped-3percent.xyz
          omp threads                :                     4


           -------------------------------------------------
          |                 G F N 2 - x T B                 |
           -------------------------------------------------

        Reference                      10.1021/acs.jctc.8b01176
      * Hamiltonian:
        H0-scaling (s, p, d)           1.850000    2.230000    2.230000
        zeta-weighting                 0.500000
      * Dispersion:
        s8                             2.700000
        a1                             0.520000
        a2                             5.000000
        s9                             5.000000
      * Repulsion:
        kExp                           1.500000    1.000000
        rExp                           1.000000
      * Coulomb:
        alpha                          2.000000
        third order                    shell-resolved
        anisotropic                    true
        a3                             3.000000
        a5                             4.000000
        cn-shift                       1.200000
        cn-exp                         4.000000
        max-rad                        5.000000


          ...................................................
          :                      SETUP                      :
          :.................................................:
          :  # basis functions                 745          :
          :  # atomic orbitals                 740          :
          :  # shells                          380          :
          :  # electrons                       720          :
          :  max. iterations                   250          :
          :  Hamiltonian                  GFN2-xTB          :
          :  restarted?                      false          :
          :  GBSA solvation                  false          :
          :  PC potential                    false          :
          :  electronic temp.          300.0000000     K    :
          :  accuracy                    1.0000000          :
          :  -> integral cutoff          0.2500000E+02      :
          :  -> integral neglect         0.1000000E-07      :
          :  -> SCF convergence          0.1000000E-05 Eh   :
          :  -> wf. convergence          0.1000000E-03 e    :
          :  Broyden damping             0.4000000          :
          :  net charge                          0          :
          :  unpaired electrons                  0          :
          ...................................................

 iter      E             dE          RMSdq      gap      omega  full diag
   1   -391.7917785 -0.391792E+03  0.496E+00    0.46       0.0  T
   2   -390.6228278  0.116895E+01  0.363E+00    0.19       1.0  T
   3   -354.5304796  0.360923E+02  0.533E+00    0.02       1.0  T
   4   -217.5005382  0.137030E+03  0.970E+00    0.09       1.0  T
   5   -383.5908709 -0.166090E+03  0.353E+00    0.03       1.0  T
   6   -389.6741047 -0.608323E+01  0.189E+00    0.26       1.0  T
   7   -391.4186319 -0.174453E+01  0.105E+00    0.22       1.0  T
   8   -391.9365687 -0.517937E+00  0.106E+00    0.06       1.0  T
   9   -391.9500885 -0.135199E-01  0.102E+00    0.08       1.0  T
  10   -391.9399702  0.101183E-01  0.990E-01    0.11       1.0  T
  11   -391.9845946 -0.446243E-01  0.323E-01    0.04       1.0  T
  12   -391.9162947  0.682999E-01  0.453E-01    0.15       1.0  T
  13   -391.9527779 -0.364832E-01  0.246E-01    0.08       1.0  T
  14   -391.9442296  0.854827E-02  0.224E-01    0.09       1.0  T
  15   -391.9538343 -0.960472E-02  0.189E-01    0.09       1.0  T
  16   -391.9551349 -0.130052E-02  0.862E-01    0.03       1.0  T
  17   -391.9769815 -0.218467E-01  0.701E-01    0.02       1.0  T
  18   -391.9684250  0.855646E-02  0.744E-01    0.03       1.0  T
  19   -391.9714800 -0.305500E-02  0.721E-01    0.02       1.0  T
  20   -391.9993738 -0.278937E-01  0.416E-01    0.02       1.0  T
  21   -392.0038802 -0.450647E-02  0.342E-01    0.02       1.0  T
  22   -392.0113984 -0.751818E-02  0.171E-01    0.03       1.0  T
  23   -392.0112025  0.195908E-03  0.198E-01    0.02       1.0  T
  24   -392.0134659 -0.226343E-02  0.125E-01    0.03       1.0  T
  25   -392.0141997 -0.733740E-03  0.863E-02    0.03       1.0  T
  26   -392.0149765 -0.776786E-03  0.219E-02    0.03       1.0  T
  27   -392.0149320  0.444496E-04  0.318E-02    0.03       1.0  T
  28   -392.0149475 -0.154279E-04  0.249E-02    0.03       1.0  T
  29   -392.0150436 -0.961559E-04  0.475E-03    0.04       1.5  T
  30   -392.0150456 -0.199162E-05  0.595E-03    0.04       1.2  T
  31   -392.0150466 -0.992123E-06  0.516E-03    0.04       1.4  T
  32   -392.0150483 -0.169781E-05  0.302E-03    0.04       2.3  T
  33   -392.0150492 -0.946506E-06  0.103E-03    0.04       6.8  T
  34   -392.0150494 -0.138063E-06  0.347E-04    0.04      20.1  T
  35   -392.0150494 -0.182436E-07  0.605E-05    0.04     115.5  T

   *** convergence criteria satisfied after 35 iterations ***

         #    Occupation            Energy/Eh            Energy/eV
      -------------------------------------------------------------
         1        2.0000           -0.7081968             -19.2710
       ...           ...                  ...                  ...
       354        2.0000           -0.3699797             -10.0677
       355        2.0000           -0.3652095              -9.9379
       356        2.0000           -0.3616323              -9.8405
       357        2.0000           -0.3605505              -9.8111
       358        2.0000           -0.3547512              -9.6533
       359        2.0000           -0.3408245              -9.2743
       360        1.2608           -0.3190097              -8.6807 (HOMO)
       361        0.5950           -0.3176861              -8.6447 (LUMO)
       362        0.1442           -0.3160749              -8.6008
       363                         -0.3017926              -8.2122
       364                         -0.2965030              -8.0683
       365                         -0.2886859              -7.8555
       ...                                ...                  ...
       740                          1.0324782              28.0952
      -------------------------------------------------------------
                  HL-Gap            0.0013236 Eh            0.0360 eV
             Fermi-level           -0.3185024 Eh           -8.6669 eV

 SCC (total)                   0 d,  0 h,  0 min,  7.253 sec
 SCC setup                      ...        0 min,  0.005 sec (  0.069%)
 Dispersion                     ...        0 min,  0.016 sec (  0.221%)
 classical contributions        ...        0 min,  0.001 sec (  0.014%)
 integral evaluation            ...        0 min,  0.100 sec (  1.379%)
 iterations                     ...        0 min,  6.653 sec ( 91.728%)
 molecular gradient             ...        0 min,  0.457 sec (  6.301%)
 printout                       ...        0 min,  0.021 sec (  0.290%)

         :::::::::::::::::::::::::::::::::::::::::::::::::::::
         ::                     SUMMARY                     ::
         :::::::::::::::::::::::::::::::::::::::::::::::::::::
         :: total energy            -385.078177801100 Eh    ::
         :: gradient norm              0.072624608166 Eh/a0 ::
         :: HOMO-LUMO gap              0.036015930097 eV    ::
         ::.................................................::
         :: SCC energy              -392.030817486050 Eh    ::
         :: -> isotropic ES            0.004050906701 Eh    ::
         :: -> anisotropic ES          0.013852439846 Eh    ::
         :: -> anisotropic XC          0.139062908478 Eh    ::
         :: -> dispersion             -0.503063659283 Eh    ::
         :: repulsion energy           6.952639684949 Eh    ::
         :: add. restraining           0.000000000000 Eh    ::
         :: total charge              -0.000000000000 e     ::
         :::::::::::::::::::::::::::::::::::::::::::::::::::::

      ----------------------------------------------------------- 
     |                   =====================                   |
     |                        A N C O P T                        |
     |                   =====================                   |
     |               Approximate Normal Coordinate               |
     |                Rational Function Optimizer                |
      ----------------------------------------------------------- 
      ----------------------------------------------------------- 
     |                   =====================                   |
     |                        A N C O P T                        |
     |                   =====================                   |
     |               Approximate Normal Coordinate               |
     |                Rational Function Optimizer                |
      ----------------------------------------------------------- 

          ...................................................
          :                      SETUP                      :
          :.................................................:
          :   optimization level            normal          :
          :   max. optcycles                   615          :
          :   ANC micro-cycles                  20          :
          :   degrees of freedom               609          :
          :.................................................:
          :   RF solver                   davidson          :
          :   write xtbopt.log                true          :
          :   linear?                        false          :
          :   energy convergence         0.5000000E-05 Eh   :
          :   grad. convergence          0.1000000E-02 Eh/α :
          :   maxmium RF displ.          1.0000000          :
          :   Hlow (freq-cutoff)         0.1000000E-01      :
          :   Hmax (freq-cutoff)         5.0000000          :
          :   S6 in model hess.         20.0000000          :
          ...................................................

generating ANC from exact Hessian ...
Using Lindh-Hessian (1995)
 Shifting diagonal of input Hessian by   9.937641692539368E-003
 Lowest  eigenvalues of input Hessian
    0.000000    0.000000    0.000000    0.000000    0.000000    0.000000
    0.010000    0.010066    0.010115    0.010200    0.010239    0.010606
    0.010719    0.010740    0.010787    0.010976    0.011484    0.011558
 Highest eigenvalues
    2.090724    2.099115    2.109422    2.120210    2.143507    2.148351
 

........................................................................
.............................. CYCLE    1 ..............................
........................................................................

 iter      E             dE          RMSdq      gap      omega  full diag
   1   -392.0150494 -0.392015E+03  0.223E-05    0.04       0.0  T
   2   -392.0150493  0.793100E-07  0.667E-04    0.04      10.5  T
   3   -392.0150494 -0.773404E-07  0.110E-04    0.04      63.3  T
     SCC iter.                  ...        0 min,  0.585 sec
     gradient                   ...        0 min,  0.472 sec
 * total energy  :  -385.0781778 Eh     change        0.1444334E-08 Eh
   gradient norm :     0.0726235 Eh/α   predicted     0.0000000E+00 (-100.00%)
   displ. norm   :     0.5662396 α      lambda       -0.2397084E-01
   maximum displ.:     0.2928203 α      in ANC's #45, #44, #46, ...

........................................................................
.............................. CYCLE    2 ..............................
........................................................................

 iter      E             dE          RMSdq      gap      omega  full diag
   1   -392.0179189 -0.392018E+03  0.102E+00    0.11       0.0  T
   2   -391.3294340  0.688485E+00  0.154E+00    0.27       1.0  T
   3   -392.1711544 -0.841720E+00  0.326E-01    0.03       1.0  T
   4   -392.0630596  0.108095E+00  0.830E-01    0.25       1.0  T
   5   -392.1169656 -0.539060E-01  0.545E-01    0.09       1.0  T
   6   -391.9833154  0.133650E+00  0.107E+00    0.14       1.0  T
   7   -392.1091099 -0.125795E+00  0.654E-01    0.15       1.0  T
   8   -392.1708823 -0.617724E-01  0.258E-01    0.06       1.0  T
   9   -392.1813951 -0.105128E-01  0.873E-02    0.04       1.0  T
  10   -392.1825211 -0.112596E-02  0.314E-02    0.03       1.0  T
  11   -392.1820829  0.438168E-03  0.577E-02    0.04       1.0  T
  12   -392.1819735  0.109463E-03  0.640E-02    0.02       1.0  T
  13   -392.1823135 -0.340010E-03  0.459E-02    0.04       1.0  T
  14   -392.1826462 -0.332700E-03  0.150E-02    0.03       1.0  T
  15   -392.1826847 -0.385128E-04  0.145E-03    0.03       4.8  T
  16   -392.1826850 -0.317557E-06  0.580E-04    0.03      12.0  T
  17   -392.1826848  0.212597E-06  0.127E-03    0.03       5.5  T
  18   -392.1826850 -0.252780E-06  0.366E-04    0.03      19.1  T
     SCC iter.                  ...        0 min,  3.501 sec
     gradient                   ...        0 min,  0.452 sec
 * total energy  :  -385.0975616 Eh     change       -0.1938379E-01 Eh
   gradient norm :     0.0443098 Eh/α   predicted    -0.1582935E-01 ( -18.34%)
   displ. norm   :     0.6724814 α      lambda       -0.1863534E-01
   maximum displ.:     0.3734151 α      in ANC's #45, #44, #46, ...

........................................................................
.............................. CYCLE    3 ..............................
........................................................................

 iter      E             dE          RMSdq      gap      omega  full diag
   1   -392.1375478 -0.392138E+03  0.111E+00    0.20       0.0  T
   2   -390.7293393  0.140821E+01  0.181E+00    0.18       1.0  T
   3   -392.0098362 -0.128050E+01  0.938E-01    0.44       1.0  T
   4   -392.1938817 -0.184046E+00  0.109E+00    0.46       1.0  T
   5   -392.2040962 -0.102145E-01  0.890E-01    0.30       1.0  T
   6   -392.3346797 -0.130583E+00  0.178E-01    0.04       1.0  T
   7   -392.1694000  0.165280E+00  0.975E-01    0.14       1.0  T
   8   -392.2928721 -0.123472E+00  0.552E-01    0.10       1.0  T
   9   -392.3323425 -0.394705E-01  0.257E-01    0.02       1.0  T
  10   -392.3336557 -0.131314E-02  0.257E-01    0.05       1.0  T
  11   -392.3451089 -0.114532E-01  0.508E-02    0.01       1.0  T
  12   -392.3453639 -0.254984E-03  0.399E-02    0.02       1.0  T
  13   -392.3455700 -0.206090E-03  0.197E-02    0.02       1.0  T
  14   -392.3456155 -0.455746E-04  0.127E-02    0.02       1.0  T
  15   -392.3456306 -0.150899E-04  0.931E-03    0.02       1.0  T
  16   -392.3456462 -0.155528E-04  0.192E-03    0.02       3.6  T
  17   -392.3456450  0.117144E-05  0.314E-03    0.02       2.2  T
  18   -392.3456468 -0.182936E-05  0.429E-04    0.02      16.3  T
  19   -392.3456469 -0.341232E-07  0.387E-05    0.02     180.4  T
  20   -392.3456469  0.339173E-08  0.144E-04    0.02      48.5  T
     SCC iter.                  ...        0 min,  3.799 sec
     gradient                   ...        0 min,  0.452 sec
 * total energy  :  -385.1113738 Eh     change       -0.1381216E-01 Eh
   gradient norm :     0.0211494 Eh/α   predicted    -0.1353141E-01 (  -2.03%)
   displ. norm   :     0.5863067 α      lambda       -0.8226058E-02
   maximum displ.:     0.3454444 α      in ANC's #45, #44, #43, ...

........................................................................
.............................. CYCLE    4 ..............................
........................................................................

 iter      E             dE          RMSdq      gap      omega  full diag
   1   -392.3066771 -0.392307E+03  0.862E-01    0.12       0.0  T
   2   -391.5283338  0.778343E+00  0.154E+00    0.26       1.0  T
   3   -392.3808868 -0.852553E+00  0.364E-01    0.05       1.0  T
   4   -392.2737432  0.107144E+00  0.978E-01    0.43       1.0  T
   5   -392.3096422 -0.358990E-01  0.809E-01    0.21       1.0  T
   6   -392.3739815 -0.643393E-01  0.617E-01    0.07       1.0  T
   7   -392.4116232 -0.376417E-01  0.397E-01    0.06       1.0  T
   8   -392.4350508 -0.234277E-01  0.201E-01    0.03       1.0  T
   9   -392.4421624 -0.711154E-02  0.456E-02    0.01       1.0  T
  10   -392.4403667  0.179564E-02  0.108E-01    0.02       1.0  T
  11   -392.4425995 -0.223274E-02  0.102E-02    0.01       1.0  T
  12   -392.4426174 -0.179699E-04  0.364E-03    0.01       1.9  T
  13   -392.4426179 -0.458711E-06  0.316E-03    0.01       2.2  T
  14   -392.4426159  0.201162E-05  0.453E-03    0.01       1.5  T
  15   -392.4426199 -0.401997E-05  0.459E-04    0.01      15.2  T
  16   -392.4426199  0.386501E-07  0.634E-04    0.01      11.0  T
  17   -392.4426199 -0.392815E-07  0.454E-04    0.01      15.4  T
     SCC iter.                  ...        0 min,  3.288 sec
     gradient                   ...        0 min,  0.464 sec
 * total energy  :  -385.1169974 Eh     change       -0.5623645E-02 Eh
   gradient norm :     0.0175128 Eh/α   predicted    -0.5526912E-02 (  -1.72%)
   displ. norm   :     0.4099743 α      lambda       -0.2837052E-02
   maximum displ.:     0.2327780 α      in ANC's #45, #44, #33, ...

........................................................................
.............................. CYCLE    5 ..............................
........................................................................

 iter      E             dE          RMSdq      gap      omega  full diag
   1   -392.4795274 -0.392480E+03  0.284E-01    0.03       0.0  T
   2   -392.2309368  0.248591E+00  0.104E+00    0.66       1.0  T
   3   -392.4909899 -0.260053E+00  0.151E-01    0.02       1.0  T
   4   -392.4757940  0.151958E-01  0.293E-01    0.04       1.0  T
   5   -392.4271322  0.486618E-01  0.583E-01    0.07       1.0  T
   6   -392.4938085 -0.666763E-01  0.261E-02    0.01       1.0  T
   7   -392.4926531  0.115543E-02  0.807E-02    0.02       1.0  T
   8   -392.4939049 -0.125182E-02  0.166E-02    0.01       1.0  T
   9   -392.4939226 -0.177000E-04  0.143E-02    0.01       1.0  T
  10   -392.4939528 -0.302127E-04  0.700E-03    0.01       1.0  T
  11   -392.4939612 -0.841294E-05  0.251E-03    0.01       2.8  T
  12   -392.4939612 -0.318132E-07  0.247E-03    0.01       2.8  T
  13   -392.4939624 -0.116021E-05  0.561E-04    0.01      12.4  T
  14   -392.4939625 -0.457032E-07  0.299E-04    0.01      23.4  T
  15   -392.4939625 -0.173532E-07  0.160E-05    0.01     437.1  T
     SCC iter.                  ...        0 min,  2.908 sec
     gradient                   ...        0 min,  0.476 sec
 * total energy  :  -385.1189331 Eh     change       -0.1935718E-02 Eh
   gradient norm :     0.0123680 Eh/α   predicted    -0.1656953E-02 ( -14.40%)
   displ. norm   :     0.2755106 α      lambda       -0.9544451E-03
   maximum displ.:     0.1199210 α      in ANC's #45, #33, #44, ...

........................................................................
.............................. CYCLE    6 ..............................
........................................................................

 iter      E             dE          RMSdq      gap      omega  full diag
   1   -392.5166278 -0.392517E+03  0.507E-02    0.01       0.0  T
   2   -392.4981767  0.184511E-01  0.300E-01    0.04       1.0  T
   3   -392.5103219 -0.121452E-01  0.176E-01    0.01       1.0  T
   4   -392.5147171 -0.439525E-02  0.966E-02    0.02       1.0  T
   5   -392.5156834 -0.966241E-03  0.681E-02    0.02       1.0  T
   6   -392.5166126 -0.929169E-03  0.149E-02    0.01       1.0  T
   7   -392.5166514 -0.388838E-04  0.559E-03    0.01       1.2  T
   8   -392.5166578 -0.638164E-05  0.148E-03    0.01       4.7  T
   9   -392.5166582 -0.375770E-06  0.641E-04    0.01      10.9  T
  10   -392.5166581  0.118164E-06  0.980E-04    0.01       7.1  T
     SCC iter.                  ...        0 min,  1.934 sec
     gradient                   ...        0 min,  0.453 sec
 * total energy  :  -385.1195491 Eh     change       -0.6159682E-03 Eh
   gradient norm :     0.0059792 Eh/α   predicted    -0.5134481E-03 ( -16.64%)
   displ. norm   :     0.1804847 α      lambda       -0.2911807E-03
   maximum displ.:     0.0609354 α      in ANC's #33, #19, #22, ...

........................................................................
.............................. CYCLE    7 ..............................
........................................................................

 iter      E             dE          RMSdq      gap      omega  full diag
   1   -392.5231099 -0.392523E+03  0.314E-02    0.01       0.0  T
   2   -392.5231097  0.209709E-06  0.187E-02    0.01       1.0  T
   3   -392.5215140  0.159571E-02  0.877E-02    0.02       1.0  T
   4   -392.5230462 -0.153227E-02  0.164E-02    0.01       1.0  T
   5   -392.5229433  0.102917E-03  0.283E-02    0.01       1.0  T
   6   -392.5231117 -0.168410E-03  0.156E-03    0.01       4.5  T
   7   -392.5231115  0.239638E-06  0.189E-03    0.01       3.7  T
   8   -392.5231119 -0.446708E-06  0.122E-03    0.01       5.7  T
   9   -392.5231122 -0.268496E-06  0.411E-04    0.01      17.0  T
  10   -392.5231122 -0.323614E-07  0.921E-05    0.01      75.8  T
     SCC iter.                  ...        0 min,  1.926 sec
     gradient                   ...        0 min,  0.479 sec
 * total energy  :  -385.1197610 Eh     change       -0.2119395E-03 Eh
   gradient norm :     0.0036005 Eh/α   predicted    -0.1503348E-03 ( -29.07%)
   displ. norm   :     0.2154996 α      lambda       -0.2319240E-03
   maximum displ.:     0.0785671 α      in ANC's #19, #22, #21, ...

........................................................................
.............................. CYCLE    8 ..............................
........................................................................

 iter      E             dE          RMSdq      gap      omega  full diag
   1   -392.5219439 -0.392522E+03  0.423E-02    0.01       0.0  T
   2   -392.4694395  0.525043E-01  0.503E-01    0.08       1.0  T
   3   -392.5195518 -0.501123E-01  0.112E-01    0.01       1.0  T
   4   -392.5215349 -0.198302E-02  0.483E-02    0.01       1.0  T
   5   -392.5218343 -0.299442E-03  0.300E-02    0.01       1.0  T
   6   -392.5220206 -0.186330E-03  0.403E-03    0.01       1.7  T
   7   -392.5220233 -0.267553E-05  0.211E-03    0.01       3.3  T
   8   -392.5220243 -0.947265E-06  0.343E-04    0.01      20.3  T
   9   -392.5220242  0.529976E-07  0.631E-04    0.01      11.1  T
     SCC iter.                  ...        0 min,  1.718 sec
     gradient                   ...        0 min,  0.481 sec
 * total energy  :  -385.1199242 Eh     change       -0.1632218E-03 Eh
   gradient norm :     0.0037294 Eh/α   predicted    -0.1213490E-03 ( -25.65%)
   displ. norm   :     0.1928067 α      lambda       -0.1382198E-03
   maximum displ.:     0.0734593 α      in ANC's #15, #21, #19, ...

........................................................................
.............................. CYCLE    9 ..............................
........................................................................

 iter      E             dE          RMSdq      gap      omega  full diag
   1   -392.5169702 -0.392517E+03  0.449E-02    0.00       0.0  T
   2   -392.4271247  0.898455E-01  0.658E-01    0.11       1.0  T
   3   -392.5157317 -0.886070E-01  0.853E-02    0.01       1.0  T
   4   -392.5167592 -0.102747E-02  0.437E-02    0.01       1.0  T
   5   -392.5170540 -0.294859E-03  0.214E-02    0.01       1.0  T
   6   -392.5171450 -0.909885E-04  0.633E-03    0.01       1.1  T
   7   -392.5171503 -0.528633E-05  0.377E-03    0.01       1.9  T
   8   -392.5171533 -0.295766E-05  0.340E-04    0.01      20.5  T
   9   -392.5171531  0.210815E-06  0.110E-03    0.01       6.3  T
  10   -392.5171530  0.555901E-07  0.118E-03    0.01       5.9  T
  11   -392.5171533 -0.292438E-06  0.541E-05    0.01     129.2  T
  12   -392.5171533  0.109369E-07  0.235E-04    0.01      29.7  T
     SCC iter.                  ...        0 min,  2.297 sec
     gradient                   ...        0 min,  0.488 sec
 * total energy  :  -385.1200208 Eh     change       -0.9650934E-04 Eh
   gradient norm :     0.0032979 Eh/α   predicted    -0.7167965E-04 ( -25.73%)
   displ. norm   :     0.1516212 α      lambda       -0.7705345E-04
   maximum displ.:     0.0638818 α      in ANC's #15, #21, #22, ...

........................................................................
.............................. CYCLE   10 ..............................
........................................................................

 iter      E             dE          RMSdq      gap      omega  full diag
   1   -392.5127478 -0.392513E+03  0.389E-02    0.00       0.0  T
   2   -392.4248230  0.879248E-01  0.651E-01    0.11       1.0  T
   3   -392.5123963 -0.875733E-01  0.525E-02    0.00       1.0  T
   4   -392.5127753 -0.378958E-03  0.267E-02    0.01       1.0  T
   5   -392.5129144 -0.139135E-03  0.538E-03    0.01       1.3  T
   6   -392.5129115  0.293001E-05  0.728E-03    0.01       1.0  T
   7   -392.5129218 -0.102875E-04  0.191E-03    0.01       3.6  T
   8   -392.5129225 -0.725298E-06  0.421E-04    0.01      16.6  T
   9   -392.5129223  0.155834E-06  0.976E-04    0.01       7.2  T
     SCC iter.                  ...        0 min,  1.676 sec
     gradient                   ...        0 min,  0.451 sec
 * total energy  :  -385.1200736 Eh     change       -0.5280126E-04 Eh
   gradient norm :     0.0018215 Eh/α   predicted    -0.3941448E-04 ( -25.35%)
   displ. norm   :     0.1645354 α      lambda       -0.4160236E-04
   maximum displ.:     0.0728558 α      in ANC's #15, #8, #12, ...

........................................................................
.............................. CYCLE   11 ..............................
........................................................................

 iter      E             dE          RMSdq      gap      omega  full diag
   1   -392.5107637 -0.392511E+03  0.289E-02    0.01       0.0  T
   2   -392.4801054  0.306582E-01  0.386E-01    0.06       1.0  T
   3   -392.5106101 -0.305047E-01  0.338E-02    0.00       1.0  T
   4   -392.5107387 -0.128647E-03  0.176E-02    0.01       1.0  T
   5   -392.5108002 -0.614708E-04  0.348E-03    0.01       2.0  T
   6   -392.5108012 -0.942893E-06  0.346E-03    0.01       2.0  T
   7   -392.5108036 -0.241260E-05  0.999E-04    0.01       7.0  T
   8   -392.5108038 -0.187465E-06  0.289E-04    0.01      24.2  T
   9   -392.5108038 -0.855306E-08  0.218E-04    0.01      32.0  T
     SCC iter.                  ...        0 min,  1.701 sec
     gradient                   ...        0 min,  0.437 sec
 * total energy  :  -385.1201085 Eh     change       -0.3492204E-04 Eh
   gradient norm :     0.0015446 Eh/α   predicted    -0.2105358E-04 ( -39.71%)
   displ. norm   :     0.0654951 α      lambda       -0.1701596E-04
   maximum displ.:     0.0200142 α      in ANC's #15, #8, #12, ...

........................................................................
.............................. CYCLE   12 ..............................
........................................................................

 iter      E             dE          RMSdq      gap      omega  full diag
   1   -392.5135950 -0.392514E+03  0.121E-02    0.01       0.0  T
   2   -392.5024357  0.111593E-01  0.232E-01    0.02       1.0  T
   3   -392.5135335 -0.110978E-01  0.198E-02    0.01       1.0  T
   4   -392.5136066 -0.731286E-04  0.192E-03    0.01       3.6  T
   5   -392.5136051  0.149801E-05  0.289E-03    0.01       2.4  T
   6   -392.5136066 -0.154478E-05  0.148E-03    0.01       4.7  T
   7   -392.5136070 -0.386073E-06  0.622E-04    0.01      11.2  T
   8   -392.5136071 -0.772585E-07  0.111E-04    0.01      63.1  T
     SCC iter.                  ...        0 min,  1.513 sec
     gradient                   ...        0 min,  0.470 sec
 * total energy  :  -385.1201277 Eh     change       -0.1918892E-04 Eh
   gradient norm :     0.0012387 Eh/α   predicted    -0.8528466E-05 ( -55.56%)
   displ. norm   :     0.1065332 α      lambda       -0.1668357E-04
   maximum displ.:     0.0376954 α      in ANC's #8, #15, #3, ...

........................................................................
.............................. CYCLE   13 ..............................
........................................................................

 iter      E             dE          RMSdq      gap      omega  full diag
   1   -392.5161276 -0.392516E+03  0.236E-02    0.01       0.0  T
   2   -392.4574718  0.586558E-01  0.531E-01    0.06       1.0  T
   3   -392.5161518 -0.586800E-01  0.175E-02    0.01       1.0  T
   4   -392.5161970 -0.451845E-04  0.598E-03    0.01       1.2  T
   5   -392.5161957  0.134803E-05  0.568E-03    0.01       1.2  T
   6   -392.5162014 -0.573483E-05  0.277E-03    0.01       2.5  T
   7   -392.5162027 -0.126714E-05  0.131E-03    0.01       5.3  T
   8   -392.5162030 -0.347859E-06  0.182E-04    0.01      38.3  T
   9   -392.5162030 -0.100050E-08  0.177E-04    0.01      39.4  T
     SCC iter.                  ...        0 min,  1.694 sec
     gradient                   ...        0 min,  0.460 sec
 * total energy  :  -385.1201434 Eh     change       -0.1573776E-04 Eh
   gradient norm :     0.0007286 Eh/α   predicted    -0.8388632E-05 ( -46.70%)
   displ. norm   :     0.0763733 α      lambda       -0.7158265E-05
   maximum displ.:     0.0289375 α      in ANC's #8, #3, #4, ...

........................................................................
.............................. CYCLE   14 ..............................
........................................................................

 iter      E             dE          RMSdq      gap      omega  full diag
   1   -392.5166594 -0.392517E+03  0.102E-02    0.01       0.0  T
   2   -392.5144804  0.217901E-02  0.103E-01    0.01       1.0  T
   3   -392.5166613 -0.218086E-02  0.593E-03    0.01       1.2  T
   4   -392.5166611  0.157321E-06  0.146E-03    0.01       4.8  T
   5   -392.5166609  0.188954E-06  0.191E-03    0.01       3.7  T
   6   -392.5166618 -0.868018E-06  0.241E-04    0.01      29.0  T
   7   -392.5166618  0.105763E-07  0.344E-04    0.01      20.3  T
     SCC iter.                  ...        0 min,  1.335 sec
     gradient                   ...        0 min,  0.459 sec
 * total energy  :  -385.1201498 Eh     change       -0.6395762E-05 Eh
   gradient norm :     0.0010387 Eh/α   predicted    -0.3591954E-05 ( -43.84%)
   displ. norm   :     0.0861751 α      lambda       -0.7718866E-05
   maximum displ.:     0.0342039 α      in ANC's #3, #8, #4, ...

........................................................................
.............................. CYCLE   15 ..............................
........................................................................

 iter      E             dE          RMSdq      gap      omega  full diag
   1   -392.5166796 -0.392517E+03  0.109E-02    0.01       0.0  T
   2   -392.5162497  0.429917E-03  0.466E-02    0.00       1.0  T
   3   -392.5166562 -0.406500E-03  0.120E-02    0.01       1.0  T
   4   -392.5166712 -0.149704E-04  0.648E-03    0.01       1.1  T
   5   -392.5166798 -0.866072E-05  0.121E-03    0.01       5.8  T
   6   -392.5166801 -0.260301E-06  0.570E-04    0.01      12.3  T
   7   -392.5166801 -0.296243E-07  0.467E-04    0.01      14.9  T
     SCC iter.                  ...        0 min,  1.337 sec
     gradient                   ...        0 min,  0.458 sec
 * total energy  :  -385.1201565 Eh     change       -0.6669700E-05 Eh
   gradient norm :     0.0007748 Eh/α   predicted    -0.3877039E-05 ( -41.87%)
   displ. norm   :     0.0547804 α      lambda       -0.4758082E-05
   maximum displ.:     0.0260940 α      in ANC's #3, #4, #7, ...

........................................................................
.............................. CYCLE   16 ..............................
........................................................................

 iter      E             dE          RMSdq      gap      omega  full diag
   1   -392.5155317 -0.392516E+03  0.715E-03    0.01       0.0  T
   2   -392.5154086  0.123092E-03  0.247E-02    0.01       1.0  T
   3   -392.5153347  0.739277E-04  0.312E-02    0.00       1.0  T
   4   -392.5155307 -0.196005E-03  0.234E-03    0.01       3.0  T
   5   -392.5155315 -0.786168E-06  0.137E-03    0.01       5.1  T
   6   -392.5155318 -0.312668E-06  0.693E-04    0.01      10.1  T
   7   -392.5155319 -0.917618E-07  0.269E-04    0.01      25.9  T
     SCC iter.                  ...        0 min,  1.305 sec
     gradient                   ...        0 min,  0.445 sec
 * total energy  :  -385.1201615 Eh     change       -0.5053342E-05 Eh
   gradient norm :     0.0006480 Eh/α   predicted    -0.2383706E-05 ( -52.83%)
   displ. norm   :     0.0625234 α      lambda       -0.4678218E-05
   maximum displ.:     0.0326500 α      in ANC's #3, #4, #7, ...

........................................................................
.............................. CYCLE   17 ..............................
........................................................................

 iter      E             dE          RMSdq      gap      omega  full diag
   1   -392.5143993 -0.392514E+03  0.120E-02    0.01       0.0  T
   2   -392.5006360  0.137633E-01  0.258E-01    0.04       1.0  T
   3   -392.5143824 -0.137464E-01  0.135E-02    0.01       1.0  T
   4   -392.5144152 -0.327374E-04  0.188E-03    0.01       3.7  T
   5   -392.5144143  0.855643E-06  0.232E-03    0.01       3.0  T
   6   -392.5144152 -0.932034E-06  0.109E-03    0.01       6.4  T
   7   -392.5144155 -0.248158E-06  0.986E-05    0.01      70.8  T
   8   -392.5144155  0.262838E-08  0.158E-04    0.01      44.3  T
     SCC iter.                  ...        0 min,  1.489 sec
     gradient                   ...        0 min,  0.476 sec
 * total energy  :  -385.1201660 Eh     change       -0.4457596E-05 Eh
   gradient norm :     0.0005014 Eh/α   predicted    -0.2345687E-05 ( -47.38%)
   displ. norm   :     0.0500087 α      lambda       -0.2841278E-05
   maximum displ.:     0.0287678 α      in ANC's #3, #4, #7, ...

   *** GEOMETRY OPTIMIZATION CONVERGED AFTER 17 ITERATIONS ***

------------------------------------------------------------------------
 total energy gain   :        -0.0419882 Eh      -26.3480 kcal/mol
 total RMSD          :         0.1905375 a0        0.1008 Å
 total power (kW/mol):        -6.4847028 (step)   -2.4845 (real)
------------------------------------------------------------------------

 ANCopt (total)                0 d,  0 h,  0 min, 44.372 sec
 optimizer setup                ...        0 min,  0.003 sec (  0.007%)
 model hessian                  ...        0 min,  0.220 sec (  0.496%)
 ANC generation                 ...        0 min,  0.089 sec (  0.201%)
 coordinate transformation      ...        0 min,  0.007 sec (  0.016%)
 single point calculation       ...        0 min, 43.987 sec ( 99.132%)
 optimization log               ...        0 min,  0.041 sec (  0.092%)
 hessian update                 ...        0 min,  0.007 sec (  0.016%)
 rational function              ...        0 min,  0.014 sec (  0.032%)

================
 final structure:
================
205
 xtb: 6.7.1pre (5071a88)
C            9.78109662016611       -8.69705170507284       -0.50591961192490
C            9.08274170480963       -9.80352207293198       -0.05039900623572
C            7.71479777010231       -9.73271409264913        0.05116199094598
C            7.01598558236636       -8.55180739313982       -0.23641766608486
C            9.12439954865548       -7.50251942459852       -0.73706752384810
C            7.73340914747127       -7.37334390940566       -0.54417222488239
C            7.04429639887482       -6.09991615772786       -0.57195707552491
C            9.84536735892146       -3.62842782024133       -0.60327717436166
C            9.16341472032400       -4.79140952098014       -0.79050114330601
C            7.74866625873537       -4.86844651129600       -0.59383772046109
C            7.05868284514000       -3.65060422010672       -0.35581870431268
C            9.88525265251046       -1.25807419880832       -0.01506688010512
C            9.18676652890047       -2.42718001722739       -0.25767397237886
C            7.76578114125078       -2.43208964002952       -0.20495670211112
C            7.08130061397067       -1.21236527794645        0.00028432785219
C            9.90504401712112        1.11839016696638        0.52338643834697
C            9.21527709959864       -0.05709947471823        0.23347803643591
C            7.79434582133276       -0.01051989102035        0.19703682294378
C            7.12339303313001        1.23202973256566        0.35068391110272
C            9.25836376821592        2.32948608812338        0.71806406665942
C            7.83920532608326        2.43452107474976        0.57949789877270
C            7.15244964212870        3.68496693162369        0.64360348361056
C            9.82394641258104        6.19582834823945        1.50236615094236
C            9.22069161056519        4.98872677252158        1.18755531387880
C            7.82472997606215        4.92190047831898        0.88114243953725
C            7.11357460320279        6.14683952720981        0.83508012518410
C            9.77196700112204        8.61911498168834        1.78579438571682
C            9.13306371212080        7.40720132937966        1.47085679601691
C            7.76568415535116        7.38754466917248        1.09043282779050
C            7.08013353282638        8.62006120105474        0.98560128910298
C            9.07484630147233        9.79815301937776        1.72385103230777
C            7.74600888477219        9.79789682388550        1.32256827741012
C            5.57598306309144       -8.52900538637208       -0.27155338415750
C            4.82615118398709       -9.71049942398029       -0.24633858566070
C            3.46396503280429       -9.69347658580935       -0.36243994083006
C            2.75613649867454       -8.49038312796962       -0.47707449993512
C            5.63752336017135       -6.08058535677397       -0.43396318445160
C            4.89774148071490       -7.30089818338275       -0.38501672030223
C            3.48029855973427       -7.28165583024559       -0.43415346567706
C            2.77644393466532       -6.04511814905984       -0.40776325086129
C            5.64316353706880       -3.64026491505219       -0.27347360624620
C            4.93052202022157       -4.85364554941828       -0.35130774158505
C            3.50654874318306       -4.84011003419989       -0.31139611368447
C            2.81779457095870       -3.61128397108352       -0.19072474260566
C            5.66457278907198       -1.19787998406591        0.00538712816091
C            4.95269884248015       -2.40894556049441       -0.12091410984358
C            3.53898949466127       -2.39577360158114       -0.09338831986564
C            2.85318197084319       -1.16634884395624        0.01049629863070
C            5.70534693672338        1.25026548030085        0.26666887912921
C            4.98553449007005        0.03602072352221        0.12597590730734
C            3.57268339195004        0.04863233744143        0.09695044740158
C            2.88655651834293        1.28427570096823        0.13278367943802
C            5.74169563467061        3.70062788148129        0.45295782066371
C            5.02228205845324        2.48403896718119        0.30957179350485
C            3.60638929120306        2.49646570111031        0.20092239050354
C            2.91120192711242        3.72778254395971        0.14100269126480
C            5.72164062180510        6.15314641463068        0.54529991503585
C            5.03622627876263        4.93247721898620        0.39679090450531
C            3.62619846203187        4.94464131830004        0.18947609375105
C            2.93550422708517        6.16483891964851        0.02745515114330
C            5.70684315645910        8.61655000956228        0.54720158159794
C            5.02768175848703        7.38906127022052        0.39508329052943
C            3.64548188542654        7.39345464334200        0.07467327019845
C            2.97137651012551        8.60960861803241       -0.17693633789111
C            5.02272130745045        9.80138137434141        0.26405525987780
C            3.70240391823566        9.79908664621678       -0.10030237174057
C            1.32660567865885       -8.46861874310128       -0.62795810211875
C            0.60759693837790       -9.65093838798249       -0.82935533400033
C           -0.75675174729918       -9.64084172572560       -0.91094353428183
C           -1.49138102379925       -8.45376145416072       -0.82671939637015
C            1.36074895528318       -6.02869794004040       -0.42549768381014
C            0.62049599284914       -7.24087982702317       -0.58403121384562
C           -0.79453145165718       -7.21808805253791       -0.69277809523832
C           -1.47617678406362       -5.95297221576746       -0.53994235726439
C            1.40392045944466       -3.59570520299205       -0.15989516334193
C            0.67882927619620       -4.80176660961869       -0.28072593550372
C           -0.74201005801685       -4.77826151921212       -0.27237238534224
C           -1.43234209975431       -3.55530278985343       -0.09007390984155
C            1.43605222844569       -1.15233093661838        0.02023706257131
C            0.71394252266612       -2.36280451611398       -0.04431183133312
C           -0.70060125661806       -2.34443479247357       -0.00298655896556
C           -1.38625104014507       -1.11516732445319        0.08307275366939
C            1.47051467850310        1.29748605525402        0.08645395021291
C            0.74826210543888        0.08150628721546        0.06638074706186
C           -0.66405349822117        0.09934124168576        0.07865486225788
C           -1.35524931722019        1.33225663486478        0.05963462395118
C            1.50209138351725        3.74059788119866        0.02240171482177
C            0.78026859904100        2.52459985775290        0.03943430275109
C           -0.63402964372132        2.54017391457978       -0.00167774310186
C           -1.32632164755216        3.76664620776814       -0.12774735767439
C            1.53272117724189        6.17291247813378       -0.17139905862754
C            0.81282932237114        4.96386794580454       -0.12880382221975
C           -0.60339215485858        4.97357319478060       -0.24360683872304
C           -1.29004092073550        6.17850727249328       -0.48676105376707
C            1.56545784123863        8.60320509207517       -0.48591827272999
C            0.84564835889198        7.39219368272901       -0.42436536617583
C           -0.55897229954971        7.38870679908988       -0.63044971815723
C           -1.23381453522470        8.58114362335656       -0.96722346331911
C            0.86869869532416        9.76811431411828       -0.83098638565612
C           -0.47892106624193        9.75557595601317       -1.07497070570198
C           -2.92386488983424       -8.53656676797908       -0.85709115834347
C           -3.70489274673067       -9.62255284725888       -0.52013627777562
C           -5.09333131270039       -9.56817078703515       -0.39079470838490
C           -5.85323511053004       -8.39073260892273       -0.29086068294913
C           -2.87440079247731       -5.84001843274075       -0.61719490782091
C           -5.24997084777769       -7.13461508017546       -0.46932793702206
C           -5.78304412278428       -5.91959686741874       -0.00542831763759
C           -2.84422136637385       -3.52621402878575       -0.00111248921477
C           -3.59534893551390       -4.70343383492018       -0.21919126725208
C           -5.01937476124160       -4.71557675964672        0.01585643302241
C           -5.65954057290099       -3.51401406715279        0.40961682285098
C           -2.80077040699198       -1.09182466677783        0.16133004828779
C           -3.52537111041605       -2.29958363713921        0.18046975851564
C           -4.92873666660595       -2.28831366452019        0.35324949570505
C           -5.59764114945819       -1.05590484335587        0.46552577778427
C           -2.77110963253387        1.35480035678081        0.08965473873945
C           -3.48881039627363        0.14178911119431        0.18884041778344
C           -4.89359227432502        0.16340500964632        0.31226274325607
C           -5.58140514261261        1.40163946295448        0.29286900864648
C           -2.73797110008696        3.78298220683101       -0.15222495580712
C           -3.46390415761058        2.57894006815619        0.00993626108470
C           -4.87780069705556        2.60434567617602        0.09012969423559
C           -5.58302670872736        3.83113933579244       -0.05131552350670
C           -2.70241524231484        6.18159041057586       -0.58815326904030
C           -3.42889687174035        4.99336962164098       -0.36686088748205
C           -4.85163202918995        5.00887463694243       -0.36711102992144
C           -5.52902788122893        6.19062553365013       -0.70478311005950
C           -2.65850490749349        8.56133233768137       -1.18013460610369
C           -3.38716316638620        7.37596341086738       -0.93621646407434
C           -4.80029214334574        7.36339909852694       -1.05853882803987
C           -5.47657635977672        8.51561370966557       -1.50970865181867
C           -3.36392164593427        9.68771062461441       -1.61656649215566
C           -4.72372732253600        9.65968976429325       -1.79001585608614
C           -7.22985887576798       -8.40025138618917        0.14573173282648
C           -8.00311502910509       -9.55744215701703        0.12878010441353
C           -9.32588023589624       -9.55490626301981        0.54396746071194
C           -9.89594438678817       -8.39297218481422        1.00466836785682
C           -7.10428168051653       -5.93929654608415        0.53154805332502
C           -7.81750529645418       -7.17549308877026        0.55794246780226
C           -9.15667442103242       -7.20369318010287        1.01968558979005
C           -9.70689965029736       -6.01523594027112        1.53816919327080
C           -7.00924106261434       -3.50010039546723        0.85304268049287
C           -7.70108295161927       -4.74386571555439        0.99243966134475
C           -9.01282435823424       -4.84143681470097        1.54466846343294
C           -6.98474805562189       -1.03042514825036        0.75561006858249
C           -7.65259558183162       -2.23761732466740        1.07475464992131
C           -8.98141830891470       -2.12528432219647        1.56709244769605
C           -9.64504644429443       -0.92836528432723        1.56300124198472
C           -6.98472417894712        1.43650466168625        0.49795446475314
C           -7.65789304406510        0.21878796210177        0.78629910805046
C           -9.02584569907912        0.25300378697319        1.12965650017264
C           -9.69560166740723        1.48216947915548        1.13301424895296
C           -6.98700115878851        3.87819928531855        0.10771262603459
C           -7.67869960138580        2.67112438247273        0.47128595669648
C           -9.05792049145652        2.64930424847943        0.80080469522365
C           -6.94747076872815        6.21402595090552       -0.67930139491370
C           -7.66488952713098        5.10259014831124       -0.17602348960178
C           -9.07759737994889        5.25427185427665       -0.03506028303806
C           -9.73099723350577        6.34125687990316       -0.53771545905114
C           -6.91448861220980        8.49233957320499       -1.64345683934482
C           -7.62716109532090        7.36942131072587       -1.15638033283999
C           -9.04249628851802        7.39955819566510       -1.16673794690496
C           -9.72289916743878        8.48497936222846       -1.73032767948166
C           -7.63025078054088        9.54109442852556       -2.21680513144723
C           -9.01572041052395        9.53205266687829       -2.27215309031029
H           10.84828989871991       -8.75252435938714       -0.67374865697783
H            9.60369436977163      -10.71855306485670        0.18869118581144
H            7.17757446113594      -10.61035809467409        0.37098579447613
H           11.13547871530862       -6.17018299620283       -0.58788614852007
H           10.91847973326879       -3.60601108659051       -0.74350289775178
H           10.96549793922931       -1.26576033575923       -0.02560153741561
H           10.98361819518584        1.08906472597086        0.60571710311145
H           10.87493829868973        6.19604077987880        1.76069471098676
H           10.81123417975724        8.59870481212992        2.07827592618597
H            5.31770324841207      -10.66606509359205       -0.16881084734461
H            2.94297194968286      -10.63627176143109       -0.34791374349316
H            1.11811864750751      -10.59279651785974       -0.93955046538688
H           -1.28139705682234      -10.56846063550329       -1.07904347126893
H           -3.23099043573811      -10.55538209058876       -0.24290265755962
H           -5.58307167393967      -10.50191496721169       -0.16039903102930
H           -7.58132881045294      -10.48072914887062       -0.23547120330101
H           -9.89895534718560      -10.46970396213678        0.51025254089007
H          -10.91627126160835       -8.37791040765134        1.35867048510426
H          -10.70241792829318       -6.04693801756771        1.96286147974044
H          -10.98146796701986       -3.46417403468646        1.77285034939549
H          -10.66070444303470       -0.87942890678880        1.93409387605521
H          -10.73850838879949        1.50993400281298        1.42250118754092
H          -11.03127729632015        3.83800573294508        0.09844423243579
H          -10.80601916964729        6.41338446558778       -0.43049013531085
H          -10.80297422209794        8.48357829903590       -1.73424656295359
H           -9.53582022226034       10.36151624229597       -2.72861479672284
H            9.55377930313710       10.73186100912230        1.97994661180599
H            7.22786804131017       10.74225577952815        1.29043951058912
H            5.53474495930228       10.74821913401865        0.31724046391593
H            3.22993994652107       10.74543609586269       -0.30572422921507
H            1.38985532075080       10.70723641970022       -0.92016804782172
H           -0.95568027608245       10.68631488871583       -1.33594210404427
H           -2.84298652109011       10.60524750551309       -1.83670385205318
H           -5.21224143123979       10.55900758309343       -2.12852348611198
H           -7.11094294291356       10.38549328378203       -2.64038271322829
P           10.35022835144063        3.63517838714522        1.17325658389205
P          -10.03366099846134        4.15385763524046        1.03119672101970
P           -9.76373013837943       -3.48039304351788        2.46501226099776
P           -3.78272120758199       -7.10234006866958       -1.47968826850740
P           10.07807917990157       -6.17613558039532       -1.50682915026518
 
 Bond Distances (Angstroems)
 ---------------------------
C1-C2=1.3855         C1-C5=1.3826         C1-H166=1.0817       C2-C1=1.3855         C2-C3=1.3735         C2-H167=1.0797       
C3-C2=1.3735         C3-C4=1.4020         C3-H168=1.0776       C4-C3=1.4020         C4-C6=1.4136         C4-C33=1.4406        
C5-C1=1.3826         C5-C6=1.4102         C5-P205=1.8059       C6-C4=1.4136         C6-C5=1.4102         C6-C7=1.4482         
C7-C6=1.4482         C7-C10=1.4188        C7-C37=1.4137        C8-C9=1.3611         C8-C13=1.4129        C8-H170=1.0825       
C9-C8=1.3611         C9-C10=1.4304        C9-P205=1.8075       C10-C7=1.4188        C10-C9=1.4304        C10-C11=1.4198       
C11-C10=1.4198       C11-C14=1.4169       C11-C41=1.4180       C12-C13=1.3833       C12-C17=1.3975       C12-H171=1.0803      
C13-C8=1.4129        C13-C12=1.3833       C13-C14=1.4220       C14-C11=1.4169       C14-C13=1.4220       C14-C15=1.4136       
C15-C14=1.4136       C15-C18=1.4112       C15-C45=1.4168       C16-C17=1.3934       C16-C20=1.3867       C16-H172=1.0821      
C17-C12=1.3975       C17-C16=1.3934       C17-C18=1.4222       C18-C15=1.4112       C18-C17=1.4222       C18-C19=1.4205       
C19-C18=1.4205       C19-C21=1.4180       C19-C49=1.4206       C20-C16=1.3867       C20-C21=1.4298       C20-P201=1.7619      
C21-C19=1.4180       C21-C20=1.4298       C21-C22=1.4281       C22-C21=1.4281       C22-C25=1.4277       C22-C53=1.4237       
C23-C24=1.3857       C23-C28=1.3949       C23-H173=1.0823      C24-C23=1.3857       C24-C25=1.4308       C24-P201=1.7630      
C25-C22=1.4277       C25-C24=1.4308       C25-C26=1.4172       C26-C25=1.4172       C26-C29=1.4247       C26-C57=1.4218       
C27-C28=1.4057       C27-C31=1.3711       C27-H174=1.0798      C28-C23=1.3949       C28-C27=1.4057       C28-C29=1.4194       
C29-C26=1.4247       C29-C28=1.4194       C29-C30=1.4142       C30-C29=1.4142       C30-C32=1.3944       C30-C61=1.4416       
C31-C27=1.3711       C31-C32=1.3881       C31-H192=1.0802      C32-C30=1.3944       C32-C31=1.3881       C32-H193=1.0776      
C33-C4=1.4406        C33-C34=1.3996       C33-C38=1.4075       C34-C33=1.3996       C34-C35=1.3672       C34-H175=1.0774      
C35-C34=1.3672       C35-C36=1.4006       C35-H176=1.0773      C36-C35=1.4006       C36-C39=1.4097       C36-C67=1.4376       
C37-C7=1.4137        C37-C38=1.4279       C37-C42=1.4185       C38-C33=1.4075       C38-C37=1.4279       C38-C39=1.4184       
C39-C36=1.4097       C39-C38=1.4184       C39-C40=1.4231       C40-C39=1.4231       C40-C43=1.4122       C40-C71=1.4159       
C41-C11=1.4180       C41-C42=1.4093       C41-C46=1.4199       C42-C37=1.4185       C42-C41=1.4093       C42-C43=1.4246       
C43-C40=1.4122       C43-C42=1.4246       C43-C44=1.4138       C44-C43=1.4138       C44-C47=1.4167       C44-C75=1.4143       
C45-C15=1.4168       C45-C46=1.4105       C45-C50=1.4136       C46-C41=1.4199       C46-C45=1.4105       C46-C47=1.4140       
C47-C44=1.4167       C47-C46=1.4140       C47-C48=1.4116       C48-C47=1.4116       C48-C51=1.4147       C48-C79=1.4172       
C49-C19=1.4206       C49-C50=1.4186       C49-C54=1.4109       C50-C45=1.4136       C50-C49=1.4186       C50-C51=1.4132       
C51-C48=1.4147       C51-C50=1.4132       C51-C52=1.4138       C52-C51=1.4138       C52-C55=1.4115       C52-C83=1.4169       
C53-C22=1.4237       C53-C54=1.4206       C53-C58=1.4207       C54-C49=1.4109       C54-C53=1.4206       C54-C55=1.4201       
C55-C52=1.4115       C55-C54=1.4201       C55-C56=1.4153       C56-C55=1.4153       C56-C59=1.4122       C56-C87=1.4142       
C57-C26=1.4218       C57-C58=1.4078       C57-C62=1.4254       C58-C53=1.4207       C58-C57=1.4078       C58-C59=1.4252       
C59-C56=1.4122       C59-C58=1.4252       C59-C60=1.4115       C60-C59=1.4115       C60-C63=1.4198       C60-C91=1.4168       
C61-C30=1.4416       C61-C62=1.4111       C61-C65=1.3971       C62-C57=1.4254       C62-C61=1.4111       C62-C63=1.4189       
C63-C60=1.4198       C63-C62=1.4189       C63-C64=1.4131       C64-C63=1.4131       C64-C66=1.3983       C64-C95=1.4395       
C65-C61=1.3971       C65-C66=1.3697       C65-H194=1.0777      C66-C64=1.3983       C66-C65=1.3697       C66-H195=1.0775      
C67-C36=1.4376       C67-C68=1.3984       C67-C72=1.4170       C68-C67=1.3984       C68-C69=1.3668       C68-H177=1.0770      
C69-C68=1.3668       C69-C70=1.3985       C69-H178=1.0789      C70-C69=1.3985       C70-C73=1.4249       C70-C101=1.4352      
C71-C40=1.4159       C71-C72=1.4292       C71-C76=1.4111       C72-C67=1.4170       C72-C71=1.4292       C72-C73=1.4194       
C73-C70=1.4249       C73-C72=1.4194       C73-C74=1.4452       C74-C73=1.4452       C74-C77=1.4109       C74-C105=1.4049      
C75-C44=1.4143       C75-C76=1.4124       C75-C80=1.4176       C76-C71=1.4111       C76-C75=1.4124       C76-C77=1.4211       
C77-C74=1.4109       C77-C76=1.4211       C77-C78=1.4161       C78-C77=1.4161       C78-C81=1.4175       C78-C108=1.4150      
C79-C48=1.4172       C79-C80=1.4110       C79-C84=1.4133       C80-C75=1.4176       C80-C79=1.4110       C80-C81=1.4153       
C81-C78=1.4175       C81-C80=1.4153       C81-C82=1.4102       C82-C81=1.4102       C82-C85=1.4130       C82-C112=1.4169      
C83-C52=1.4169       C83-C84=1.4144       C83-C88=1.4087       C84-C79=1.4133       C84-C83=1.4144       C84-C85=1.4125       
C85-C82=1.4130       C85-C84=1.4125       C85-C86=1.4136       C86-C85=1.4136       C86-C89=1.4082       C86-C116=1.4164      
C87-C56=1.4142       C87-C88=1.4142       C87-C92=1.4122       C88-C83=1.4087       C88-C87=1.4142       C88-C89=1.4150       
C89-C86=1.4082       C89-C88=1.4150       C89-C90=1.4140       C90-C89=1.4140       C90-C93=1.4116       C90-C120=1.4120      
C91-C60=1.4168       C91-C92=1.4078       C91-C96=1.4222       C92-C87=1.4122       C92-C91=1.4078       C92-C93=1.4209       
C93-C90=1.4116       C93-C92=1.4209       C93-C94=1.4080       C94-C93=1.4080       C94-C97=1.4212       C94-C124=1.4160      
C95-C64=1.4395       C95-C96=1.4101       C95-C99=1.4006       C96-C91=1.4222       C96-C95=1.4101       C96-C97=1.4197       
C97-C94=1.4212       C97-C96=1.4197       C97-C98=1.4109       C98-C97=1.4109       C98-C100=1.4003      C98-C128=1.4406      
C99-C95=1.4006       C99-C100=1.3696      C99-H196=1.0777      C100-C98=1.4003      C100-C99=1.3696      C100-H197=1.0778     
C101-C70=1.4352      C101-C102=1.3795     C101-P204=1.7839     C102-C101=1.3795     C102-C103=1.3955     C102-H179=1.0824     
C103-C102=1.3955     C103-C104=1.4049     C103-H180=1.0793     C104-C103=1.4049     C104-C106=1.4049     C104-C134=1.4442     
C105-C74=1.4049      C105-C109=1.4036     C105-P204=1.7783     C106-C104=1.4049     C106-C107=1.4056     C106-P204=1.7818     
C107-C106=1.4056     C107-C110=1.4259     C107-C138=1.4263     C108-C78=1.4150      C108-C109=1.4134     C108-C113=1.4148     
C109-C105=1.4036     C109-C108=1.4134     C109-C110=1.4433     C110-C107=1.4259     C110-C109=1.4433     C110-C111=1.4173     
C111-C110=1.4173     C111-C114=1.4281     C111-C142=1.4207     C112-C82=1.4169      C112-C113=1.4086     C112-C117=1.4128     
C113-C108=1.4148     C113-C112=1.4086     C113-C114=1.4140     C114-C111=1.4281     C114-C113=1.4140     C114-C115=1.4067     
C115-C114=1.4067     C115-C118=1.4163     C115-C145=1.4173     C116-C86=1.4164      C116-C117=1.4129     C116-C121=1.4088     
C117-C112=1.4128     C117-C116=1.4129     C117-C118=1.4104     C118-C115=1.4163     C118-C117=1.4104     C118-C119=1.4166     
C119-C118=1.4166     C119-C122=1.4081     C119-C149=1.4187     C120-C90=1.4120      C120-C121=1.4153     C120-C125=1.4101     
C121-C116=1.4088     C121-C120=1.4153     C121-C122=1.4164     C122-C119=1.4081     C122-C121=1.4164     C122-C123=1.4221     
C123-C122=1.4221     C123-C126=1.4219     C123-C153=1.4137     C124-C94=1.4160      C124-C125=1.4102     C124-C129=1.4201     
C125-C120=1.4101     C125-C124=1.4102     C125-C126=1.4228     C126-C123=1.4219     C126-C125=1.4228     C126-C127=1.4034     
C127-C126=1.4034     C127-C130=1.4253     C127-C156=1.4189     C128-C98=1.4406      C128-C129=1.4126     C128-C132=1.3989     
C129-C124=1.4201     C129-C128=1.4126     C129-C130=1.4185     C130-C127=1.4253     C130-C129=1.4185     C130-C131=1.4101     
C131-C130=1.4101     C131-C133=1.3979     C131-C160=1.4443     C132-C128=1.3989     C132-C133=1.3711     C132-H198=1.0778     
C133-C131=1.3979     C133-C132=1.3711     C133-H199=1.0780     C134-C104=1.4442     C134-C135=1.3919     C134-C139=1.4196     
C135-C134=1.3919     C135-C136=1.3864     C135-H181=1.0784     C136-C135=1.3864     C136-C137=1.3738     C136-H182=1.0800     
C137-C136=1.3738     C137-C140=1.4004     C137-H183=1.0801     C138-C107=1.4263     C138-C139=1.4274     C138-C143=1.4134     
C139-C134=1.4196     C139-C138=1.4274     C139-C140=1.4168     C140-C137=1.4004     C140-C139=1.4168     C140-C141=1.4085     
C141-C140=1.4085     C141-C144=1.3637     C141-H184=1.0828     C142-C111=1.4207     C142-C143=1.4300     C142-C146=1.4342     
C143-C138=1.4134     C143-C142=1.4300     C143-C144=1.4266     C144-C141=1.3637     C144-C143=1.4266     C144-P203=1.8065     
C145-C115=1.4173     C145-C146=1.4160     C145-C150=1.4194     C146-C142=1.4342     C146-C145=1.4160     C146-C147=1.4215     
C147-C146=1.4215     C147-C148=1.3686     C147-P203=1.8040     C148-C147=1.3686     C148-C151=1.4024     C148-H186=1.0824     
C149-C119=1.4187     C149-C150=1.4210     C149-C154=1.4165     C150-C145=1.4194     C150-C149=1.4210     C150-C151=1.4108     
C151-C148=1.4024     C151-C150=1.4108     C151-C152=1.3998     C152-C151=1.3998     C152-C155=1.3708     C152-H187=1.0827     
C153-C123=1.4137     C153-C154=1.4379     C153-C157=1.4280     C154-C149=1.4165     C154-C153=1.4379     C154-C155=1.4182     
C155-C152=1.3708     C155-C154=1.4182     C155-P202=1.8080     C156-C127=1.4189     C156-C157=1.4154     C156-C161=1.4229     
C157-C153=1.4280     C157-C156=1.4154     C157-C158=1.4278     C158-C157=1.4278     C158-C159=1.3642     C158-P202=1.8061     
C159-C158=1.3642     C159-C162=1.4106     C159-H189=1.0828     C160-C131=1.4443     C160-C161=1.4164     C160-C164=1.3932     
C161-C156=1.4229     C161-C160=1.4164     C161-C162=1.4157     C162-C159=1.4106     C162-C161=1.4157     C162-C163=1.3995     
C163-C162=1.3995     C163-C165=1.3748     C163-H190=1.0801     C164-C160=1.3932     C164-C165=1.3866     C164-H200=1.0780     
C165-C163=1.3748     C165-C164=1.3866     C165-H191=1.0802     H166-C1=1.0817       H167-C2=1.0797       H168-C3=1.0776       
H169-P205=1.4009     H170-C8=1.0825       H171-C12=1.0803      H172-C16=1.0821      H173-C23=1.0823      H174-C27=1.0798      
H175-C34=1.0774      H176-C35=1.0773      H177-C68=1.0770      H178-C69=1.0789      H179-C102=1.0824     H180-C103=1.0793     
H181-C135=1.0784     H182-C136=1.0800     H183-C137=1.0801     H184-C141=1.0828     H185-P203=1.4008     H186-C148=1.0824     
H187-C152=1.0827     H188-P202=1.4018     H189-C159=1.0828     H190-C163=1.0801     H191-C165=1.0802     H192-C31=1.0802      
H193-C32=1.0776      H194-C65=1.0777      H195-C66=1.0775      H196-C99=1.0777      H197-C100=1.0778     H198-C132=1.0778     
H199-C133=1.0780     H200-C164=1.0780     P201-C20=1.7619      P201-C24=1.7630      P202-C155=1.8080     P202-C158=1.8061     
P202-H188=1.4018     P203-C144=1.8065     P203-C147=1.8040     P203-H185=1.4008     P204-C101=1.7839     P204-C105=1.7783     
P204-C106=1.7818     P205-C5=1.8059       P205-C9=1.8075       P205-H169=1.4009     
 C  H  Rav=1.0797 sigma=0.0020  Rmin=1.0770  Rmax=1.0828    32
 C  C  Rav=1.4118 sigma=0.0160  Rmin=1.3611  Rmax=1.4482   226
 P  H  Rav=1.4012 sigma=0.0004  Rmin=1.4008  Rmax=1.4018     3
 P  C  Rav=1.7915 sigma=0.0174  Rmin=1.7619  Rmax=1.8080    11
 
 selected bond angles (degree)
 --------------------
C5-C1-C2=120.37                H166-C1-C2=120.49              H166-C1-C5=119.14              C3-C2-C1=119.02                
H167-C2-C1=120.43              H167-C2-C3=120.52              C4-C3-C2=121.65                H168-C3-C2=118.46              
H168-C3-C4=119.89              C6-C4-C3=119.60                C33-C4-C3=121.10               C33-C4-C6=119.26               
C6-C5-C1=121.65                P205-C5-C1=117.06              P205-C5-C6=120.79              C5-C6-C4=117.00                
C7-C6-C4=119.72                C7-C6-C5=123.18                C10-C7-C6=121.82               C37-C7-C6=118.93               
C37-C7-C10=118.92              C13-C8-C9=121.77               H170-C8-C9=119.77              H170-C8-C13=118.44             
C10-C9-C8=121.51               P205-C9-C8=117.10              P205-C9-C10=120.91             C9-C10-C7=122.67               
C11-C10-C7=120.04              C11-C10-C9=117.23              
 
 selected dihedral angles (degree)
 ---------------------------------
C3-C2-C1-C5=  5.88            C3-C2-C1-H166=185.13          H167-C2-C1-C5=183.80          H167-C2-C1-H166=  3.05        
C4-C3-C2-C1=357.07            C4-C3-C2-H167=179.15          H168-C3-C2-C1=177.73          H168-C3-C2-H167=359.81        
C6-C4-C3-C2=355.28            C6-C4-C3-H168=174.61          C33-C4-C3-C2=173.00           C33-C4-C3-H168=352.33         
C6-C5-C1-C2=358.83            C6-C5-C1-H166=179.57          P205-C5-C1-C2=186.82          P205-C5-C1-H166=  7.56        
C5-C6-C4-C3=  9.10            C5-C6-C4-C33=191.34           C7-C6-C4-C3=192.61            C7-C6-C4-C33= 14.85           
C4-C6-C5-C1=353.69            C4-C6-C5-P205=165.41          C7-C6-C5-C1=170.05            C7-C6-C5-P205=341.77          
C10-C7-C6-C4=166.48           C10-C7-C6-C5=350.22           C37-C7-C6-C4=353.14           C37-C7-C6-C5=176.88           
C10-C9-C8-C13=357.44          C10-C9-C8-H170=178.95         P205-C9-C8-C13=169.57         P205-C9-C8-H170=351.07        
C9-C10-C7-C6=  9.57           C9-C10-C7-C37=182.91          C11-C10-C7-C6=192.43          C11-C10-C7-C37=  5.78         
C7-C10-C9-C8=190.31           C7-C10-C9-P205= 18.49         C11-C10-C9-C8=  7.53          C11-C10-C9-P205=195.70        
           -------------------------------------------------
          |                Final Singlepoint                |
           -------------------------------------------------

          ...................................................
          :                      SETUP                      :
          :.................................................:
          :  # basis functions                 745          :
          :  # atomic orbitals                 740          :
          :  # shells                          380          :
          :  # electrons                       720          :
          :  max. iterations                   250          :
          :  Hamiltonian                  GFN2-xTB          :
          :  restarted?                      false          :
          :  GBSA solvation                  false          :
          :  PC potential                    false          :
          :  electronic temp.          300.0000000     K    :
          :  accuracy                    1.0000000          :
          :  -> integral cutoff          0.2500000E+02      :
          :  -> integral neglect         0.1000000E-07      :
          :  -> SCF convergence          0.1000000E-05 Eh   :
          :  -> wf. convergence          0.1000000E-03 e    :
          :  Broyden damping             0.4000000          :
          :  net charge                          0          :
          :  unpaired electrons                  0          :
          ...................................................

 iter      E             dE          RMSdq      gap      omega  full diag
   1   -392.5144155 -0.392514E+03  0.492E-05    0.01       0.0  T
   2   -392.5144151  0.411567E-06  0.141E-03    0.01       4.9  T
   3   -392.5144155 -0.411918E-06  0.230E-05    0.01     303.5  T
   4   -392.5144155 -0.117211E-09  0.139E-05    0.01     501.4  T

   *** convergence criteria satisfied after 4 iterations ***

         #    Occupation            Energy/Eh            Energy/eV
      -------------------------------------------------------------
         1        2.0000           -0.6868708             -18.6907
       ...           ...                  ...                  ...
       354        2.0000           -0.3694603             -10.0535
       355        2.0000           -0.3677869             -10.0080
       356        2.0000           -0.3634505              -9.8900
       357        2.0000           -0.3606613              -9.8141
       358        2.0000           -0.3545036              -9.6465
       359        2.0000           -0.3416186              -9.2959
       360        1.0664           -0.3243301              -8.8255 (HOMO)
       361        0.9334           -0.3240771              -8.8186 (LUMO)
       362        0.0002           -0.3153917              -8.5822
       363                         -0.2993086              -8.1446
       364                         -0.2932813              -7.9806
       365                         -0.2892676              -7.8714
       ...                                ...                  ...
       740                          0.9297197              25.2990
      -------------------------------------------------------------
                  HL-Gap            0.0002529 Eh            0.0069 eV
             Fermi-level           -0.3242038 Eh           -8.8220 eV

 SCC (total)                   0 d,  0 h,  0 min,  1.363 sec
 SCC setup                      ...        0 min,  0.004 sec (  0.293%)
 Dispersion                     ...        0 min,  0.011 sec (  0.807%)
 classical contributions        ...        0 min,  0.001 sec (  0.073%)
 integral evaluation            ...        0 min,  0.093 sec (  6.823%)
 iterations                     ...        0 min,  0.773 sec ( 56.713%)
 molecular gradient             ...        0 min,  0.466 sec ( 34.189%)
 printout                       ...        0 min,  0.015 sec (  1.101%)

         :::::::::::::::::::::::::::::::::::::::::::::::::::::
         ::                     SUMMARY                     ::
         :::::::::::::::::::::::::::::::::::::::::::::::::::::
         :: total energy            -385.120165984736 Eh    ::
         :: gradient norm              0.000500534639 Eh/a0 ::
         :: HOMO-LUMO gap              0.006882803520 eV    ::
         ::.................................................::
         :: SCC energy              -392.530229402827 Eh    ::
         :: -> isotropic ES            0.003726252657 Eh    ::
         :: -> anisotropic ES          0.012184589206 Eh    ::
         :: -> anisotropic XC          0.130461989742 Eh    ::
         :: -> dispersion             -0.510527180703 Eh    ::
         :: repulsion energy           7.410063418091 Eh    ::
         :: add. restraining           0.000000000000 Eh    ::
         :: total charge              -0.000000000004 e     ::
         :::::::::::::::::::::::::::::::::::::::::::::::::::::

           -------------------------------------------------
          |                Property Printout                |
           -------------------------------------------------

    * Orbital Energies and Occupations

         #    Occupation            Energy/Eh            Energy/eV
      -------------------------------------------------------------
         1        2.0000           -0.6868708             -18.6907
       ...           ...                  ...                  ...
       348        2.0000           -0.3847720             -10.4702
       349        2.0000           -0.3844051             -10.4602
       350        2.0000           -0.3829219             -10.4198
       351        2.0000           -0.3814838             -10.3807
       352        2.0000           -0.3794410             -10.3251
       353        2.0000           -0.3731852             -10.1549
       354        2.0000           -0.3694603             -10.0535
       355        2.0000           -0.3677869             -10.0080
       356        2.0000           -0.3634505              -9.8900
       357        2.0000           -0.3606613              -9.8141
       358        2.0000           -0.3545036              -9.6465
       359        2.0000           -0.3416186              -9.2959
       360        1.0664           -0.3243301              -8.8255 (HOMO)
       361        0.9334           -0.3240771              -8.8186 (LUMO)
       362        0.0002           -0.3153917              -8.5822
       363                         -0.2993086              -8.1446
       364                         -0.2932813              -7.9806
       365                         -0.2892676              -7.8714
       366                         -0.2817266              -7.6662
       367                         -0.2782601              -7.5718
       368                         -0.2754789              -7.4962
       369                         -0.2683340              -7.3017
       370                         -0.2654426              -7.2231
       371                         -0.2640499              -7.1852
       ...                                ...                  ...
       740                          0.9297197              25.2990
      -------------------------------------------------------------
                  HL-Gap            0.0002529 Eh            0.0069 eV
             Fermi-level           -0.3242038 Eh           -8.8220 eV

     #   Z          covCN         q      C6AA      α(0)
     1   6 C        3.039    -0.034    28.812     8.804
     2   6 C        2.915    -0.030    28.751     8.793
     3   6 C        2.925    -0.037    28.923     8.820
     4   6 C        2.985     0.006    27.873     8.660
     5   6 C        2.922     0.005    27.906     8.663
     6   6 C        3.045     0.005    27.874     8.659
     7   6 C        2.974     0.002    27.977     8.676
     8   6 C        3.050    -0.042    28.996     8.831
     9   6 C        2.914     0.004    27.939     8.667
    10   6 C        3.035     0.004    27.912     8.666
    11   6 C        2.989     0.001    28.005     8.681
    12   6 C        2.926    -0.044    29.098     8.846
    13   6 C        2.981     0.012    27.750     8.641
    14   6 C        2.994    -0.001    28.031     8.685
    15   6 C        2.990     0.001    27.986     8.678
    16   6 C        3.133    -0.043    28.842     8.791
    17   6 C        2.980     0.011    27.760     8.643
    18   6 C        2.994     0.000    28.014     8.682
    19   6 C        2.986     0.001    28.002     8.680
    20   6 C        2.913    -0.001    28.043     8.684
    21   6 C        3.020     0.004    27.922     8.668
    22   6 C        2.972     0.002    27.982     8.677
    23   6 C        3.136    -0.042    28.817     8.787
    24   6 C        2.913    -0.001    28.055     8.685
    25   6 C        3.018     0.003    27.929     8.669
    26   6 C        2.984     0.001    28.008     8.681
    27   6 C        2.923    -0.036    28.902     8.816
    28   6 C        2.983     0.012    27.746     8.640
    29   6 C        2.995     0.002    27.970     8.675
    30   6 C        2.979     0.006    27.875     8.660
    31   6 C        2.913    -0.029    28.725     8.789
    32   6 C        2.923    -0.037    28.910     8.817
    33   6 C        2.983     0.005    27.906     8.665
    34   6 C        2.920    -0.037    28.919     8.819
    35   6 C        2.920    -0.037    28.921     8.819
    36   6 C        2.982     0.005    27.915     8.667
    37   6 C        2.985    -0.001    28.035     8.685
    38   6 C        2.990     0.002    27.981     8.677
    39   6 C        2.992     0.002    27.979     8.677
    40   6 C        2.987     0.000    28.014     8.682
[...]
    15   6 C       18   6 C                                       1.4112327
    17   6 C       18   6 C                                       1.4221616
    18   6 C       19   6 C                                       1.4204630
    16   6 C       20   6 C                                       1.3866681
    19   6 C       21   6 C                                       1.4180017
    20   6 C       21   6 C                                       1.4297706
    21   6 C       22   6 C                                       1.4280610
    23   6 C       24   6 C                                       1.3856828
    22   6 C       25   6 C                                       1.4277222
    24   6 C       25   6 C                                       1.4307564
    25   6 C       26   6 C                                       1.4171590
    23   6 C       28   6 C                                       1.3948966
    27   6 C       28   6 C                                       1.4057447
    26   6 C       29   6 C                                       1.4247110
    28   6 C       29   6 C                                       1.4194492
    29   6 C       30   6 C                                       1.4142371
    27   6 C       31   6 C                                       1.3711110
    30   6 C       32   6 C                                       1.3943579
    31   6 C       32   6 C                                       1.3881056
    33   6 C       34   6 C                                       1.3995757
    34   6 C       35   6 C                                       1.3672311
    35   6 C       36   6 C                                       1.4005701
     7   6 C       37   6 C                                       1.4136572
    33   6 C       38   6 C                                       1.4075274
    37   6 C       38   6 C                                       1.4278784
    36   6 C       39   6 C                                       1.4097074
    38   6 C       39   6 C                                       1.4184250
    39   6 C       40   6 C                                       1.4230719
    11   6 C       41   6 C                                       1.4179502
    37   6 C       42   6 C                                       1.4184726
    41   6 C       42   6 C                                       1.4093293
    40   6 C       43   6 C                                       1.4122268
    42   6 C       43   6 C                                       1.4245969
    43   6 C       44   6 C                                       1.4138450
    15   6 C       45   6 C                                       1.4168112
    41   6 C       46   6 C                                       1.4199168
    45   6 C       46   6 C                                       1.4104598
    44   6 C       47   6 C                                       1.4167083
    46   6 C       47   6 C                                       1.4140388
    47   6 C       48   6 C                                       1.4115982
    19   6 C       49   6 C                                       1.4206499
    45   6 C       50   6 C                                       1.4135579
    49   6 C       50   6 C                                       1.4185610
    48   6 C       51   6 C                                       1.4146859
    50   6 C       51   6 C                                       1.4132056
    51   6 C       52   6 C                                       1.4138136
    22   6 C       53   6 C                                       1.4236637
    49   6 C       54   6 C                                       1.4108918
    53   6 C       54   6 C                                       1.4206352
    52   6 C       55   6 C                                       1.4114557
    54   6 C       55   6 C                                       1.4201098
    55   6 C       56   6 C                                       1.4152800
    26   6 C       57   6 C                                       1.4217922
    53   6 C       58   6 C                                       1.4206671
    57   6 C       58   6 C                                       1.4077931
    56   6 C       59   6 C                                       1.4122023
    58   6 C       59   6 C                                       1.4252390
    59   6 C       60   6 C                                       1.4114503
    57   6 C       62   6 C                                       1.4253525
    61   6 C       62   6 C                                       1.4110738
    60   6 C       63   6 C                                       1.4197869
    62   6 C       63   6 C                                       1.4188583
    63   6 C       64   6 C                                       1.4130663
    61   6 C       65   6 C                                       1.3971472
    64   6 C       66   6 C                                       1.3982604
    65   6 C       66   6 C                                       1.3696715
    67   6 C       68   6 C                                       1.3983614
    68   6 C       69   6 C                                       1.3668234
    69   6 C       70   6 C                                       1.3985470
    40   6 C       71   6 C                                       1.4159014
    67   6 C       72   6 C                                       1.4169911
    71   6 C       72   6 C                                       1.4291580
    70   6 C       73   6 C                                       1.4249311
    72   6 C       73   6 C                                       1.4193831
    44   6 C       75   6 C                                       1.4142961
    71   6 C       76   6 C                                       1.4111464
    75   6 C       76   6 C                                       1.4124241
    74   6 C       77   6 C                                       1.4108650
    76   6 C       77   6 C                                       1.4210584
    77   6 C       78   6 C                                       1.4161283
    48   6 C       79   6 C                                       1.4172327
    75   6 C       80   6 C                                       1.4175590
    79   6 C       80   6 C                                       1.4109768
    78   6 C       81   6 C                                       1.4174733
    80   6 C       81   6 C                                       1.4152667
    81   6 C       82   6 C                                       1.4101846
    52   6 C       83   6 C                                       1.4168613
    79   6 C       84   6 C                                       1.4133433
    83   6 C       84   6 C                                       1.4144465
    82   6 C       85   6 C                                       1.4130181
    84   6 C       85   6 C                                       1.4124817
    85   6 C       86   6 C                                       1.4135750
    56   6 C       87   6 C                                       1.4141511
    83   6 C       88   6 C                                       1.4087083
    87   6 C       88   6 C                                       1.4142029
    86   6 C       89   6 C                                       1.4081838
    88   6 C       89   6 C                                       1.4149815
    89   6 C       90   6 C                                       1.4140001
    60   6 C       91   6 C                                       1.4168306
    87   6 C       92   6 C                                       1.4122094
    91   6 C       92   6 C                                       1.4077811
    90   6 C       93   6 C                                       1.4116386
    92   6 C       93   6 C                                       1.4209003
    93   6 C       94   6 C                                       1.4080046
    91   6 C       96   6 C                                       1.4222194
    95   6 C       96   6 C                                       1.4101289
    94   6 C       97   6 C                                       1.4211583
    96   6 C       97   6 C                                       1.4196628
    97   6 C       98   6 C                                       1.4109339
    95   6 C       99   6 C                                       1.4005567
    98   6 C      100   6 C                                       1.4002733
    99   6 C      100   6 C                                       1.3695857
    70   6 C      101   6 C                                       1.4351967
   101   6 C      102   6 C                                       1.3794598
   102   6 C      103   6 C                                       1.3955102
   103   6 C      104   6 C                                       1.4049205
    74   6 C      105   6 C                                       1.4049047
   104   6 C      106   6 C                                       1.4048523
   106   6 C      107   6 C                                       1.4055745
    78   6 C      108   6 C                                       1.4149783
   105   6 C      109   6 C                                       1.4035662
   108   6 C      109   6 C                                       1.4133640
   107   6 C      110   6 C                                       1.4259413
   110   6 C      111   6 C                                       1.4172554
    82   6 C      112   6 C                                       1.4168749
   108   6 C      113   6 C                                       1.4147648
   112   6 C      113   6 C                                       1.4085789
   111   6 C      114   6 C                                       1.4281434
   113   6 C      114   6 C                                       1.4140068
   114   6 C      115   6 C                                       1.4067235
    86   6 C      116   6 C                                       1.4163581
   112   6 C      117   6 C                                       1.4127842
   116   6 C      117   6 C                                       1.4129150
   115   6 C      118   6 C                                       1.4162949
   117   6 C      118   6 C                                       1.4103591
   118   6 C      119   6 C                                       1.4165760
    90   6 C      120   6 C                                       1.4119563
   116   6 C      121   6 C                                       1.4088427
   120   6 C      121   6 C                                       1.4152713
   119   6 C      122   6 C                                       1.4080714
   121   6 C      122   6 C                                       1.4163969
   122   6 C      123   6 C                                       1.4221018
    94   6 C      124   6 C                                       1.4160125
   120   6 C      125   6 C                                       1.4101365
   124   6 C      125   6 C                                       1.4101826
   123   6 C      126   6 C                                       1.4218740
   125   6 C      126   6 C                                       1.4228198
   126   6 C      127   6 C                                       1.4033614
   124   6 C      129   6 C                                       1.4200546
   128   6 C      129   6 C                                       1.4126354
   127   6 C      130   6 C                                       1.4253410
   129   6 C      130   6 C                                       1.4184691
   130   6 C      131   6 C                                       1.4101466
   128   6 C      132   6 C                                       1.3988617
   131   6 C      133   6 C                                       1.3979500
   132   6 C      133   6 C                                       1.3711097
   134   6 C      135   6 C                                       1.3918704
   135   6 C      136   6 C                                       1.3863965
   136   6 C      137   6 C                                       1.3737939
   107   6 C      138   6 C                                       1.4263242
   134   6 C      139   6 C                                       1.4196053
   138   6 C      139   6 C                                       1.4274337
   137   6 C      140   6 C                                       1.4004037
   139   6 C      140   6 C                                       1.4168191
   140   6 C      141   6 C                                       1.4085468
   111   6 C      142   6 C                                       1.4207434
   138   6 C      143   6 C                                       1.4133818
   142   6 C      143   6 C                                       1.4300452
   141   6 C      144   6 C                                       1.3636669
   143   6 C      144   6 C                                       1.4265843
   115   6 C      145   6 C                                       1.4173440
   142   6 C      146   6 C                                       1.4341984
   145   6 C      146   6 C                                       1.4160462
   146   6 C      147   6 C                                       1.4215433
   147   6 C      148   6 C                                       1.3685885
   119   6 C      149   6 C                                       1.4186544
   145   6 C      150   6 C                                       1.4193660
   149   6 C      150   6 C                                       1.4209621
   148   6 C      151   6 C                                       1.4024373
   150   6 C      151   6 C                                       1.4108011
   151   6 C      152   6 C                                       1.3997975
   123   6 C      153   6 C                                       1.4137359
   149   6 C      154   6 C                                       1.4165449
   152   6 C      155   6 C                                       1.3708408
   154   6 C      155   6 C                                       1.4182064
   127   6 C      156   6 C                                       1.4188649
   153   6 C      157   6 C                                       1.4279959
   156   6 C      157   6 C                                       1.4153686
   157   6 C      158   6 C                                       1.4278031
   158   6 C      159   6 C                                       1.3642325
   156   6 C      161   6 C                                       1.4228570
   160   6 C      161   6 C                                       1.4163656
   159   6 C      162   6 C                                       1.4105690
   161   6 C      162   6 C                                       1.4156940
   162   6 C      163   6 C                                       1.3995431
   160   6 C      164   6 C                                       1.3931729
   163   6 C      165   6 C                                       1.3747870
   164   6 C      165   6 C                                       1.3866043
     1   6 C      166   1 H                                       1.0817326
     2   6 C      167   1 H                                       1.0797397
     3   6 C      168   1 H                                       1.0775692
     8   6 C      170   1 H                                       1.0824676
    12   6 C      171   1 H                                       1.0803241
    16   6 C      172   1 H                                       1.0821094
    23   6 C      173   1 H                                       1.0822744
    27   6 C      174   1 H                                       1.0798326
    34   6 C      175   1 H                                       1.0773764
    35   6 C      176   1 H                                       1.0772687
    68   6 C      177   1 H                                       1.0769737 (min)
    69   6 C      178   1 H                                       1.0788825
   102   6 C      179   1 H                                       1.0824105
   103   6 C      180   1 H                                       1.0792619
   135   6 C      181   1 H                                       1.0784441
   136   6 C      182   1 H                                       1.0800032
   137   6 C      183   1 H                                       1.0800979
   141   6 C      184   1 H                                       1.0827860
   148   6 C      186   1 H                                       1.0824352
   152   6 C      187   1 H                                       1.0826949
   159   6 C      189   1 H                                       1.0827613
   163   6 C      190   1 H                                       1.0800832
   165   6 C      191   1 H                                       1.0802181
    31   6 C      192   1 H                                       1.0801725
    32   6 C      193   1 H                                       1.0776438
    65   6 C      194   1 H                                       1.0777286
    66   6 C      195   1 H                                       1.0774961
    99   6 C      196   1 H                                       1.0777329
   100   6 C      197   1 H                                       1.0778129
   132   6 C      198   1 H                                       1.0778256
   133   6 C      199   1 H                                       1.0779639
   164   6 C      200   1 H                                       1.0780112
    20   6 C      201  15 P                                       1.7618744
    24   6 C      201  15 P                                       1.7629950
   155   6 C      202  15 P                                       1.8079910 (max)
   158   6 C      202  15 P                                       1.8060658
   188   1 H      202  15 P                                       1.4017947
   144   6 C      203  15 P                                       1.8064697
   147   6 C      203  15 P                                       1.8040488
   185   1 H      203  15 P                                       1.4007987
   101   6 C      204  15 P                                       1.7838913
   105   6 C      204  15 P                                       1.7783130
   106   6 C      204  15 P                                       1.7817665
     5   6 C      205  15 P                                       1.8059160
     9   6 C      205  15 P                                       1.8075408
   169   1 H      205  15 P                                       1.4009232

 * 4 distinct bonds (by element types)

   Z      Z             #   av. dist./Å        max./Å        min./Å
   1 H    6 C          32     1.0796917     1.0827860     1.0769737
   6 C    6 C         215     1.4102070     1.4351967     1.3611168
   1 H   15 P           3     1.4011722     1.4017947     1.4007987
   6 C   15 P          11     1.7915339     1.8079910     1.7618744


optimized geometry written to: xtbopt.xyz


           -------------------------------------------------
          | TOTAL ENERGY             -385.120165984736 Eh   |
          | GRADIENT NORM               0.000500534639 Eh/α |
          | HOMO-LUMO GAP               0.006882803520 eV   |
           -------------------------------------------------

------------------------------------------------------------------------
 * finished run on 2025/12/08 at 00:49:00.287     
------------------------------------------------------------------------
 total:
 * wall-time:     0 d,  0 h,  0 min, 53.178 sec
 *  cpu-time:     0 d,  0 h,  3 min, 28.453 sec
 * ratio c/w:     3.920 speedup
 SCF:
 * wall-time:     0 d,  0 h,  0 min,  7.259 sec
 *  cpu-time:     0 d,  0 h,  0 min, 28.453 sec
 * ratio c/w:     3.920 speedup
 ANC optimizer:
 * wall-time:     0 d,  0 h,  0 min, 45.746 sec
 *  cpu-time:     0 d,  0 h,  2 min, 59.391 sec
 * ratio c/w:     3.921 speedup

normal termination of xtb
