      -----------------------------------------------------------      
     |                   =====================                   |     
     |                           x T B                           |     
     |                   =====================                   |     
     |                         S. Grimme                         |     
     |          Mulliken Center for Theoretical Chemistry        |     
     |                    University of Bonn                     |     
      -----------------------------------------------------------      

   * xtb version 6.7.1pre (5071a88) compiled by 'Marcel@Raven' on 2024-07-23

   xtb is free software: you can redistribute it and/or modify it under
   the terms of the GNU Lesser General Public License as published by
   the Free Software Foundation, either version 3 of the License, or
   (at your option) any later version.
   
   xtb is distributed in the hope that it will be useful,
   but WITHOUT ANY WARRANTY; without even the implied warranty of
   MERCHANTABILITY or FITNESS FOR A PARTICULAR PURPOSE.  See the
   GNU Lesser General Public License for more details.
   
   Cite this work as:
   * C. Bannwarth, E. Caldeweyher, S. Ehlert, A. Hansen, P. Pracht,
     J. Seibert, S. Spicher, S. Grimme, WIREs Comput. Mol. Sci., 2020, 11,
     e01493. DOI: 10.1002/wcms.1493
   
   for GFN2-xTB:
   * C. Bannwarth, S. Ehlert and S. Grimme., J. Chem. Theory Comput., 2019,
     15, 1652-1671. DOI: 10.1021/acs.jctc.8b01176
   for GFN1-xTB:
   * S. Grimme, C. Bannwarth, P. Shushkov, J. Chem. Theory Comput., 2017,
     13, 1989-2009. DOI: 10.1021/acs.jctc.7b00118
   for GFN0-xTB:
   * P. Pracht, E. Caldeweyher, S. Ehlert, S. Grimme, ChemRxiv, 2019, preprint.
     DOI: 10.26434/chemrxiv.8326202.v1
   for GFN-FF:
   * S. Spicher and S. Grimme, Angew. Chem. Int. Ed., 2020, 59, 15665-15673.
     DOI: 10.1002/anie.202004239
   
   for ALPB and GBSA implicit solvation:
   * S. Ehlert, M. Stahn, S. Spicher, S. Grimme, J. Chem. Theory Comput.,
     2021, 17, 4250-4261. DOI: 10.1021/acs.jctc.1c00471
   
   for ddCOSMO and CPCM-X implicit solvation:
   * M. Stahn, S. Ehlert, S. Grimme, J. Phys. Chem. A,
     2023, XX, XXXX-XXXX. DOI: 10.1021/acs.jpca.3c04382
   
   for DFT-D4:
   * E. Caldeweyher, C. Bannwarth and S. Grimme, J. Chem. Phys., 2017,
     147, 034112. DOI: 10.1063/1.4993215
   * E. Caldeweyher, S. Ehlert, A. Hansen, H. Neugebauer, S. Spicher,
     C. Bannwarth and S. Grimme, J. Chem. Phys., 2019, 150, 154122.
     DOI: 10.1063/1.5090222
   * E. Caldeweyher, J.-M. Mewes, S. Ehlert and S. Grimme, Phys. Chem. Chem. Phys.
     2020, 22, 8499-8512. DOI: 10.1039/D0CP00502A
   
   for sTDA-xTB:
   * S. Grimme and C. Bannwarth, J. Chem. Phys., 2016, 145, 054103.
     DOI: 10.1063/1.4959605
   
   in the mass-spec context:
   * V. Asgeirsson, C. Bauer and S. Grimme, Chem. Sci., 2017, 8, 4879.
     DOI: 10.1039/c7sc00601b
   * J. Koopman and S. Grimme, ACS Omega 2019, 4, 12, 15120-15133.
     DOI: 10.1021/acsomega.9b02011
   
   for metadynamics refer to:
   * S. Grimme, J. Chem. Theory Comput., 2019, 155, 2847-2862
     DOI: 10.1021/acs.jctc.9b00143
   
   for SPH calculations refer to:
   * S. Spicher and S. Grimme, J. Chem. Theory Comput., 2021, 17, 1701-1714
     DOI: 10.1021/acs.jctc.0c01306
   
   for ONIOM refer to:
   * C. Plett, A. Katbashev, S. Ehlert, S. Grimme, M. Bursch,
     Phys. Chem. Chem. Phys., 2023, 25, 17860-17868. DOI: 10.1039/D3CP02178E
   
   for DIPRO refer to:
   * J. Kohn, N. Gildemeister, S. Grimme, D. Fazzi, A. Hansen,
     J. Chem. Phys., 2023, just accepted.
   
   for PTB refer to:
   * S. Grimme, M. Mueller, A. Hansen, J. Chem. Phys., 2023, 158, 124111.
     DOI: 10.1063/5.0137838
   
   with help from (in alphabetical order)
   P. Atkinson, C. Bannwarth, F. Bohle, G. Brandenburg, E. Caldeweyher
   M. Checinski, S. Dohm, S. Ehlert, S. Ehrlich, I. Gerasimov, C. Hölzer
   A. Katbashev, J. Kohn, J. Koopman, C. Lavigne, S. Lehtola, F. März, M. Müller,
   F. Musil, H. Neugebauer, J. Pisarek, C. Plett, P. Pracht, F. Pultar,
   J. Seibert, P. Shushkov, S. Spicher, M. Stahn, M. Steiner, T. Strunk,
   J. Stückrath, T. Rose, and J. Unsleber
   
 * started run on 2025/12/08 at 00:49:00.323     
   ID    Z sym.   atoms
    1    6 C      1-165
    2    1 H      166-200
    3   15 P      201-205

           -------------------------------------------------
          |                Calculation Setup                |
           -------------------------------------------------

          program call               : xtb "C:\Users\LENOVO GAMING\Documents\GitHub\molecular-conductivity-sim\results\2nm-5Pdoped-3percent\xtbopt.xyz" --sp
          coordinate file            : C:\Users\LENOVO GAMING\Documents\GitHub\molecular-conductivity-sim\results\2nm-5Pdoped-3percent\xtbopt.xyz
          omp threads                :                    16


           -------------------------------------------------
          |                 G F N 2 - x T B                 |
           -------------------------------------------------

        Reference                      10.1021/acs.jctc.8b01176
      * Hamiltonian:
        H0-scaling (s, p, d)           1.850000    2.230000    2.230000
        zeta-weighting                 0.500000
      * Dispersion:
        s8                             2.700000
        a1                             0.520000
        a2                             5.000000
        s9                             5.000000
      * Repulsion:
        kExp                           1.500000    1.000000
        rExp                           1.000000
      * Coulomb:
        alpha                          2.000000
        third order                    shell-resolved
        anisotropic                    true
        a3                             3.000000
        a5                             4.000000
        cn-shift                       1.200000
        cn-exp                         4.000000
        max-rad                        5.000000

q/qsh data taken from xtbrestart
CAMM data taken from xtbrestart

          ...................................................
          :                      SETUP                      :
          :.................................................:
          :  # basis functions                 745          :
          :  # atomic orbitals                 740          :
          :  # shells                          380          :
          :  # electrons                       720          :
          :  max. iterations                   250          :
          :  Hamiltonian                  GFN2-xTB          :
          :  restarted?                       true          :
          :  GBSA solvation                  false          :
          :  PC potential                    false          :
          :  electronic temp.          300.0000000     K    :
          :  accuracy                    1.0000000          :
          :  -> integral cutoff          0.2500000E+02      :
          :  -> integral neglect         0.1000000E-07      :
          :  -> SCF convergence          0.1000000E-05 Eh   :
          :  -> wf. convergence          0.1000000E-03 e    :
          :  Broyden damping             0.4000000          :
          :  net charge                          0          :
          :  unpaired electrons                  0          :
          ...................................................

 iter      E             dE          RMSdq      gap      omega  full diag
   1   -392.5144155 -0.392514E+03  0.955E-06    0.01       0.0  T
   2   -392.5144155  0.141544E-07  0.261E-04    0.01      26.7  T
   3   -392.5144155 -0.141634E-07  0.590E-06    0.01    1183.5  T

   *** convergence criteria satisfied after 3 iterations ***

         #    Occupation            Energy/Eh            Energy/eV
      -------------------------------------------------------------
         1        2.0000           -0.6868708             -18.6907
       ...           ...                  ...                  ...
       354        2.0000           -0.3694603             -10.0535
       355        2.0000           -0.3677869             -10.0080
       356        2.0000           -0.3634505              -9.8900
       357        2.0000           -0.3606613              -9.8141
       358        2.0000           -0.3545036              -9.6465
       359        2.0000           -0.3416186              -9.2959
       360        1.0664           -0.3243301              -8.8255 (HOMO)
       361        0.9334           -0.3240771              -8.8186 (LUMO)
       362        0.0002           -0.3153917              -8.5822
       363                         -0.2993086              -8.1446
       364                         -0.2932813              -7.9806
       365                         -0.2892676              -7.8714
       ...                                ...                  ...
       740                          0.9297196              25.2990
      -------------------------------------------------------------
                  HL-Gap            0.0002530 Eh            0.0069 eV
             Fermi-level           -0.3242038 Eh           -8.8220 eV

 SCC (total)                   0 d,  0 h,  0 min,  0.716 sec
 SCC setup                      ...        0 min,  0.002 sec (  0.279%)
 Dispersion                     ...        0 min,  0.022 sec (  3.073%)
 classical contributions        ...        0 min,  0.001 sec (  0.140%)
 integral evaluation            ...        0 min,  0.054 sec (  7.542%)
 iterations                     ...        0 min,  0.430 sec ( 60.056%)
 molecular gradient             ...        0 min,  0.194 sec ( 27.095%)
 printout                       ...        0 min,  0.013 sec (  1.816%)

         :::::::::::::::::::::::::::::::::::::::::::::::::::::
         ::                     SUMMARY                     ::
         :::::::::::::::::::::::::::::::::::::::::::::::::::::
         :: total energy            -385.120165984753 Eh    ::
         :: gradient norm              0.000500615986 Eh/a0 ::
         :: HOMO-LUMO gap              0.006884219473 eV    ::
         ::.................................................::
         :: SCC energy              -392.530229402844 Eh    ::
         :: -> isotropic ES            0.003726406031 Eh    ::
         :: -> anisotropic ES          0.012184560092 Eh    ::
         :: -> anisotropic XC          0.130461977452 Eh    ::
         :: -> dispersion             -0.510527166477 Eh    ::
         :: repulsion energy           7.410063418091 Eh    ::
         :: add. restraining           0.000000000000 Eh    ::
         :: total charge              -0.000000000004 e     ::
         :::::::::::::::::::::::::::::::::::::::::::::::::::::

           -------------------------------------------------
          |                Property Printout                |
           -------------------------------------------------

    * Orbital Energies and Occupations

         #    Occupation            Energy/Eh            Energy/eV
      -------------------------------------------------------------
         1        2.0000           -0.6868708             -18.6907
       ...           ...                  ...                  ...
       348        2.0000           -0.3847720             -10.4702
       349        2.0000           -0.3844051             -10.4602
       350        2.0000           -0.3829219             -10.4198
       351        2.0000           -0.3814838             -10.3807
       352        2.0000           -0.3794410             -10.3251
       353        2.0000           -0.3731852             -10.1549
       354        2.0000           -0.3694603             -10.0535
       355        2.0000           -0.3677869             -10.0080
       356        2.0000           -0.3634505              -9.8900
       357        2.0000           -0.3606613              -9.8141
       358        2.0000           -0.3545036              -9.6465
       359        2.0000           -0.3416186              -9.2959
       360        1.0664           -0.3243301              -8.8255 (HOMO)
       361        0.9334           -0.3240771              -8.8186 (LUMO)
       362        0.0002           -0.3153917              -8.5822
       363                         -0.2993086              -8.1446
       364                         -0.2932813              -7.9806
       365                         -0.2892676              -7.8714
       366                         -0.2817265              -7.6662
       367                         -0.2782600              -7.5718
       368                         -0.2754789              -7.4962
       369                         -0.2683340              -7.3017
       370                         -0.2654426              -7.2231
       371                         -0.2640498              -7.1852
       ...                                ...                  ...
       740                          0.9297196              25.2990
      -------------------------------------------------------------
                  HL-Gap            0.0002530 Eh            0.0069 eV
             Fermi-level           -0.3242038 Eh           -8.8220 eV

     #   Z          covCN         q      C6AA      α(0)
     1   6 C        3.039    -0.034    28.812     8.804
     2   6 C        2.915    -0.030    28.751     8.793
     3   6 C        2.925    -0.037    28.923     8.820
     4   6 C        2.985     0.006    27.873     8.660
     5   6 C        2.922     0.005    27.906     8.663
     6   6 C        3.045     0.005    27.874     8.659
     7   6 C        2.974     0.002    27.977     8.676
     8   6 C        3.050    -0.042    28.996     8.831
     9   6 C        2.914     0.004    27.939     8.667
    10   6 C        3.035     0.004    27.912     8.666
    11   6 C        2.989     0.001    28.005     8.681
    12   6 C        2.926    -0.044    29.098     8.846
    13   6 C        2.981     0.012    27.750     8.641
    14   6 C        2.994    -0.001    28.031     8.685
    15   6 C        2.990     0.001    27.986     8.678
    16   6 C        3.133    -0.043    28.842     8.791
    17   6 C        2.980     0.011    27.760     8.643
    18   6 C        2.994     0.000    28.014     8.682
    19   6 C        2.986     0.001    28.002     8.680
    20   6 C        2.913    -0.001    28.043     8.684
    21   6 C        3.020     0.004    27.922     8.668
    22   6 C        2.972     0.002    27.982     8.677
    23   6 C        3.136    -0.042    28.817     8.787
    24   6 C        2.913    -0.001    28.055     8.685
    25   6 C        3.018     0.003    27.929     8.669
    26   6 C        2.984     0.001    28.008     8.681
    27   6 C        2.923    -0.036    28.902     8.816
    28   6 C        2.983     0.012    27.746     8.640
    29   6 C        2.995     0.002    27.970     8.675
    30   6 C        2.979     0.006    27.875     8.660
    31   6 C        2.913    -0.029    28.725     8.789
    32   6 C        2.923    -0.037    28.910     8.817
    33   6 C        2.983     0.005    27.906     8.665
    34   6 C        2.920    -0.037    28.919     8.819
    35   6 C        2.920    -0.037    28.921     8.819
    36   6 C        2.982     0.005    27.915     8.667
    37   6 C        2.985    -0.001    28.035     8.685
    38   6 C        2.990     0.002    27.981     8.677
    39   6 C        2.992     0.002    27.979     8.677
    40   6 C        2.987     0.000    28.014     8.682
    41   6 C        2.989     0.000    28.019     8.683
    42   6 C        2.986     0.000    28.021     8.683
    43   6 C        2.987     0.000    28.011     8.682
    44   6 C        2.989    -0.000    28.025     8.684
    45   6 C        2.991     0.000    28.009     8.681
    46   6 C        2.989    -0.000    28.029     8.685
    47   6 C        2.991    -0.000    28.020     8.683
    48   6 C        2.990    -0.000    28.026     8.684
    49   6 C        2.988    -0.000    28.026     8.684
    50   6 C        2.989    -0.001    28.034     8.685
    51   6 C        2.991    -0.000    28.021     8.683
    52   6 C        2.990    -0.000    28.026     8.684
    53   6 C        2.984    -0.001    28.052     8.688
    54   6 C        2.986     0.000    28.017     8.683
    55   6 C        2.989     0.000    28.020     8.683
    56   6 C        2.991    -0.000    28.024     8.684
    57   6 C        2.986     0.000    28.021     8.683
    58   6 C        2.985    -0.000    28.025     8.684
    59   6 C        2.988    -0.000    28.030     8.685
    60   6 C        2.988    -0.000    28.025     8.684
    61   6 C        2.982     0.005    27.910     8.666
    62   6 C        2.989     0.001    27.995     8.679
    63   6 C        2.992     0.001    27.988     8.678
    64   6 C        2.980     0.004    27.917     8.667
    65   6 C        2.919    -0.037    28.917     8.818
    66   6 C        2.919    -0.036    28.905     8.816
    67   6 C        2.982     0.005    27.893     8.663
    68   6 C        2.919    -0.036    28.902     8.816
    69   6 C        2.923    -0.036    28.900     8.816
    70   6 C        3.079     0.008    27.761     8.638
    71   6 C        2.985    -0.000    28.026     8.684
    72   6 C        2.986     0.003    27.954     8.673
    73   6 C        2.979     0.002    27.966     8.675
    74   6 C        3.081     0.002    27.894     8.658
    75   6 C        2.990    -0.000    28.020     8.683
    76   6 C        2.988     0.000    28.011     8.682
    77   6 C        2.992     0.001    28.002     8.680
    78   6 C        2.989    -0.002    28.069     8.691
    79   6 C        2.991     0.001    28.007     8.681
    80   6 C        2.990    -0.000    28.029     8.685
    81   6 C        2.991     0.000    28.010     8.682
    82   6 C        2.992    -0.000    28.023     8.684
    83   6 C        2.992    -0.000    28.022     8.683
    84   6 C        2.992    -0.000    28.026     8.684
    85   6 C        2.992     0.000    28.019     8.683
    86   6 C        2.992    -0.000    28.025     8.684
    87   6 C        2.992    -0.001    28.034     8.685
    88   6 C        2.992    -0.000    28.020     8.683
    89   6 C        2.993     0.000    28.013     8.682
    90   6 C        2.993    -0.000    28.031     8.685
    91   6 C        2.989    -0.000    28.021     8.683
    92   6 C        2.991    -0.000    28.026     8.684
    93   6 C        2.991    -0.000    28.024     8.684
    94   6 C        2.989    -0.000    28.023     8.684
    95   6 C        2.980     0.005    27.904     8.665
    96   6 C        2.992     0.001    27.989     8.678
    97   6 C        2.992     0.001    27.987     8.678
    98   6 C        2.980     0.005    27.912     8.666
    99   6 C        2.919    -0.037    28.908     8.817
   100   6 C        2.919    -0.036    28.901     8.816
   101   6 C        2.910     0.004    27.937     8.667
   102   6 C        3.042    -0.031    28.736     8.792
   103   6 C        2.919    -0.040    28.984     8.828
   104   6 C        3.096     0.008    27.722     8.629
   105   6 C        2.929     0.000    28.021     8.681
   106   6 C        2.926     0.000    28.022     8.681
   107   6 C        3.073     0.003    27.889     8.659
   108   6 C        2.997     0.001    28.003     8.681
   109   6 C        3.104     0.003    27.827     8.644
   110   6 C        2.977    -0.000    28.032     8.685
   111   6 C        2.984     0.001    28.000     8.680
   112   6 C        2.992     0.000    28.017     8.683
   113   6 C        2.993     0.000    28.012     8.682
   114   6 C        2.989    -0.000    28.024     8.684
   115   6 C        2.992     0.001    28.003     8.681
   116   6 C        2.992    -0.000    28.021     8.683
   117   6 C        2.994    -0.000    28.019     8.683
   118   6 C        2.990    -0.000    28.028     8.684
   119   6 C        2.990     0.000    28.017     8.683
   120   6 C        2.993    -0.000    28.021     8.683
   121   6 C        2.992    -0.000    28.022     8.683
   122   6 C        2.989     0.001    28.008     8.681
   123   6 C        2.987    -0.001    28.036     8.686
   124   6 C        2.989    -0.000    28.023     8.684
   125   6 C        2.991    -0.000    28.027     8.684
   126   6 C        2.988    -0.000    28.024     8.684
   127   6 C        2.988     0.000    28.015     8.682
   128   6 C        2.980     0.005    27.908     8.666
   129   6 C        2.993     0.001    27.984     8.678
   130   6 C        2.990     0.001    27.989     8.678
   131   6 C        2.980     0.005    27.911     8.666
   132   6 C        2.919    -0.036    28.903     8.816
   133   6 C        2.919    -0.036    28.905     8.816
   134   6 C        2.982     0.006    27.877     8.661
   135   6 C        2.922    -0.036    28.896     8.815
   136   6 C        2.914    -0.029    28.721     8.788
   137   6 C        2.923    -0.036    28.897     8.815
   138   6 C        2.988     0.000    28.013     8.682
   139   6 C        2.992     0.001    28.001     8.680
   140   6 C        2.986     0.012    27.729     8.638
   141   6 C        3.064    -0.042    28.967     8.826
   142   6 C        2.973     0.002    27.989     8.678
   143   6 C        3.028     0.004    27.902     8.664
   144   6 C        2.915     0.004    27.938     8.667
   145   6 C        2.992     0.001    27.992     8.679
   146   6 C        3.037     0.003    27.928     8.668
   147   6 C        2.917     0.004    27.928     8.666
   148   6 C        3.055    -0.042    28.984     8.829
   149   6 C        2.990     0.001    27.987     8.678
   150   6 C        2.995    -0.001    28.036     8.686
   151   6 C        2.985     0.011    27.765     8.643
   152   6 C        3.069    -0.041    28.951     8.823
   153   6 C        2.973     0.002    27.973     8.675
   154   6 C        3.025     0.003    27.929     8.669
   155   6 C        2.916     0.005    27.916     8.664
   156   6 C        2.989     0.001    28.000     8.680
   157   6 C        3.034     0.003    27.919     8.667
   158   6 C        2.914     0.003    27.952     8.670
   159   6 C        3.055    -0.042    28.989     8.830
   160   6 C        2.978     0.007    27.866     8.659
   161   6 C        2.996     0.001    27.984     8.678
   162   6 C        2.985     0.012    27.742     8.640
   163   6 C        2.921    -0.036    28.905     8.817
   164   6 C        2.922    -0.036    28.907     8.817
   165   6 C        2.914    -0.029    28.732     8.790
   166   1 H        0.925     0.036     2.506     2.475
   167   1 H        0.926     0.033     2.541     2.493
   168   1 H        0.926     0.036     2.500     2.473
   169   1 H        0.977     0.049     2.330     2.386
   170   1 H        0.925     0.036     2.504     2.475
   171   1 H        0.926     0.035     2.523     2.484
   172   1 H        0.925     0.040     2.448     2.447
   173   1 H        0.925     0.040     2.447     2.446
   174   1 H        0.926     0.034     2.537     2.491
   175   1 H        0.926     0.035     2.520     2.482
   176   1 H        0.926     0.034     2.526     2.485
   177   1 H        0.926     0.036     2.497     2.471
   178   1 H        0.926     0.034     2.533     2.489
   179   1 H        0.925     0.035     2.514     2.480
   180   1 H        0.926     0.036     2.503     2.474
   181   1 H        0.926     0.035     2.519     2.482
   182   1 H        0.926     0.033     2.550     2.497
   183   1 H        0.926     0.034     2.532     2.488
   184   1 H        0.925     0.037     2.492     2.468
   185   1 H        0.977     0.050     2.309     2.375
   186   1 H        0.925     0.037     2.491     2.468
   187   1 H        0.925     0.037     2.484     2.465
   188   1 H        0.977     0.050     2.314     2.377
   189   1 H        0.925     0.036     2.509     2.477
   190   1 H        0.926     0.033     2.551     2.498
   191   1 H        0.926     0.031     2.571     2.507
   192   1 H        0.926     0.031     2.574     2.509
   193   1 H        0.926     0.034     2.533     2.489
   194   1 H        0.926     0.034     2.530     2.487
   195   1 H        0.926     0.034     2.533     2.489
   196   1 H        0.926     0.034     2.536     2.490
   197   1 H        0.926     0.034     2.537     2.491
   198   1 H        0.926     0.034     2.533     2.489
   199   1 H        0.926     0.034     2.531     2.488
   200   1 H        0.926     0.034     2.534     2.489
   201  15 P        2.383    -0.046   174.979    24.598
   202  15 P        3.230    -0.087   164.133    23.014
   203  15 P        3.231    -0.085   164.036    23.007
   204  15 P        3.538    -0.028   161.475    22.827
   205  15 P        3.213    -0.083   163.970    23.002

 Mol. C6AA /au·bohr⁶  :     989151.245892
 Mol. C8AA /au·bohr⁸  :   28895425.771183
 Mol. α(0) /au        :       1638.857762


Wiberg/Mayer (AO) data.
largest (>0.10) Wiberg bond orders for each atom

 ---------------------------------------------------------------------------
     #   Z sym  total        # sym  WBO       # sym  WBO       # sym  WBO
 ---------------------------------------------------------------------------
     1   6 C    3.977 --     5 C    1.438     2 C    1.390   166 H    0.962
     2   6 C    3.976 --     3 C    1.483     1 C    1.390   167 H    0.969
     3   6 C    3.982 --     2 C    1.483     4 C    1.341   168 H    0.961
     4   6 C    3.975 --     3 C    1.341     6 C    1.292    33 C    1.142
     5   6 C    3.971 --     1 C    1.438     6 C    1.296   205 P    1.038
     6   6 C    3.978 --     5 C    1.296     4 C    1.292     7 C    1.154
     7   6 C    3.945 --    37 C    1.296    10 C    1.272     6 C    1.154
     8   6 C    3.953 --     9 C    1.562    13 C    1.219   170 H    0.958
     9   6 C    3.964 --     8 C    1.562    10 C    1.189   205 P    1.037
    10   6 C    3.942 --     7 C    1.272    11 C    1.258     9 C    1.189
    11   6 C    3.972 --    10 C    1.258    14 C    1.257    41 C    1.235
    12   6 C    3.865 --    13 C    1.390    17 C    1.309   171 H    0.966
    13   6 C    3.977 --    12 C    1.390     8 C    1.219    14 C    1.207
    14   6 C    3.946 --    15 C    1.263    11 C    1.257    13 C    1.207
    15   6 C    3.977 --    18 C    1.275    14 C    1.263    45 C    1.219
    16   6 C    3.830 --    20 C    1.408    17 C    1.304   172 H    0.959
    17   6 C    3.979 --    12 C    1.309    16 C    1.304    18 C    1.204
    18   6 C    3.943 --    15 C    1.275    19 C    1.248    17 C    1.204
    19   6 C    3.974 --    21 C    1.279    18 C    1.248    49 C    1.224
    20   6 C    3.974 --    16 C    1.408   201 P    1.218    21 C    1.202
    21   6 C    3.933 --    19 C    1.279    22 C    1.243    20 C    1.202
    22   6 C    3.964 --    53 C    1.252    25 C    1.245    21 C    1.243
    23   6 C    3.835 --    24 C    1.415    28 C    1.300   173 H    0.959
    24   6 C    3.979 --    23 C    1.415   201 P    1.215    25 C    1.199
    25   6 C    3.946 --    26 C    1.287    22 C    1.245    24 C    1.199
    26   6 C    3.974 --    25 C    1.287    29 C    1.234    57 C    1.227
    27   6 C    3.909 --    31 C    1.493    28 C    1.286   174 H    0.969
    28   6 C    3.986 --    23 C    1.300    27 C    1.286    29 C    1.231
    29   6 C    3.956 --    30 C    1.270    26 C    1.234    28 C    1.231
    30   6 C    3.980 --    32 C    1.382    29 C    1.270    61 C    1.137
    31   6 C    3.983 --    27 C    1.493    32 C    1.396   192 H    0.970
    32   6 C    3.906 --    31 C    1.396    30 C    1.382   193 H    0.962
    33   6 C    3.959 --    34 C    1.323    38 C    1.296     4 C    1.142
    34   6 C    3.963 --    35 C    1.509    33 C    1.323   175 H    0.961
    35   6 C    3.959 --    34 C    1.509    36 C    1.320   176 H    0.960
    36   6 C    3.960 --    35 C    1.320    39 C    1.285    67 C    1.158
    37   6 C    3.963 --     7 C    1.296    42 C    1.247    38 C    1.200
    38   6 C    3.980 --    33 C    1.296    39 C    1.256    37 C    1.200
    39   6 C    3.972 --    36 C    1.285    38 C    1.256    40 C    1.209
    40   6 C    3.955 --    43 C    1.268    71 C    1.263    39 C    1.209
    41   6 C    3.964 --    42 C    1.279    11 C    1.235    46 C    1.229
    42   6 C    3.966 --    41 C    1.279    37 C    1.247    43 C    1.217
    43   6 C    3.958 --    40 C    1.268    44 C    1.257    42 C    1.217
    44   6 C    3.965 --    43 C    1.257    75 C    1.252    47 C    1.238
    45   6 C    3.953 --    46 C    1.271    50 C    1.252    15 C    1.219
    46   6 C    3.964 --    45 C    1.271    47 C    1.245    41 C    1.229
    47   6 C    3.956 --    48 C    1.261    46 C    1.245    44 C    1.238
    48   6 C    3.960 --    47 C    1.261    51 C    1.252    79 C    1.231
    49   6 C    3.951 --    54 C    1.272    50 C    1.245    19 C    1.224
    50   6 C    3.964 --    45 C    1.252    51 C    1.249    49 C    1.245
    51   6 C    3.958 --    48 C    1.252    50 C    1.249    52 C    1.244
    52   6 C    3.961 --    55 C    1.269    51 C    1.244    83 C    1.232
    53   6 C    3.954 --    22 C    1.252    58 C    1.245    54 C    1.243
    54   6 C    3.961 --    49 C    1.272    53 C    1.243    55 C    1.231
    55   6 C    3.953 --    52 C    1.269    56 C    1.241    54 C    1.231
    56   6 C    3.962 --    59 C    1.256    87 C    1.250    55 C    1.241
    57   6 C    3.940 --    58 C    1.289    26 C    1.227    62 C    1.217
    58   6 C    3.965 --    57 C    1.289    53 C    1.245    59 C    1.212
    59   6 C    3.958 --    60 C    1.274    56 C    1.256    58 C    1.212
    60   6 C    3.962 --    59 C    1.274    91 C    1.247    63 C    1.222
    61   6 C    3.951 --    65 C    1.339    62 C    1.284    30 C    1.137
    62   6 C    3.980 --    61 C    1.284    63 C    1.253    57 C    1.217
    63   6 C    3.977 --    64 C    1.279    62 C    1.253    60 C    1.222
    64   6 C    3.964 --    66 C    1.332    63 C    1.279    95 C    1.153
    65   6 C    3.969 --    66 C    1.494    61 C    1.339   194 H    0.961
    66   6 C    3.955 --    65 C    1.494    64 C    1.332   195 H    0.961
    67   6 C    3.941 --    68 C    1.330    72 C    1.266    36 C    1.158
    68   6 C    3.958 --    69 C    1.496    67 C    1.330   177 H    0.959
    69   6 C    3.949 --    68 C    1.496    70 C    1.325   178 H    0.964
    70   6 C    3.953 --    69 C    1.325    73 C    1.261   101 C    1.155
    71   6 C    3.949 --    76 C    1.268    40 C    1.263    72 C    1.205
    72   6 C    3.978 --    73 C    1.286    67 C    1.266    71 C    1.205
    73   6 C    3.923 --    72 C    1.286    70 C    1.261    74 C    1.162
    74   6 C    3.955 --   105 C    1.300    77 C    1.270    73 C    1.162
    75   6 C    3.960 --    76 C    1.259    44 C    1.252    80 C    1.233
    76   6 C    3.958 --    71 C    1.268    75 C    1.259    77 C    1.215
    77   6 C    3.959 --    74 C    1.270    78 C    1.252    76 C    1.215
    78   6 C    3.971 --   108 C    1.259    77 C    1.252    81 C    1.234
    79   6 C    3.957 --    80 C    1.266    84 C    1.248    48 C    1.231
    80   6 C    3.957 --    79 C    1.266    81 C    1.244    75 C    1.233
    81   6 C    3.955 --    82 C    1.265    80 C    1.244    78 C    1.234
    82   6 C    3.958 --    81 C    1.265    85 C    1.248   112 C    1.231
    83   6 C    3.958 --    88 C    1.266    84 C    1.245    52 C    1.232
    84   6 C    3.961 --    85 C    1.253    79 C    1.248    83 C    1.245
    85   6 C    3.959 --    84 C    1.253    82 C    1.248    86 C    1.244
    86   6 C    3.958 --    89 C    1.267    85 C    1.244   116 C    1.232
    87   6 C    3.961 --    92 C    1.254    56 C    1.250    88 C    1.241
    88   6 C    3.958 --    83 C    1.266    87 C    1.241    89 C    1.237
    89   6 C    3.957 --    86 C    1.267    90 C    1.239    88 C    1.237
    90   6 C    3.963 --   120 C    1.254    93 C    1.253    89 C    1.239
    91   6 C    3.956 --    92 C    1.275    60 C    1.247    96 C    1.219
    92   6 C    3.961 --    91 C    1.275    87 C    1.254    93 C    1.216
    93   6 C    3.961 --    94 C    1.276    90 C    1.253    92 C    1.216
    94   6 C    3.959 --    93 C    1.276   124 C    1.249    97 C    1.218
    95   6 C    3.957 --    99 C    1.325    96 C    1.284    64 C    1.153
    96   6 C    3.978 --    95 C    1.284    97 C    1.251    91 C    1.219
    97   6 C    3.978 --    98 C    1.285    96 C    1.251    94 C    1.218
    98   6 C    3.958 --   100 C    1.325    97 C    1.285   128 C    1.153
    99   6 C    3.961 --   100 C    1.506    95 C    1.325   196 H    0.961
   100   6 C    3.960 --    99 C    1.506    98 C    1.325   197 H    0.961
   101   6 C    3.813 --   102 C    1.443    70 C    1.155   204 P    1.040
   102   6 C    3.959 --   101 C    1.443   103 C    1.377   179 H    0.956
   103   6 C    3.806 --   102 C    1.377   104 C    1.329   180 H    0.963
   104   6 C    3.957 --   103 C    1.329   106 C    1.295   134 C    1.127
   105   6 C    3.874 --   109 C    1.304    74 C    1.300   204 P    1.037
   106   6 C    3.848 --   104 C    1.295   107 C    1.285   204 P    1.049
   107   6 C    3.957 --   106 C    1.285   110 C    1.236   138 C    1.207
   108   6 C    3.958 --    78 C    1.259   109 C    1.250   113 C    1.228
   109   6 C    3.959 --   105 C    1.304   108 C    1.250   110 C    1.178
   110   6 C    3.899 --   111 C    1.278   107 C    1.236   109 C    1.178
   111   6 C    3.972 --   110 C    1.278   142 C    1.267   114 C    1.205
   112   6 C    3.959 --   113 C    1.266   117 C    1.246    82 C    1.231
   113   6 C    3.956 --   112 C    1.266   114 C    1.247   108 C    1.228
   114   6 C    3.954 --   115 C    1.284   113 C    1.247   111 C    1.205
   115   6 C    3.957 --   114 C    1.284   118 C    1.240   145 C    1.219
   116   6 C    3.960 --   121 C    1.270   117 C    1.242    86 C    1.232
   117   6 C    3.965 --   118 C    1.260   112 C    1.246   116 C    1.242
   118   6 C    3.960 --   117 C    1.260   119 C    1.243   115 C    1.240
   119   6 C    3.957 --   122 C    1.277   118 C    1.243   149 C    1.222
   120   6 C    3.959 --   125 C    1.258    90 C    1.254   121 C    1.233
   121   6 C    3.956 --   116 C    1.270   122 C    1.239   120 C    1.233
   122   6 C    3.961 --   119 C    1.277   121 C    1.239   123 C    1.226
   123   6 C    3.968 --   153 C    1.291   126 C    1.231   122 C    1.226
   124   6 C    3.961 --   125 C    1.272    94 C    1.249   129 C    1.222
   125   6 C    3.958 --   124 C    1.272   120 C    1.258   126 C    1.213
   126   6 C    3.969 --   127 C    1.301   123 C    1.231   125 C    1.213
   127   6 C    3.959 --   126 C    1.301   156 C    1.229   130 C    1.209
   128   6 C    3.964 --   132 C    1.334   129 C    1.278    98 C    1.153
   129   6 C    3.979 --   128 C    1.278   130 C    1.255   124 C    1.222
   130   6 C    3.981 --   131 C    1.290   129 C    1.255   127 C    1.209
   131   6 C    3.956 --   133 C    1.338   130 C    1.290   160 C    1.134
   132   6 C    3.958 --   133 C    1.494   128 C    1.334   198 H    0.961
   133   6 C    3.968 --   132 C    1.494   131 C    1.338   199 H    0.962
   134   6 C    3.979 --   135 C    1.392   139 C    1.259   104 C    1.127
   135   6 C    3.948 --   136 C    1.406   134 C    1.392   181 H    0.963
   136   6 C    3.980 --   137 C    1.478   135 C    1.406   182 H    0.970
   137   6 C    3.948 --   136 C    1.478   140 C    1.317   183 H    0.968
   138   6 C    3.961 --   143 C    1.292   139 C    1.235   107 C    1.207
   139   6 C    3.986 --   134 C    1.259   140 C    1.252   138 C    1.235
   140   6 C    3.982 --   137 C    1.317   139 C    1.252   141 C    1.240
   141   6 C    3.962 --   144 C    1.544   140 C    1.240   184 H    0.957
   142   6 C    3.916 --   111 C    1.267   143 C    1.227   146 C    1.214
   143   6 C    3.950 --   138 C    1.292   142 C    1.227   144 C    1.205
   144   6 C    3.974 --   141 C    1.544   143 C    1.205   203 P    1.037
   145   6 C    3.964 --   146 C    1.278   150 C    1.248   115 C    1.219
   146   6 C    3.946 --   145 C    1.278   147 C    1.227   142 C    1.214
   147   6 C    3.957 --   148 C    1.510   146 C    1.227   203 P    1.040
   148   6 C    3.957 --   147 C    1.510   151 C    1.267   186 H    0.958
   149   6 C    3.974 --   154 C    1.284   150 C    1.243   119 C    1.222
   150   6 C    3.980 --   151 C    1.251   145 C    1.248   149 C    1.243
   151   6 C    3.966 --   152 C    1.279   148 C    1.267   150 C    1.251
   152   6 C    3.956 --   155 C    1.497   151 C    1.279   187 H    0.958
   153   6 C    3.945 --   123 C    1.291   157 C    1.237   154 C    1.195
   154   6 C    3.950 --   149 C    1.284   155 C    1.244   153 C    1.195
   155   6 C    3.956 --   152 C    1.497   154 C    1.244   202 P    1.036
   156   6 C    3.974 --   157 C    1.286   161 C    1.232   127 C    1.229
   157   6 C    3.950 --   156 C    1.286   153 C    1.237   158 C    1.200
   158   6 C    3.975 --   159 C    1.548   157 C    1.200   202 P    1.041
   159   6 C    3.963 --   158 C    1.548   162 C    1.236   189 H    0.958
   160   6 C    3.982 --   164 C    1.389   161 C    1.263   131 C    1.134
   161   6 C    3.984 --   160 C    1.263   162 C    1.252   156 C    1.232
   162   6 C    3.984 --   163 C    1.320   161 C    1.252   159 C    1.236
   163   6 C    3.948 --   165 C    1.475   162 C    1.320   190 H    0.969
   164   6 C    3.947 --   165 C    1.410   160 C    1.389   200 H    0.963
   165   6 C    3.981 --   163 C    1.475   164 C    1.410   191 H    0.970
   166   1 H    0.998 --     1 C    0.962
   167   1 H    0.998 --     2 C    0.969
   168   1 H    0.998 --     3 C    0.961
   169   1 H    0.994 --   205 P    0.941
   170   1 H    0.997 --     8 C    0.958
   171   1 H    0.997 --    12 C    0.966
   172   1 H    0.997 --    16 C    0.959
   173   1 H    0.997 --    23 C    0.959
   174   1 H    0.998 --    27 C    0.969
   175   1 H    0.998 --    34 C    0.961
   176   1 H    0.998 --    35 C    0.960
   177   1 H    0.997 --    68 C    0.959
   178   1 H    0.998 --    69 C    0.964
   179   1 H    0.997 --   102 C    0.956
   180   1 H    0.998 --   103 C    0.963
   181   1 H    0.998 --   135 C    0.963
   182   1 H    0.997 --   136 C    0.970
   183   1 H    0.998 --   137 C    0.968
   184   1 H    0.997 --   141 C    0.957
   185   1 H    0.992 --   203 P    0.940
   186   1 H    0.998 --   148 C    0.958
   187   1 H    0.997 --   152 C    0.958
   188   1 H    0.991 --   202 P    0.938
   189   1 H    0.998 --   159 C    0.958
   190   1 H    0.998 --   163 C    0.969
   191   1 H    0.998 --   165 C    0.970
   192   1 H    0.998 --    31 C    0.970
   193   1 H    0.998 --    32 C    0.962
   194   1 H    0.998 --    65 C    0.961
   195   1 H    0.998 --    66 C    0.961
   196   1 H    0.998 --    99 C    0.961
   197   1 H    0.998 --   100 C    0.961
   198   1 H    0.998 --   132 C    0.961
   199   1 H    0.998 --   133 C    0.962
   200   1 H    0.998 --   164 C    0.963
   201  15 P    2.671 --    20 C    1.218    24 C    1.215
   202  15 P    3.296 --   158 C    1.041   155 C    1.036   188 H    0.938
   203  15 P    3.297 --   147 C    1.040   144 C    1.037   185 H    0.940
   204  15 P    3.477 --   106 C    1.049   101 C    1.040   105 C    1.037
   205  15 P    3.305 --     5 C    1.038     9 C    1.037   169 H    0.941
 ---------------------------------------------------------------------------

Topologies differ in total number of bonds
Writing topology from bond orders to xtbtopo.mol

molecular dipole:
                 x           y           z       tot (Debye)
 q only:       -0.334      -0.275      -0.181
   full:       -0.616      -0.390      -0.259       1.966
molecular quadrupole (traceless):
                xx          xy          yy          xz          yz          zz
 q only:       -8.041       1.429      48.210      11.770      -9.225     -40.169
  q+dip:        8.349       2.810     102.238      26.196     -22.176    -110.587
   full:      -19.020       2.590      74.594      27.027     -20.038     -55.573


           -------------------------------------------------
          | TOTAL ENERGY             -385.120165984753 Eh   |
          | GRADIENT NORM               0.000500615986 Eh/α |
          | HOMO-LUMO GAP               0.006884219473 eV   |
           -------------------------------------------------

------------------------------------------------------------------------
 * finished run on 2025/12/08 at 00:49:01.178     
------------------------------------------------------------------------
 total:
 * wall-time:     0 d,  0 h,  0 min,  0.853 sec
 *  cpu-time:     0 d,  0 h,  0 min, 12.359 sec
 * ratio c/w:    14.489 speedup
 SCF:
 * wall-time:     0 d,  0 h,  0 min,  0.722 sec
 *  cpu-time:     0 d,  0 h,  0 min, 10.844 sec
 * ratio c/w:    15.019 speedup

normal termination of xtb
