205
 energy: -385.120165984736 gnorm: 0.000500534639 xtb: 6.7.1pre (5071a88)
C            9.78109662016611       -8.69705170507284       -0.50591961192490
C            9.08274170480963       -9.80352207293198       -0.05039900623572
C            7.71479777010231       -9.73271409264913        0.05116199094598
C            7.01598558236636       -8.55180739313982       -0.23641766608486
C            9.12439954865548       -7.50251942459852       -0.73706752384810
C            7.73340914747127       -7.37334390940566       -0.54417222488239
C            7.04429639887482       -6.09991615772786       -0.57195707552491
C            9.84536735892146       -3.62842782024133       -0.60327717436166
C            9.16341472032400       -4.79140952098014       -0.79050114330601
C            7.74866625873537       -4.86844651129600       -0.59383772046109
C            7.05868284514000       -3.65060422010672       -0.35581870431268
C            9.88525265251046       -1.25807419880832       -0.01506688010512
C            9.18676652890047       -2.42718001722739       -0.25767397237886
C            7.76578114125078       -2.43208964002952       -0.20495670211112
C            7.08130061397067       -1.21236527794645        0.00028432785219
C            9.90504401712112        1.11839016696638        0.52338643834697
C            9.21527709959864       -0.05709947471823        0.23347803643591
C            7.79434582133276       -0.01051989102035        0.19703682294378
C            7.12339303313001        1.23202973256566        0.35068391110272
C            9.25836376821592        2.32948608812338        0.71806406665942
C            7.83920532608326        2.43452107474976        0.57949789877270
C            7.15244964212870        3.68496693162369        0.64360348361056
C            9.82394641258104        6.19582834823945        1.50236615094236
C            9.22069161056519        4.98872677252158        1.18755531387880
C            7.82472997606215        4.92190047831898        0.88114243953725
C            7.11357460320279        6.14683952720981        0.83508012518410
C            9.77196700112204        8.61911498168834        1.78579438571682
C            9.13306371212080        7.40720132937966        1.47085679601691
C            7.76568415535116        7.38754466917248        1.09043282779050
C            7.08013353282638        8.62006120105474        0.98560128910298
C            9.07484630147233        9.79815301937776        1.72385103230777
C            7.74600888477219        9.79789682388550        1.32256827741012
C            5.57598306309144       -8.52900538637208       -0.27155338415750
C            4.82615118398709       -9.71049942398029       -0.24633858566070
C            3.46396503280429       -9.69347658580935       -0.36243994083006
C            2.75613649867454       -8.49038312796962       -0.47707449993512
C            5.63752336017135       -6.08058535677397       -0.43396318445160
C            4.89774148071490       -7.30089818338275       -0.38501672030223
C            3.48029855973427       -7.28165583024559       -0.43415346567706
C            2.77644393466532       -6.04511814905984       -0.40776325086129
C            5.64316353706880       -3.64026491505219       -0.27347360624620
C            4.93052202022157       -4.85364554941828       -0.35130774158505
C            3.50654874318306       -4.84011003419989       -0.31139611368447
C            2.81779457095870       -3.61128397108352       -0.19072474260566
C            5.66457278907198       -1.19787998406591        0.00538712816091
C            4.95269884248015       -2.40894556049441       -0.12091410984358
C            3.53898949466127       -2.39577360158114       -0.09338831986564
C            2.85318197084319       -1.16634884395624        0.01049629863070
C            5.70534693672338        1.25026548030085        0.26666887912921
C            4.98553449007005        0.03602072352221        0.12597590730734
C            3.57268339195004        0.04863233744143        0.09695044740158
C            2.88655651834293        1.28427570096823        0.13278367943802
C            5.74169563467061        3.70062788148129        0.45295782066371
C            5.02228205845324        2.48403896718119        0.30957179350485
C            3.60638929120306        2.49646570111031        0.20092239050354
C            2.91120192711242        3.72778254395971        0.14100269126480
C            5.72164062180510        6.15314641463068        0.54529991503585
C            5.03622627876263        4.93247721898620        0.39679090450531
C            3.62619846203187        4.94464131830004        0.18947609375105
C            2.93550422708517        6.16483891964851        0.02745515114330
C            5.70684315645910        8.61655000956228        0.54720158159794
C            5.02768175848703        7.38906127022052        0.39508329052943
C            3.64548188542654        7.39345464334200        0.07467327019845
C            2.97137651012551        8.60960861803241       -0.17693633789111
C            5.02272130745045        9.80138137434141        0.26405525987780
C            3.70240391823566        9.79908664621678       -0.10030237174057
C            1.32660567865885       -8.46861874310128       -0.62795810211875
C            0.60759693837790       -9.65093838798249       -0.82935533400033
C           -0.75675174729918       -9.64084172572560       -0.91094353428183
C           -1.49138102379925       -8.45376145416072       -0.82671939637015
C            1.36074895528318       -6.02869794004040       -0.42549768381014
C            0.62049599284914       -7.24087982702317       -0.58403121384562
C           -0.79453145165718       -7.21808805253791       -0.69277809523832
C           -1.47617678406362       -5.95297221576746       -0.53994235726439
C            1.40392045944466       -3.59570520299205       -0.15989516334193
C            0.67882927619620       -4.80176660961869       -0.28072593550372
C           -0.74201005801685       -4.77826151921212       -0.27237238534224
C           -1.43234209975431       -3.55530278985343       -0.09007390984155
C            1.43605222844569       -1.15233093661838        0.02023706257131
C            0.71394252266612       -2.36280451611398       -0.04431183133312
C           -0.70060125661806       -2.34443479247357       -0.00298655896556
C           -1.38625104014507       -1.11516732445319        0.08307275366939
C            1.47051467850310        1.29748605525402        0.08645395021291
C            0.74826210543888        0.08150628721546        0.06638074706186
C           -0.66405349822117        0.09934124168576        0.07865486225788
C           -1.35524931722019        1.33225663486478        0.05963462395118
C            1.50209138351725        3.74059788119866        0.02240171482177
C            0.78026859904100        2.52459985775290        0.03943430275109
C           -0.63402964372132        2.54017391457978       -0.00167774310186
C           -1.32632164755216        3.76664620776814       -0.12774735767439
C            1.53272117724189        6.17291247813378       -0.17139905862754
C            0.81282932237114        4.96386794580454       -0.12880382221975
C           -0.60339215485858        4.97357319478060       -0.24360683872304
C           -1.29004092073550        6.17850727249328       -0.48676105376707
C            1.56545784123863        8.60320509207517       -0.48591827272999
C            0.84564835889198        7.39219368272901       -0.42436536617583
C           -0.55897229954971        7.38870679908988       -0.63044971815723
C           -1.23381453522470        8.58114362335656       -0.96722346331911
C            0.86869869532416        9.76811431411828       -0.83098638565612
C           -0.47892106624193        9.75557595601317       -1.07497070570198
C           -2.92386488983424       -8.53656676797908       -0.85709115834347
C           -3.70489274673067       -9.62255284725888       -0.52013627777562
C           -5.09333131270039       -9.56817078703515       -0.39079470838490
C           -5.85323511053004       -8.39073260892273       -0.29086068294913
C           -2.87440079247731       -5.84001843274075       -0.61719490782091
C           -5.24997084777769       -7.13461508017546       -0.46932793702206
C           -5.78304412278428       -5.91959686741874       -0.00542831763759
C           -2.84422136637385       -3.52621402878575       -0.00111248921477
C           -3.59534893551390       -4.70343383492018       -0.21919126725208
C           -5.01937476124160       -4.71557675964672        0.01585643302241
C           -5.65954057290099       -3.51401406715279        0.40961682285098
C           -2.80077040699198       -1.09182466677783        0.16133004828779
C           -3.52537111041605       -2.29958363713921        0.18046975851564
C           -4.92873666660595       -2.28831366452019        0.35324949570505
C           -5.59764114945819       -1.05590484335587        0.46552577778427
C           -2.77110963253387        1.35480035678081        0.08965473873945
C           -3.48881039627363        0.14178911119431        0.18884041778344
C           -4.89359227432502        0.16340500964632        0.31226274325607
C           -5.58140514261261        1.40163946295448        0.29286900864648
C           -2.73797110008696        3.78298220683101       -0.15222495580712
C           -3.46390415761058        2.57894006815619        0.00993626108470
C           -4.87780069705556        2.60434567617602        0.09012969423559
C           -5.58302670872736        3.83113933579244       -0.05131552350670
C           -2.70241524231484        6.18159041057586       -0.58815326904030
C           -3.42889687174035        4.99336962164098       -0.36686088748205
C           -4.85163202918995        5.00887463694243       -0.36711102992144
C           -5.52902788122893        6.19062553365013       -0.70478311005950
C           -2.65850490749349        8.56133233768137       -1.18013460610369
C           -3.38716316638620        7.37596341086738       -0.93621646407434
C           -4.80029214334574        7.36339909852694       -1.05853882803987
C           -5.47657635977672        8.51561370966557       -1.50970865181867
C           -3.36392164593427        9.68771062461441       -1.61656649215566
C           -4.72372732253600        9.65968976429325       -1.79001585608614
C           -7.22985887576798       -8.40025138618917        0.14573173282648
C           -8.00311502910509       -9.55744215701703        0.12878010441353
C           -9.32588023589624       -9.55490626301981        0.54396746071194
C           -9.89594438678817       -8.39297218481422        1.00466836785682
C           -7.10428168051653       -5.93929654608415        0.53154805332502
C           -7.81750529645418       -7.17549308877026        0.55794246780226
C           -9.15667442103242       -7.20369318010287        1.01968558979005
C           -9.70689965029736       -6.01523594027112        1.53816919327080
C           -7.00924106261434       -3.50010039546723        0.85304268049287
C           -7.70108295161927       -4.74386571555439        0.99243966134475
C           -9.01282435823424       -4.84143681470097        1.54466846343294
C           -6.98474805562189       -1.03042514825036        0.75561006858249
C           -7.65259558183162       -2.23761732466740        1.07475464992131
C           -8.98141830891470       -2.12528432219647        1.56709244769605
C           -9.64504644429443       -0.92836528432723        1.56300124198472
C           -6.98472417894712        1.43650466168625        0.49795446475314
C           -7.65789304406510        0.21878796210177        0.78629910805046
C           -9.02584569907912        0.25300378697319        1.12965650017264
C           -9.69560166740723        1.48216947915548        1.13301424895296
C           -6.98700115878851        3.87819928531855        0.10771262603459
C           -7.67869960138580        2.67112438247273        0.47128595669648
C           -9.05792049145652        2.64930424847943        0.80080469522365
C           -6.94747076872815        6.21402595090552       -0.67930139491370
C           -7.66488952713098        5.10259014831124       -0.17602348960178
C           -9.07759737994889        5.25427185427665       -0.03506028303806
C           -9.73099723350577        6.34125687990316       -0.53771545905114
C           -6.91448861220980        8.49233957320499       -1.64345683934482
C           -7.62716109532090        7.36942131072587       -1.15638033283999
C           -9.04249628851802        7.39955819566510       -1.16673794690496
C           -9.72289916743878        8.48497936222846       -1.73032767948166
C           -7.63025078054088        9.54109442852556       -2.21680513144723
C           -9.01572041052395        9.53205266687829       -2.27215309031029
H           10.84828989871991       -8.75252435938714       -0.67374865697783
H            9.60369436977163      -10.71855306485670        0.18869118581144
H            7.17757446113594      -10.61035809467409        0.37098579447613
H           11.13547871530862       -6.17018299620283       -0.58788614852007
H           10.91847973326879       -3.60601108659051       -0.74350289775178
H           10.96549793922931       -1.26576033575923       -0.02560153741561
H           10.98361819518584        1.08906472597086        0.60571710311145
H           10.87493829868973        6.19604077987880        1.76069471098676
H           10.81123417975724        8.59870481212992        2.07827592618597
H            5.31770324841207      -10.66606509359205       -0.16881084734461
H            2.94297194968286      -10.63627176143109       -0.34791374349316
H            1.11811864750751      -10.59279651785974       -0.93955046538688
H           -1.28139705682234      -10.56846063550329       -1.07904347126893
H           -3.23099043573811      -10.55538209058876       -0.24290265755962
H           -5.58307167393967      -10.50191496721169       -0.16039903102930
H           -7.58132881045294      -10.48072914887062       -0.23547120330101
H           -9.89895534718560      -10.46970396213678        0.51025254089007
H          -10.91627126160835       -8.37791040765134        1.35867048510426
H          -10.70241792829318       -6.04693801756771        1.96286147974044
H          -10.98146796701986       -3.46417403468646        1.77285034939549
H          -10.66070444303470       -0.87942890678880        1.93409387605521
H          -10.73850838879949        1.50993400281298        1.42250118754092
H          -11.03127729632015        3.83800573294508        0.09844423243579
H          -10.80601916964729        6.41338446558778       -0.43049013531085
H          -10.80297422209794        8.48357829903590       -1.73424656295359
H           -9.53582022226034       10.36151624229597       -2.72861479672284
H            9.55377930313710       10.73186100912230        1.97994661180599
H            7.22786804131017       10.74225577952815        1.29043951058912
H            5.53474495930228       10.74821913401865        0.31724046391593
H            3.22993994652107       10.74543609586269       -0.30572422921507
H            1.38985532075080       10.70723641970022       -0.92016804782172
H           -0.95568027608245       10.68631488871583       -1.33594210404427
H           -2.84298652109011       10.60524750551309       -1.83670385205318
H           -5.21224143123979       10.55900758309343       -2.12852348611198
H           -7.11094294291356       10.38549328378203       -2.64038271322829
P           10.35022835144063        3.63517838714522        1.17325658389205
P          -10.03366099846134        4.15385763524046        1.03119672101970
P           -9.76373013837943       -3.48039304351788        2.46501226099776
P           -3.78272120758199       -7.10234006866958       -1.47968826850740
P           10.07807917990157       -6.17613558039532       -1.50682915026518
