205
 energy: -385.078177799656 gnorm: 0.072623496422 xtb: 6.7.1pre (5071a88)
C            9.85985800000000       -8.80284400000000       -0.51899600000000
C            9.13453000000000       -9.93269500000000       -0.13154500000000
C            7.75949000000000       -9.84848600000000       -0.03964100000000
C            7.07617200000000       -8.63438600000000       -0.27868800000000
C            9.22013400000000       -7.58540800000000       -0.72368700000000
C            7.81489600000000       -7.44576100000000       -0.54254900000000
C            7.12092000000000       -6.14766100000000       -0.56053900000000
C            9.93288600000000       -3.64575100000000       -0.56813800000000
C            9.26210400000000       -4.81965100000000       -0.75475600000000
C            7.82915900000000       -4.90330400000000       -0.57416700000000
C            7.12439900000000       -3.67339600000000       -0.35501300000000
C            9.95905800000000       -1.25649700000000       -0.01714800000000
C            9.26154700000000       -2.43234300000000       -0.24877200000000
C            7.83046000000000       -2.44438400000000       -0.20462700000000
C            7.14192100000000       -1.21429900000000       -0.00429600000000
C            9.98570100000000        1.13252700000000        0.52616700000000
C            9.29113300000000       -0.04272000000000        0.23689200000000
C            7.85865500000000       -0.00631600000000        0.20006200000000
C            7.18515200000000        1.24783400000000        0.35889700000000
C            9.35638200000000        2.35474900000000        0.75899800000000
C            7.91691200000000        2.45513500000000        0.60546800000000
C            7.21956300000000        3.72252900000000        0.67078000000000
C            9.88240800000000        6.27178000000000        1.57230100000000
C            9.30838200000000        5.04677200000000        1.25141300000000
C            7.89599100000000        4.97881500000000        0.92233800000000
C            7.16510800000000        6.20916800000000        0.86100200000000
C            9.81860500000000        8.71752200000000        1.82248300000000
C            9.18601600000000        7.48626800000000        1.51728300000000
C            7.81160500000000        7.46670700000000        1.11939700000000
C            7.11920700000000        8.70629300000000        0.99814400000000
C            9.11928300000000        9.90408000000000        1.72722600000000
C            7.78144400000000        9.90236200000000        1.31416000000000
C            5.62489600000000       -8.59732400000000       -0.30435300000000
C            4.86739000000000       -9.78562000000000       -0.28383300000000
C            3.49853300000000       -9.76607300000000       -0.38329800000000
C            2.79134300000000       -8.55092900000000       -0.48296100000000
C            5.69905200000000       -6.12642300000000       -0.43847600000000
C            4.94968900000000       -7.35578300000000       -0.39637900000000
C            3.51868100000000       -7.33378900000000       -0.43764900000000
C            2.81071700000000       -6.08744400000000       -0.40934600000000
C            5.69795700000000       -3.66542300000000       -0.27744500000000
C            4.98471900000000       -4.88865300000000       -0.35736800000000
C            3.54695200000000       -4.87300600000000       -0.31796800000000
C            2.85278900000000       -3.63320600000000       -0.20948000000000
C            5.71580000000000       -1.20125500000000       -0.00115400000000
C            5.00028100000000       -2.42182300000000       -0.13630300000000
C            3.57741000000000       -2.40782100000000       -0.10684500000000
C            2.88434000000000       -1.17051900000000       -0.01349400000000
C            5.75642900000000        1.26668000000000        0.26881000000000
C            5.03004200000000        0.04212000000000        0.11357700000000
C            3.60785300000000        0.05334800000000        0.08557100000000
C            2.91597500000000        1.29713500000000        0.11389100000000
C            5.79581000000000        3.73435900000000        0.46586300000000
C            5.06927600000000        2.50805900000000        0.30856400000000
C            3.64053700000000        2.51717000000000        0.19506400000000
C            2.93825600000000        3.75652400000000        0.12570300000000
C            5.76404200000000        6.20430000000000        0.55400400000000
C            5.08023000000000        4.97533300000000        0.40004100000000
C            3.65698200000000        4.98224100000000        0.18113800000000
C            2.95846600000000        6.20750900000000        0.01111500000000
C            5.73533300000000        8.68912200000000        0.55326400000000
C            5.05939400000000        7.44948700000000        0.39640800000000
C            3.66866400000000        7.44799700000000        0.06496900000000
C            2.98629000000000        8.67061700000000       -0.18439000000000
C            5.03726700000000        9.87917200000000        0.28009900000000
C            3.71040500000000        9.87235700000000       -0.08774200000000
C            1.35208600000000       -8.53248300000000       -0.62911300000000
C            0.64089600000000       -9.73063700000000       -0.83965300000000
C           -0.72694300000000       -9.73871500000000       -0.93200400000000
C           -1.47969100000000       -8.55546400000000       -0.82270000000000
C            1.38367800000000       -6.07032100000000       -0.42193300000000
C            0.63925900000000       -7.29857600000000       -0.57199500000000
C           -0.79298300000000       -7.28760500000000       -0.65452700000000
C           -1.45862100000000       -5.99980700000000       -0.49111000000000
C            1.42913100000000       -3.61611700000000       -0.17512700000000
C            0.70193000000000       -4.83112400000000       -0.29238300000000
C           -0.72685900000000       -4.80618000000000       -0.27392100000000
C           -1.43246200000000       -3.57530200000000       -0.09399900000000
C            1.45591500000000       -1.15742400000000        0.00356800000000
C            0.73015500000000       -2.37538100000000       -0.06740500000000
C           -0.69645500000000       -2.35684800000000       -0.01149800000000
C           -1.39031300000000       -1.12071900000000        0.07304300000000
C            1.48765200000000        1.30921400000000        0.07161400000000
C            0.76018600000000        0.08436400000000        0.04331000000000
C           -0.66272200000000        0.10178500000000        0.06859700000000
C           -1.36016700000000        1.34243000000000        0.04221200000000
C            1.51843800000000        3.76688700000000        0.00409700000000
C            0.79141700000000        2.54186100000000        0.01475100000000
C           -0.63458100000000        2.55668100000000       -0.01946500000000
C           -1.33377700000000        3.79055300000000       -0.15801900000000
C            1.54623900000000        6.21147200000000       -0.19627600000000
C            0.82354000000000        4.99569300000000       -0.15841900000000
C           -0.60541700000000        5.00414700000000       -0.27598300000000
C           -1.29645100000000        6.21375300000000       -0.52772200000000
C            1.57272500000000        8.66016600000000       -0.50885700000000
C            0.85320000000000        7.43980200000000       -0.45523200000000
C           -0.56092800000000        7.43413800000000       -0.67076200000000
C           -1.23779100000000        8.63453100000000       -1.00777500000000
C            0.87268100000000        9.83416900000000       -0.85610500000000
C           -0.48130100000000        9.81983400000000       -1.10779900000000
C           -2.92157200000000       -8.66874800000000       -0.82663500000000
C           -3.77542500000000       -9.77707100000000       -0.65672200000000
C           -5.15638300000000       -9.66384000000000       -0.44063500000000
C           -5.92742600000000       -8.47965000000000       -0.25219900000000
C           -2.86873000000000       -5.87488700000000       -0.49687000000000
C           -5.30812100000000       -7.21431800000000       -0.34685200000000
C           -5.84069200000000       -5.96606300000000        0.08069400000000
C           -2.85796700000000       -3.53971600000000        0.02071900000000
C           -3.61201400000000       -4.73033700000000       -0.13598300000000
C           -5.05308700000000       -4.76367900000000        0.11444900000000
C           -5.70404700000000       -3.54026000000000        0.48036600000000
C           -2.81583500000000       -1.09661200000000        0.17329600000000
C           -3.54633500000000       -2.30992400000000        0.20661900000000
C           -4.96068000000000       -2.30476000000000        0.40381900000000
C           -5.63182100000000       -1.06355200000000        0.51030800000000
C           -2.78775800000000        1.36605600000000        0.08753000000000
C           -3.50981900000000        0.14542200000000        0.19869400000000
C           -4.92215700000000        0.16592100000000        0.34004500000000
C           -5.61592100000000        1.41382300000000        0.30879600000000
C           -2.75589600000000        3.80799900000000       -0.17789200000000
C           -3.48683700000000        2.59584600000000       -0.00467700000000
C           -4.91156000000000        2.62228600000000        0.08644600000000
C           -5.62621900000000        3.85939400000000       -0.06819700000000
C           -2.71880600000000        6.21715200000000       -0.62942900000000
C           -3.45146200000000        5.02390800000000       -0.40314200000000
C           -4.88817200000000        5.04316800000000       -0.40025200000000
C           -5.56823800000000        6.23186800000000       -0.73998900000000
C           -2.67326700000000        8.61476900000000       -1.22482800000000
C           -3.40702800000000        7.42246200000000       -0.97942100000000
C           -4.83117900000000        7.41444000000000       -1.09766000000000
C           -5.50820000000000        8.58015500000000       -1.54006000000000
C           -3.37961800000000        9.75263200000000       -1.65865800000000
C           -4.74832400000000        9.73023500000000       -1.82284800000000
C           -7.32456200000000       -8.48263200000000        0.15238000000000
C           -8.10309600000000       -9.64682900000000        0.14559700000000
C           -9.43923500000000       -9.63123300000000        0.55125600000000
C          -10.01400200000000       -8.45002300000000        0.98776700000000
C           -7.18960800000000       -5.98611700000000        0.55716300000000
C           -7.91182100000000       -7.23902700000000        0.55987600000000
C           -9.26569200000000       -7.25588100000000        1.00454600000000
C           -9.82616600000000       -6.05507100000000        1.51375900000000
C           -7.07400100000000       -3.52904700000000        0.90430400000000
C           -7.79227200000000       -4.78274200000000        1.01933000000000
C           -9.12837500000000       -4.87968400000000        1.55430300000000
C           -7.02664900000000       -1.03609300000000        0.81300000000000
C           -7.71691600000000       -2.24496900000000        1.12787600000000
C           -9.06055200000000       -2.12635700000000        1.61617200000000
C           -9.71459400000000       -0.92038100000000        1.60340300000000
C           -7.02775300000000        1.45062500000000        0.52616500000000
C           -7.70263600000000        0.22581400000000        0.83500700000000
C           -9.07630700000000        0.26338000000000        1.17785400000000
C           -9.75733600000000        1.49441500000000        1.16437700000000
C           -7.04200200000000        3.90870400000000        0.09034000000000
C           -7.73738800000000        2.68854100000000        0.47727300000000
C           -9.12792100000000        2.66607700000000        0.81518200000000
C           -6.99678800000000        6.26276300000000       -0.70902600000000
C           -7.72765300000000        5.14523800000000       -0.20775500000000
C           -9.15592100000000        5.30362900000000       -0.06868700000000
C           -9.80355200000000        6.39584600000000       -0.57814700000000
C           -6.95932300000000        8.56773900000000       -1.66432200000000
C           -7.67956800000000        7.43493100000000       -1.18377900000000
C           -9.10467100000000        7.47033900000000       -1.19162000000000
C           -9.78640200000000        8.57445200000000       -1.73768500000000
C           -7.67596100000000        9.64072100000000       -2.21521400000000
C           -9.07209400000000        9.64032600000000       -2.26136100000000
H           10.93558300000000       -8.87535400000000       -0.65894400000000
H            9.64224200000000      -10.87167800000000        0.06773600000000
H            7.20500800000000      -10.73752300000000        0.23169100000000
H           11.29348800000000       -6.22818200000000       -0.53803200000000
H           11.01400100000000       -3.60949400000000       -0.68670000000000
H           11.04628900000000       -1.26706200000000       -0.03235200000000
H           11.07139700000000        1.08317600000000        0.59017600000000
H           10.93634700000000        6.29911700000000        1.84522100000000
H           10.86101300000000        8.70755100000000        2.13055900000000
H            5.35754700000000      -10.74831800000000       -0.22478600000000
H            2.97407700000000      -10.71225400000000       -0.36666200000000
H            1.16593000000000      -10.66914200000000       -0.95349100000000
H           -1.23981000000000      -10.67795400000000       -1.10502800000000
H           -3.35665400000000      -10.77735700000000       -0.60324500000000
H           -5.67161000000000      -10.60785400000000       -0.30679500000000
H           -7.67670900000000      -10.58356700000000       -0.19381800000000
H          -10.01845900000000      -10.54913700000000        0.52956600000000
H          -11.04507600000000       -8.42830100000000        1.32888400000000
H          -10.83732400000000       -6.09919500000000        1.91212300000000
H          -11.13459100000000       -3.45927500000000        1.87692900000000
H          -10.74084100000000       -0.85118100000000        1.95645900000000
H          -10.80580100000000        1.50373400000000        1.45426000000000
H          -11.17509800000000        3.86876500000000        0.11712800000000
H          -10.88438500000000        6.48040900000000       -0.48435100000000
H          -10.87292800000000        8.57861900000000       -1.73867200000000
H           -9.59362200000000       10.48757400000000       -2.69704000000000
H            9.60287800000000       10.84670400000000        1.96962700000000
H            7.25935000000000       10.84961200000000        1.25985500000000
H            5.54341900000000       10.83406500000000        0.34827700000000
H            3.22673700000000       10.82281200000000       -0.27615900000000
H            1.39516800000000       10.77924100000000       -0.93767400000000
H           -0.96177500000000       10.75630100000000       -1.36355100000000
H           -2.85390600000000       10.67354600000000       -1.87925300000000
H           -5.23755200000000       10.63922900000000       -2.15141300000000
H           -7.14937700000000       10.49522000000000       -2.62315500000000
P           10.43157500000000        3.66849400000000        1.26409100000000
P          -10.10928500000000        4.18720800000000        1.00222400000000
P           -9.85531600000000       -3.50363500000000        2.49257000000000
P           -3.76600800000000       -7.19983800000000       -1.10149700000000
P           10.19358600000000       -6.22592400000000       -1.43839600000000
205
 energy: -385.097561593207 gnorm: 0.044309814786 xtb: 6.7.1pre (5071a88)
C            9.84169776136634       -8.77971279999979       -0.51860017478792
C            9.12356650282082       -9.90489890657404       -0.13389494914755
C            7.75455844929563       -9.82207514903691       -0.04286514721887
C            7.06755442145164       -8.61539064855885       -0.27993803162891
C            9.20062643462656       -7.56495898470009       -0.70961008542985
C            7.79962282781196       -7.42835678500424       -0.53878207426193
C            7.10846431465126       -6.13928253781154       -0.55443192560476
C            9.91146994078096       -3.64424416915558       -0.56348296786665
C            9.24064907002043       -4.81886665678122       -0.73900226585314
C            7.81367817063135       -4.89912758448229       -0.56660339469667
C            7.11414876059066       -3.67100565633985       -0.34912161852165
C            9.93879926188671       -1.25334754240129       -0.01632373236413
C            9.24417974173995       -2.43108170841227       -0.24661239092329
C            7.81763367886980       -2.44219266715461       -0.20124883063380
C            7.13104825137961       -1.21288101025674       -0.00283423958987
C            9.96047536943142        1.13625745722371        0.52766925873806
C            9.27109772152622       -0.04216884619129        0.23391008191099
C            7.84390520136694       -0.00355320950154        0.19882477670614
C            7.17191675577994        1.24801922654146        0.35749542848299
C            9.32092472177824        2.35328720817137        0.74823307091621
C            7.89222000891739        2.45623258053894        0.60091955180877
C            7.20130330633646        3.71816190013551        0.66705980988294
C            9.86032264094127        6.25881183954217        1.56089026925900
C            9.27284419716627        5.04035422082929        1.24406936323008
C            7.87173855130517        4.96876754256254        0.91559863365758
C            7.15186754789498        6.19772701413283        0.85759543367856
C            9.80147509131737        8.69783450291707        1.81436082033181
C            9.16804284958550        7.47317296209259        1.50903003959718
C            7.79897601163566        7.45030767569862        1.11394045268165
C            7.11071168824185        8.68625257978054        0.99323825114222
C            9.10664626768484        9.87859428168699        1.72244167406042
C            7.77676114272545        9.87461202849647        1.31181004663544
C            5.62098139388896       -8.57927973816087       -0.30630118744871
C            4.86396615639595       -9.76205953150157       -0.28698632374571
C            3.49936974538015       -9.74228888852315       -0.38478405810424
C            2.78909926153299       -8.53321802153127       -0.48437205193465
C            5.69123362935870       -6.11735063703413       -0.43406616600312
C            4.94405873344237       -7.34246065560956       -0.39643292231414
C            3.51689932111085       -7.32056081355045       -0.43801609860307
C            2.80761304038111       -6.07933163531349       -0.40885858418993
C            5.69052430152585       -3.66103371930686       -0.27704449786512
C            4.97759878382931       -4.88276425715197       -0.35494496283954
C            3.54349960294454       -4.86721651741427       -0.31929939757057
C            2.85043007242826       -3.62964619506099       -0.20735464231450
C            5.70798167382240       -1.19968994641980       -0.00300072803353
C            4.99503276493392       -2.41990951195092       -0.13356009042166
C            3.57378474097174       -2.40581747270794       -0.11000508202399
C            2.88126646864754       -1.16976787187285       -0.01117364416096
C            5.74720464482453        1.26532027422465        0.26575521212557
C            5.02434706952917        0.04202047431906        0.11500954291728
C            3.60388623657599        0.05334609425064        0.08151251321655
C            2.91249385284856        1.29542827516079        0.11536571887626
C            5.78372230120514        3.72998258266682        0.46224262869263
C            5.06069156287324        2.50544278480099        0.30841747234660
C            3.63593949697459        2.51474558269365        0.19139157939419
C            2.93458009905388        3.75193843030745        0.12646376498636
C            5.75540006778565        6.19540308755302        0.55233978424096
C            5.07141838835804        4.96791914284758        0.39898785077085
C            3.65264355323795        4.97550316645540        0.18008855440746
C            2.95516213372114        6.19907800206215        0.01236738766796
C            5.72969682719529        8.67129890199578        0.55346548038715
C            5.05373667352419        7.43639037382449        0.39602016324266
C            3.66559897467772        7.43548505139328        0.06703158034555
C            2.98319328334293        8.65384319365584       -0.18197668501843
C            5.03227471095651        9.85624713689067        0.28110856284707
C            3.70969877390816        9.84967810649224       -0.08546792389704
C            1.35283235998970       -8.51465203304839       -0.62691110994437
C            0.63955985669184       -9.70650120453015       -0.83802601334649
C           -0.72520977481414       -9.71388516570180       -0.92180164741773
C           -1.48075885280128       -8.53655665440786       -0.80794806295080
C            1.38233901193721       -6.06375190824117       -0.42147346370514
C            0.63723122752610       -7.28659629903243       -0.56920204284583
C           -0.79137931081289       -7.27576786668436       -0.65284444890632
C           -1.45694549695302       -5.99471439484123       -0.48378055216392
C            1.42827526445909       -3.61214183996981       -0.17770122462490
C            0.70101081536863       -4.82624489939597       -0.28905670436842
C           -0.72568233959526       -4.80220300837841       -0.26771723318053
C           -1.43108390429172       -3.57333610022039       -0.08844907406661
C            1.45495883131223       -1.15637781768228       -0.00070201264499
C            0.72948428459593       -2.37401422547329       -0.06595002808768
C           -0.69571253420255       -2.35574430897933       -0.01460456220587
C           -1.38900610342499       -1.12028128807055        0.07437294369696
C            1.48660153433961        1.30709630227425        0.06752767776967
C            0.75992314716594        0.08385666722755        0.04487019395553
C           -0.66188450886303        0.10115938638516        0.06436634941968
C           -1.35888258264496        1.34041450366607        0.04392183848133
C            1.51691763331532        3.76222704547647        0.00158032677460
C            0.79037066191828        2.53928833691798        0.01659700208797
C           -0.63332322511202        2.55392964550470       -0.02273594214682
C           -1.33200911480748        3.78605399100283       -0.15631527639852
C            1.54518747707631        6.20356065597793       -0.19526808837242
C            0.82194768360980        4.98943566634734       -0.15651399705913
C           -0.60407733376737        4.99766757715324       -0.27593955249179
C           -1.29585460778739        6.20582667151994       -0.52497735898231
C            1.57184956739437        8.64372058911468       -0.50408523416380
C            0.85166467665407        7.42736070899908       -0.45230044415036
C           -0.56009852482243        7.42198777189688       -0.66664536175329
C           -1.23819821025779        8.61806008028016       -1.00305812715958
C            0.86971824231658        9.81118132180533       -0.85083808604101
C           -0.47983922528712        9.79699393457736       -1.10192885535182
C           -2.91834445419732       -8.65295191655890       -0.81237639741730
C           -3.77452737381503       -9.75494179586100       -0.64398691460223
C           -5.15123795294744       -9.64538436940813       -0.44833479876509
C           -5.91908283268565       -8.46455811716560       -0.24511925541520
C           -2.86678827954241       -5.87152580637790       -0.48205198501003
C           -5.30062035741669       -7.20416910188991       -0.33540326672545
C           -5.83090697211413       -5.95675899961102        0.08919025873796
C           -2.85426825299360       -3.53688461230421        0.02673617429214
C           -3.60918444301719       -4.72619923366878       -0.12610384604911
C           -5.04683195334758       -4.75667604940228        0.11501191097848
C           -5.69571842308973       -3.53624107490839        0.47751665170797
C           -2.81249346572746       -1.09529983307398        0.17082880970673
C           -3.54246780891010       -2.30805791825469        0.20766740908336
C           -4.95478664278246       -2.30345681940894        0.40302850525785
C           -5.62445658542443       -1.06258078335526        0.50892541385712
C           -2.78446928609342        1.36413269431867        0.08493384115472
C           -3.50573494947636        0.14512044898093        0.19925074467386
C           -4.91701628803076        0.16533132043627        0.33825843089725
C           -5.60819045296287        1.41191477405539        0.30828733151209
C           -2.75254647239144        3.80307261508687       -0.17876833721995
C           -3.48269672403475        2.59346267783582       -0.00334924621717
C           -4.90485135510083        2.61966061573522        0.08453649772860
C           -5.61720560857747        3.85333733322192       -0.07076319713724
C           -2.71624454936422        6.20914528271316       -0.62704500199708
C           -3.44824814747232        5.01747583076908       -0.40075007014128
C           -4.88123983714539        5.03559107565856       -0.39821082336659
C           -5.56105242930009        6.22310994075802       -0.73658681070719
C           -2.67109439110526        8.59893408830491       -1.21812661471272
C           -3.40486289302621        7.41040070374918       -0.97495195530429
C           -4.82616531775460        7.40221513129337       -1.09166606083549
C           -5.50358756242550        8.56388578447438       -1.53262588633426
C           -3.37973630952136        9.73091054456718       -1.65015963114949
C           -4.74385791400300        9.70853023849043       -1.81385581862003
C           -7.31027477967758       -8.46545748612829        0.16130585361797
C           -8.09328643522710       -9.62311849016609        0.14976350032852
C           -9.42303467981938       -9.60807373617464        0.55013590389499
C           -9.99374916262621       -8.43306464598767        0.98547810067997
C           -7.17707144887376       -5.97564769167543        0.56134765249353
C           -7.89575499163644       -7.22424199076930        0.56251279616053
C           -9.24723215034511       -7.24247909837400        1.00121476623466
C           -9.80541890811965       -6.04336146619698        1.50589568374894
C           -7.06210490938284       -3.52327018464464        0.89801217070210
C           -7.77710836926248       -4.77050391005317        1.01289970217660
C           -9.11074646336908       -4.86664739468758        1.53533741111899
C           -7.01759498541937       -1.03502587179015        0.80631514475552
C           -7.70166182845796       -2.24412436880040        1.11765842538356
C           -9.04264480655249       -2.12747546495518        1.59712713476517
C           -9.69419974785294       -0.92066214752299        1.59593581059268
C           -7.01746391218418        1.44917747412319        0.52198125608602
C           -7.68984837902479        0.22558644966142        0.82905805038696
C           -9.06093304613394        0.26366597697895        1.17095808158913
C           -9.73692555652721        1.49596340232028        1.15524622898690
C           -7.02907366420795        3.90226501094098        0.08634600441422
C           -7.72058300429470        2.68675757603570        0.47023160047156
C           -9.10794359521910        2.66426805381881        0.79779097719532
C           -6.98626606947541        6.25169751128364       -0.70892330081912
C           -7.71079157089185        5.13423229586736       -0.20986919299715
C           -9.13349650177513        5.28876191761429       -0.07790021100634
C           -9.78109141764774        6.38516514845976       -0.57575012199040
C           -6.95039104285430        8.55227730835974       -1.65503946362586
C           -7.66666053780094        7.42106175296430       -1.17874821035107
C           -9.08654988507921        7.45758217929574       -1.18703473965459
C           -9.76637966999031        8.55954303762387       -1.72950216445483
C           -7.66836803888821        9.61946231295983       -2.20396542523711
C           -9.05695277070588        9.61909189515952       -2.25125729320611
H           10.91389082197322       -8.85152201182117       -0.66349567040741
H            9.63172285612859      -10.84115897276324        0.06214600014108
H            7.20811487246919      -10.71282706795186        0.22759978270400
H           11.24318748581589       -6.22445345842694       -0.52575543693945
H           10.98965160113092       -3.61311064320877       -0.68625794806651
H           11.02251533945469       -1.26252893975833       -0.02981972892847
H           11.04363452559886        1.09567786972782        0.59645140368468
H           10.91089738650591        6.27898666012685        1.83651115110794
H           10.83998051848617        8.69089242467985        2.12157060475193
H            5.35060417668585      -10.72373636512429       -0.22490054605356
H            2.97979024046564      -10.68824241885688       -0.36709064529718
H            1.15972749915564      -10.64481817965590       -0.95372451961583