      -----------------------------------------------------------      
     |                   =====================                   |     
     |                           x T B                           |     
     |                   =====================                   |     
     |                         S. Grimme                         |     
     |          Mulliken Center for Theoretical Chemistry        |     
     |                    University of Bonn                     |     
      -----------------------------------------------------------      

   * xtb version 6.7.1pre (5071a88) compiled by 'Marcel@Raven' on 2024-07-23

   xtb is free software: you can redistribute it and/or modify it under
   the terms of the GNU Lesser General Public License as published by
   the Free Software Foundation, either version 3 of the License, or
   (at your option) any later version.
   
   xtb is distributed in the hope that it will be useful,
   but WITHOUT ANY WARRANTY; without even the implied warranty of
   MERCHANTABILITY or FITNESS FOR A PARTICULAR PURPOSE.  See the
   GNU Lesser General Public License for more details.
   
   Cite this work as:
   * C. Bannwarth, E. Caldeweyher, S. Ehlert, A. Hansen, P. Pracht,
     J. Seibert, S. Spicher, S. Grimme, WIREs Comput. Mol. Sci., 2020, 11,
     e01493. DOI: 10.1002/wcms.1493
   
   for GFN2-xTB:
   * C. Bannwarth, S. Ehlert and S. Grimme., J. Chem. Theory Comput., 2019,
     15, 1652-1671. DOI: 10.1021/acs.jctc.8b01176
   for GFN1-xTB:
   * S. Grimme, C. Bannwarth, P. Shushkov, J. Chem. Theory Comput., 2017,
     13, 1989-2009. DOI: 10.1021/acs.jctc.7b00118
   for GFN0-xTB:
   * P. Pracht, E. Caldeweyher, S. Ehlert, S. Grimme, ChemRxiv, 2019, preprint.
     DOI: 10.26434/chemrxiv.8326202.v1
   for GFN-FF:
   * S. Spicher and S. Grimme, Angew. Chem. Int. Ed., 2020, 59, 15665-15673.
     DOI: 10.1002/anie.202004239
   
   for ALPB and GBSA implicit solvation:
   * S. Ehlert, M. Stahn, S. Spicher, S. Grimme, J. Chem. Theory Comput.,
     2021, 17, 4250-4261. DOI: 10.1021/acs.jctc.1c00471
   
   for ddCOSMO and CPCM-X implicit solvation:
   * M. Stahn, S. Ehlert, S. Grimme, J. Phys. Chem. A,
     2023, XX, XXXX-XXXX. DOI: 10.1021/acs.jpca.3c04382
   
   for DFT-D4:
   * E. Caldeweyher, C. Bannwarth and S. Grimme, J. Chem. Phys., 2017,
     147, 034112. DOI: 10.1063/1.4993215
   * E. Caldeweyher, S. Ehlert, A. Hansen, H. Neugebauer, S. Spicher,
     C. Bannwarth and S. Grimme, J. Chem. Phys., 2019, 150, 154122.
     DOI: 10.1063/1.5090222
   * E. Caldeweyher, J.-M. Mewes, S. Ehlert and S. Grimme, Phys. Chem. Chem. Phys.
     2020, 22, 8499-8512. DOI: 10.1039/D0CP00502A
   
   for sTDA-xTB:
   * S. Grimme and C. Bannwarth, J. Chem. Phys., 2016, 145, 054103.
     DOI: 10.1063/1.4959605
   
   in the mass-spec context:
   * V. Asgeirsson, C. Bauer and S. Grimme, Chem. Sci., 2017, 8, 4879.
     DOI: 10.1039/c7sc00601b
   * J. Koopman and S. Grimme, ACS Omega 2019, 4, 12, 15120-15133.
     DOI: 10.1021/acsomega.9b02011
   
   for metadynamics refer to:
   * S. Grimme, J. Chem. Theory Comput., 2019, 155, 2847-2862
     DOI: 10.1021/acs.jctc.9b00143
   
   for SPH calculations refer to:
   * S. Spicher and S. Grimme, J. Chem. Theory Comput., 2021, 17, 1701-1714
     DOI: 10.1021/acs.jctc.0c01306
   
   for ONIOM refer to:
   * C. Plett, A. Katbashev, S. Ehlert, S. Grimme, M. Bursch,
     Phys. Chem. Chem. Phys., 2023, 25, 17860-17868. DOI: 10.1039/D3CP02178E
   
   for DIPRO refer to:
   * J. Kohn, N. Gildemeister, S. Grimme, D. Fazzi, A. Hansen,
     J. Chem. Phys., 2023, just accepted.
   
   for PTB refer to:
   * S. Grimme, M. Mueller, A. Hansen, J. Chem. Phys., 2023, 158, 124111.
     DOI: 10.1063/5.0137838
   
   with help from (in alphabetical order)
   P. Atkinson, C. Bannwarth, F. Bohle, G. Brandenburg, E. Caldeweyher
   M. Checinski, S. Dohm, S. Ehlert, S. Ehrlich, I. Gerasimov, C. Hölzer
   A. Katbashev, J. Kohn, J. Koopman, C. Lavigne, S. Lehtola, F. März, M. Müller,
   F. Musil, H. Neugebauer, J. Pisarek, C. Plett, P. Pracht, F. Pultar,
   J. Seibert, P. Shushkov, S. Spicher, M. Stahn, M. Steiner, T. Strunk,
   J. Stückrath, T. Rose, and J. Unsleber
   
 * started run on 2025/12/08 at 00:37:30.039     
   ID    Z sym.   atoms
    1    6 C      1-4, 6-18, 20, 22-40, 42-66, 68-85, 87-97, 99-107, 109-134,
                  136-147, 149-152, 154-159, 161-170
    2    5 B      5, 19, 21, 41, 67, 86, 98, 108, 135, 148, 153, 160
    3    1 H      171-206

           -------------------------------------------------
          |                Calculation Setup                |
           -------------------------------------------------

          program call               : xtb "C:\Users\LENOVO GAMING\Documents\GitHub\molecular-conductivity-sim\results\2nm-12Bdoped-7percent\xtbopt.xyz" --sp
          coordinate file            : C:\Users\LENOVO GAMING\Documents\GitHub\molecular-conductivity-sim\results\2nm-12Bdoped-7percent\xtbopt.xyz
          omp threads                :                    16


           -------------------------------------------------
          |                 G F N 2 - x T B                 |
           -------------------------------------------------

        Reference                      10.1021/acs.jctc.8b01176
      * Hamiltonian:
        H0-scaling (s, p, d)           1.850000    2.230000    2.230000
        zeta-weighting                 0.500000
      * Dispersion:
        s8                             2.700000
        a1                             0.520000
        a2                             5.000000
        s9                             5.000000
      * Repulsion:
        kExp                           1.500000    1.000000
        rExp                           1.000000
      * Coulomb:
        alpha                          2.000000
        third order                    shell-resolved
        anisotropic                    true
        a3                             3.000000
        a5                             4.000000
        cn-shift                       1.200000
        cn-exp                         4.000000
        max-rad                        5.000000

q/qsh data taken from xtbrestart
CAMM data taken from xtbrestart

          ...................................................
          :                      SETUP                      :
          :.................................................:
          :  # basis functions                 716          :
          :  # atomic orbitals                 716          :
          :  # shells                          376          :
          :  # electrons                       704          :
          :  max. iterations                   250          :
          :  Hamiltonian                  GFN2-xTB          :
          :  restarted?                       true          :
          :  GBSA solvation                  false          :
          :  PC potential                    false          :
          :  electronic temp.          300.0000000     K    :
          :  accuracy                    1.0000000          :
          :  -> integral cutoff          0.2500000E+02      :
          :  -> integral neglect         0.1000000E-07      :
          :  -> SCF convergence          0.1000000E-05 Eh   :
          :  -> wf. convergence          0.1000000E-03 e    :
          :  Broyden damping             0.4000000          :
          :  net charge                          0          :
          :  unpaired electrons                  0          :
          ...................................................

 iter      E             dE          RMSdq      gap      omega  full diag
   1   -379.5761995 -0.379576E+03  0.110E-04    0.03       0.0  T
   2   -379.5761988  0.646602E-06  0.908E-04    0.03       7.7  T
   3   -379.5761993 -0.456742E-06  0.532E-04    0.03      13.1  T

   *** convergence criteria satisfied after 3 iterations ***

         #    Occupation            Energy/Eh            Energy/eV
      -------------------------------------------------------------
         1        2.0000           -0.6605418             -17.9743
       ...           ...                  ...                  ...
       346        2.0000           -0.3596159              -9.7856
       347        2.0000           -0.3585708              -9.7572
       348        2.0000           -0.3561760              -9.6920
       349        2.0000           -0.3535027              -9.6193
       350        1.9999           -0.3522281              -9.5846
       351        1.9948           -0.3479095              -9.4671
       352        1.2511           -0.3427524              -9.3268 (HOMO)
       353        0.7366           -0.3417523              -9.2996 (LUMO)
       354        0.0174           -0.3377652              -9.1911
       355        0.0002           -0.3332620              -9.0685
       356                         -0.3253753              -8.8539
       357                         -0.3051210              -8.3028
       ...                                ...                  ...
       716                          0.7900343              21.4979
      -------------------------------------------------------------
                  HL-Gap            0.0010001 Eh            0.0272 eV
             Fermi-level           -0.3422648 Eh           -9.3135 eV

 SCC (total)                   0 d,  0 h,  0 min,  0.723 sec
 SCC setup                      ...        0 min,  0.002 sec (  0.277%)
 Dispersion                     ...        0 min,  0.022 sec (  3.043%)
 classical contributions        ...        0 min,  0.000 sec (  0.000%)
 integral evaluation            ...        0 min,  0.051 sec (  7.054%)
 iterations                     ...        0 min,  0.458 sec ( 63.347%)
 molecular gradient             ...        0 min,  0.176 sec ( 24.343%)
 printout                       ...        0 min,  0.014 sec (  1.936%)

         :::::::::::::::::::::::::::::::::::::::::::::::::::::
         ::                     SUMMARY                     ::
         :::::::::::::::::::::::::::::::::::::::::::::::::::::
         :: total energy            -372.454220577096 Eh    ::
         :: gradient norm              0.000334770791 Eh/a0 ::
         :: HOMO-LUMO gap              0.027215129235 eV    ::
         ::.................................................::
         :: SCC energy              -379.591679393828 Eh    ::
         :: -> isotropic ES            0.244055479313 Eh    ::
         :: -> anisotropic ES          0.036398197566 Eh    ::
         :: -> anisotropic XC          0.129542466079 Eh    ::
         :: -> dispersion             -0.479245417359 Eh    ::
         :: repulsion energy           7.137458816732 Eh    ::
         :: add. restraining           0.000000000000 Eh    ::
         :: total charge              -0.000000000000 e     ::
         :::::::::::::::::::::::::::::::::::::::::::::::::::::

           -------------------------------------------------
          |                Property Printout                |
           -------------------------------------------------

    * Orbital Energies and Occupations

         #    Occupation            Energy/Eh            Energy/eV
      -------------------------------------------------------------
         1        2.0000           -0.6605418             -17.9743
       ...           ...                  ...                  ...
       340        2.0000           -0.3674743              -9.9995
       341        2.0000           -0.3653785              -9.9425
       342        2.0000           -0.3645979              -9.9212
       343        2.0000           -0.3643472              -9.9144
       344        2.0000           -0.3631611              -9.8821
       345        2.0000           -0.3601607              -9.8005
       346        2.0000           -0.3596159              -9.7856
       347        2.0000           -0.3585708              -9.7572
       348        2.0000           -0.3561760              -9.6920
       349        2.0000           -0.3535027              -9.6193
       350        1.9999           -0.3522281              -9.5846
       351        1.9948           -0.3479095              -9.4671
       352        1.2511           -0.3427524              -9.3268 (HOMO)
       353        0.7366           -0.3417523              -9.2996 (LUMO)
       354        0.0174           -0.3377652              -9.1911
       355        0.0002           -0.3332620              -9.0685
       356                         -0.3253753              -8.8539
       357                         -0.3051210              -8.3028
       358                         -0.2976046              -8.0982
       359                         -0.2947491              -8.0205
       360                         -0.2899332              -7.8895
       361                         -0.2888324              -7.8595
       362                         -0.2736462              -7.4463
       363                         -0.2728460              -7.4245
       ...                                ...                  ...
       716                          0.7900343              21.4979
      -------------------------------------------------------------
                  HL-Gap            0.0010001 Eh            0.0272 eV
             Fermi-level           -0.3422648 Eh           -9.3135 eV

     #   Z          covCN         q      C6AA      α(0)
     1   6 C        2.923    -0.023    28.585     8.768
     2   6 C        2.910    -0.032    28.802     8.800
     3   6 C        2.923    -0.029    28.715     8.788
     4   6 C        2.978     0.008    27.846     8.656
     5   5 B        2.757     0.211    18.173     7.133
     6   6 C        2.890    -0.072    29.797     8.949
     7   6 C        2.980     0.006    27.892     8.663
     8   6 C        2.975    -0.002    28.065     8.690
     9   6 C        2.926    -0.023    28.574     8.766
    10   6 C        2.886    -0.075    29.872     8.961
    11   6 C        2.979     0.009    27.818     8.652
    12   6 C        2.984    -0.001    28.042     8.686
    13   6 C        2.912    -0.018    28.467     8.749
    14   6 C        2.971     0.001    28.000     8.680
    15   6 C        2.987     0.006    27.883     8.662
    16   6 C        2.904    -0.077    29.928     8.970
    17   6 C        2.907    -0.016    28.408     8.740
    18   6 C        2.882    -0.070    29.749     8.942
    19   5 B        2.754     0.192    18.452     7.188
    20   6 C        2.901    -0.077    29.923     8.969
    21   5 B        2.758     0.210    18.185     7.135
    22   6 C        2.880    -0.082    30.039     8.985
    23   6 C        2.970     0.013    27.716     8.636
    24   6 C        2.978    -0.003    28.094     8.694
    25   6 C        2.922    -0.026    28.643     8.777
    26   6 C        2.886    -0.070    29.737     8.940
    27   6 C        2.981     0.011    27.775     8.645
    28   6 C        2.985     0.002    27.977     8.676
    29   6 C        2.922    -0.027    28.666     8.780
    30   6 C        2.980     0.010    27.784     8.646
    31   6 C        2.997     0.003    27.954     8.673
    32   6 C        2.977     0.013    27.730     8.638
    33   6 C        2.911    -0.029    28.719     8.787
    34   6 C        2.923    -0.030    28.737     8.791
    35   6 C        2.969     0.009    27.812     8.650
    36   6 C        2.912    -0.037    28.917     8.818
    37   6 C        2.902    -0.033    28.819     8.802
    38   6 C        2.891    -0.061    29.516     8.907
    39   6 C        2.975     0.006    27.875     8.660
    40   6 C        2.904    -0.079    29.975     8.977
    41   5 B        2.751     0.183    18.586     7.215
    42   6 C        2.900    -0.075    29.867     8.961
    43   6 C        2.983     0.002    27.966     8.675
    44   6 C        2.974    -0.006    28.162     8.705
    45   6 C        2.978     0.007    27.864     8.659
    46   6 C        2.988     0.001    27.997     8.680
    47   6 C        2.979     0.008    27.824     8.653
    48   6 C        2.987    -0.001    28.049     8.688
    49   6 C        2.991     0.001    27.990     8.678
    50   6 C        2.980     0.004    27.938     8.670
    51   6 C        2.978     0.004    27.925     8.668
    52   6 C        2.975     0.001    27.991     8.678
    53   6 C        2.976    -0.001    28.036     8.685
    54   6 C        2.981     0.003    27.947     8.672
    55   6 C        2.983     0.001    28.009     8.681
    56   6 C        2.988    -0.002    28.064     8.690
    57   6 C        2.989     0.001    27.996     8.679
    58   6 C        2.985     0.004    27.917     8.667
    59   6 C        2.984     0.001    27.987     8.678
    60   6 C        2.984    -0.003    28.084     8.693
    61   6 C        2.986     0.004    27.938     8.670
    62   6 C        2.976     0.007    27.870     8.660
    63   6 C        2.891    -0.062    29.545     8.912
    64   6 C        2.975     0.004    27.941     8.671
    65   6 C        2.972    -0.006    28.165     8.705
    66   6 C        2.955     0.015    27.666     8.627
    67   5 B        2.755     0.200    18.328     7.164
    68   6 C        2.829    -0.103    30.575     9.061
    69   6 C        2.970     0.012    27.740     8.639
    70   6 C        2.916    -0.030    28.751     8.793
    71   6 C        2.916    -0.035    28.879     8.812
    72   6 C        2.971     0.019    27.583     8.615
    73   6 C        2.977     0.003    27.950     8.672
    74   6 C        2.975    -0.001    28.050     8.688
    75   6 C        2.973    -0.001    28.039     8.686
    76   6 C        2.977     0.006    27.877     8.661
    77   6 C        2.989     0.002    27.969     8.675
    78   6 C        2.988     0.003    27.948     8.672
    79   6 C        2.985    -0.000    28.024     8.684
    80   6 C        2.983     0.003    27.959     8.674
    81   6 C        2.906    -0.075    29.881     8.963
    82   6 C        2.981     0.005    27.912     8.666
    83   6 C        2.978    -0.001    28.036     8.685
    84   6 C        2.983     0.004    27.920     8.668
    85   6 C        2.906    -0.077    29.934     8.971
    86   5 B        2.756     0.193    18.431     7.184
    87   6 C        2.905    -0.073    29.830     8.956
    88   6 C        2.982     0.005    27.906     8.665
    89   6 C        2.992     0.004    27.925     8.668
    90   6 C        2.983     0.001    28.002     8.680
    91   6 C        2.978    -0.004    28.112     8.697
    92   6 C        2.983     0.004    27.923     8.668
    93   6 C        2.901    -0.072    29.785     8.949
    94   6 C        2.981     0.003    27.963     8.674
    95   6 C        2.979    -0.007    28.196     8.710
    96   6 C        2.981     0.003    27.952     8.672
    97   6 C        2.890    -0.052    29.294     8.874
    98   5 B        2.753     0.168    18.806     7.257
    99   6 C        2.907    -0.079    29.975     8.977
   100   6 C        2.970     0.014    27.706     8.634
   101   6 C        2.902    -0.030    28.742     8.790
   102   6 C        2.913    -0.033    28.828     8.804
   103   6 C        2.891    -0.067    29.675     8.931
   104   6 C        2.902    -0.030    28.739     8.790
   105   6 C        2.912    -0.042    29.040     8.837
   106   6 C        2.969     0.011    27.757     8.642
   107   6 C        2.900    -0.075    29.867     8.961
   108   5 B        2.753     0.181    18.606     7.218
   109   6 C        2.904    -0.079    29.969     8.976
   110   6 C        2.979     0.006    27.878     8.661
   111   6 C        2.985     0.002    27.968     8.675
   112   6 C        2.976     0.008    27.831     8.654
   113   6 C        2.974    -0.008    28.213     8.713
   114   6 C        2.978     0.002    27.982     8.677
   115   6 C        2.990    -0.002    28.059     8.689
   116   6 C        2.984     0.002    27.975     8.676
   117   6 C        2.980     0.004    27.938     8.670
   118   6 C        2.977    -0.001    28.057     8.689
   119   6 C        2.990     0.004    27.928     8.669
   120   6 C        2.990     0.002    27.971     8.676
   121   6 C        2.980     0.007    27.859     8.658
   122   6 C        2.904    -0.076    29.896     8.965
   123   6 C        2.984     0.004    27.938     8.670
   124   6 C        2.990     0.000    28.014     8.682
   125   6 C        2.982     0.000    28.016     8.682
   126   6 C        2.975    -0.004    28.120     8.698
   127   6 C        2.986     0.007    27.851     8.657
   128   6 C        2.984    -0.002    28.059     8.689
   129   6 C        2.982     0.003    27.952     8.672
   130   6 C        2.980     0.005    27.914     8.667
   131   6 C        2.889    -0.063    29.569     8.915
   132   6 C        2.978     0.001    28.009     8.681
   133   6 C        2.979     0.000    28.016     8.682
   134   6 C        2.966     0.012    27.741     8.639
   135   5 B        2.755     0.205    18.254     7.149
   136   6 C        2.828    -0.117    30.950     9.116
   137   6 C        2.977     0.008    27.837     8.655
   138   6 C        2.922    -0.030    28.744     8.792
   139   6 C        2.912    -0.031    28.762     8.794
   140   6 C        2.923    -0.031    28.772     8.796
   141   6 C        2.985     0.001    27.995     8.679
   142   6 C        2.994     0.005    27.898     8.664
   143   6 C        2.982     0.010    27.792     8.648
   144   6 C        2.923    -0.025    28.622     8.773
   145   6 C        2.975    -0.005    28.136     8.701
   146   6 C        2.980     0.006    27.883     8.662
   147   6 C        2.886    -0.072    29.788     8.948
   148   5 B        2.759     0.214    18.123     7.123
   149   6 C        2.979     0.000    28.019     8.683
   150   6 C        2.978     0.008    27.836     8.654
   151   6 C        2.888    -0.073    29.810     8.951
   152   6 C        2.922    -0.024    28.602     8.770
   153   5 B        2.752     0.185    18.549     7.208
   154   6 C        2.912    -0.070    29.741     8.942
   155   6 C        2.969     0.010    27.784     8.646
   156   6 C        2.913    -0.027    28.675     8.781
   157   6 C        2.970     0.005    27.918     8.667
   158   6 C        2.893    -0.068    29.685     8.933
   159   6 C        2.876    -0.072    29.786     8.947
   160   5 B        2.755     0.215    18.115     7.122
   161   6 C        2.983    -0.001    28.041     8.686
   162   6 C        2.981     0.008    27.838     8.655
   163   6 C        2.885    -0.070    29.745     8.941
   164   6 C        2.923    -0.028    28.691     8.784
   165   6 C        2.981     0.006    27.885     8.662
   166   6 C        2.999     0.003    27.947     8.672
   167   6 C        2.983     0.010    27.799     8.649
   168   6 C        2.921    -0.032    28.805     8.801
   169   6 C        2.923    -0.030    28.749     8.793
   170   6 C        2.914    -0.031    28.761     8.794
   171   1 H        0.926     0.032     2.555     2.500
   172   1 H        0.926     0.026     2.637     2.539
   173   1 H        0.926     0.032     2.553     2.498
   174   1 H        0.938    -0.108     5.842     3.779
   175   1 H        0.925     0.034     2.524     2.484
   176   1 H        0.925     0.029     2.602     2.522
   177   1 H        0.925     0.028     2.616     2.529
   178   1 H        0.938    -0.109     5.880     3.791
   179   1 H        0.926     0.037     2.486     2.466
   180   1 H        0.926     0.038     2.474     2.460
   181   1 H        0.926     0.030     2.591     2.517
   182   1 H        0.925     0.020     2.727     2.582
   183   1 H        0.926     0.036     2.502     2.473
   184   1 H        0.926     0.035     2.511     2.478
   185   1 H        0.925     0.021     2.713     2.576
   186   1 H        0.926     0.028     2.622     2.532
   187   1 H        0.926     0.037     2.491     2.468
   188   1 H        0.926     0.032     2.561     2.503
   189   1 H        0.926     0.035     2.520     2.482
   190   1 H        0.925     0.036     2.500     2.472
   191   1 H        0.939    -0.106     5.765     3.754
   192   1 H        0.925     0.031     2.569     2.507
   193   1 H        0.925     0.032     2.555     2.500
   194   1 H        0.938    -0.108     5.853     3.783
   195   1 H        0.926     0.035     2.512     2.478
   196   1 H        0.926     0.034     2.525     2.485
   197   1 H        0.926     0.032     2.557     2.501
   198   1 H        0.926     0.036     2.507     2.476
   199   1 H        0.926     0.049     2.333     2.388
   200   1 H        0.939    -0.106     5.770     3.756
   201   1 H        0.925     0.031     2.570     2.507
   202   1 H        0.925     0.025     2.664     2.553
   203   1 H        0.926     0.042     2.419     2.432
   204   1 H        0.939    -0.109     5.872     3.788
   205   1 H        0.925     0.022     2.703     2.571
   206   1 H        0.926     0.039     2.459     2.452

 Mol. C6AA /au·bohr⁶  :     914370.016922
 Mol. C8AA /au·bohr⁸  :   25724807.807361
 Mol. α(0) /au        :       1565.544883


Wiberg/Mayer (AO) data.
largest (>0.10) Wiberg bond orders for each atom

 ---------------------------------------------------------------------------
     #   Z sym  total        # sym  WBO       # sym  WBO       # sym  WBO
 ---------------------------------------------------------------------------
     1   6 C    3.966 --     6 C    1.431     2 C    1.384   171 H    0.970
     2   6 C    3.973 --     3 C    1.493     1 C    1.384   172 H    0.970
     3   6 C    3.974 --     2 C    1.493     4 C    1.320   173 H    0.960
     4   6 C    3.965 --     3 C    1.320     7 C    1.273    35 C    1.179
     5   5 B    3.341 --    10 C    1.073     6 C    1.068   174 H    0.969
     6   6 C    3.949 --     1 C    1.431     7 C    1.272     5 B    1.068
     7   6 C    3.971 --     4 C    1.273     6 C    1.272     8 C    1.204
     8   6 C    3.939 --    39 C    1.306    11 C    1.213     7 C    1.204
     9   6 C    3.947 --    10 C    1.417    14 C    1.345   175 H    0.966
    10   6 C    3.905 --     9 C    1.417    11 C    1.260     5 B    1.073
    11   6 C    3.951 --    10 C    1.260    12 C    1.256     8 C    1.213
    12   6 C    3.962 --    15 C    1.263    11 C    1.256    43 C    1.229
    13   6 C    3.909 --    18 C    1.473    14 C    1.243   176 H    0.962
    14   6 C    3.947 --     9 C    1.345    13 C    1.243    15 C    1.203
    15   6 C    3.959 --    16 C    1.272    12 C    1.263    14 C    1.203
    16   6 C    3.871 --    47 C    1.332    15 C    1.272    19 B    1.073
    17   6 C    3.929 --    22 C    1.503    18 C    1.247   177 H    0.964
    18   6 C    3.927 --    13 C    1.473    17 C    1.247    19 B    1.056
    19   5 B    3.443 --    16 C    1.073    20 C    1.072    18 C    1.056
    20   6 C    3.908 --    23 C    1.337    51 C    1.287    19 B    1.072
    21   5 B    3.357 --    22 C    1.104    26 C    1.043   178 H    0.969
    22   6 C    3.924 --    17 C    1.503    23 C    1.162    21 B    1.104
    23   6 C    3.926 --    20 C    1.337    24 C    1.225    22 C    1.162
    24   6 C    3.952 --    55 C    1.274    27 C    1.236    23 C    1.225
    25   6 C    3.930 --    26 C    1.514    30 C    1.250   179 H    0.966
    26   6 C    3.943 --    25 C    1.514    27 C    1.215    21 B    1.043
    27   6 C    3.928 --    28 C    1.268    24 C    1.236    26 C    1.215
    28   6 C    3.974 --    27 C    1.268    31 C    1.253    59 C    1.233
    29   6 C    3.894 --    33 C    1.444    30 C    1.319   180 H    0.968
    30   6 C    3.984 --    29 C    1.319    25 C    1.250    31 C    1.245
    31   6 C    3.967 --    28 C    1.253    30 C    1.245    32 C    1.238
    32   6 C    3.977 --    34 C    1.322    31 C    1.238    63 C    1.234
    33   6 C    3.983 --    34 C    1.445    29 C    1.444   198 H    0.969
    34   6 C    3.892 --    33 C    1.445    32 C    1.322   199 H    0.963
    35   6 C    3.954 --    40 C    1.363    36 C    1.214     4 C    1.179
    36   6 C    3.866 --    37 C    1.562    35 C    1.214   181 H    0.961
    37   6 C    3.959 --    36 C    1.562    38 C    1.285   182 H    0.959
    38   6 C    3.802 --    69 C    1.289    37 C    1.285    41 B    1.057
    39   6 C    3.964 --     8 C    1.306    40 C    1.244    44 C    1.196
    40   6 C    3.912 --    35 C    1.363    39 C    1.244    41 B    1.080
    41   5 B    3.421 --    42 C    1.088    40 C    1.080    38 C    1.057
    42   6 C    3.872 --    73 C    1.300    45 C    1.274    41 B    1.088
    43   6 C    3.971 --    44 C    1.283    48 C    1.234    12 C    1.229
    44   6 C    3.919 --    43 C    1.283    45 C    1.232    39 C    1.196
    45   6 C    3.949 --    42 C    1.274    46 C    1.235    44 C    1.232
    46   6 C    3.966 --    77 C    1.253    49 C    1.252    45 C    1.235
    47   6 C    3.955 --    16 C    1.332    48 C    1.246    52 C    1.162
    48   6 C    3.948 --    49 C    1.255    47 C    1.246    43 C    1.234
    49   6 C    3.956 --    48 C    1.255    46 C    1.252    50 C    1.235
    50   6 C    3.941 --    81 C    1.328    49 C    1.235    53 C    1.178
    51   6 C    3.939 --    20 C    1.287    56 C    1.262    52 C    1.186
    52   6 C    3.940 --    53 C    1.377    51 C    1.186    47 C    1.162
    53   6 C    3.944 --    52 C    1.377    50 C    1.178    54 C    1.176
    54   6 C    3.950 --    85 C    1.323    57 C    1.245    53 C    1.176
    55   6 C    3.965 --    24 C    1.274    56 C    1.246    60 C    1.220
    56   6 C    3.964 --    51 C    1.262    55 C    1.246    57 C    1.236
    57   6 C    3.950 --    58 C    1.259    54 C    1.245    56 C    1.236
    58   6 C    3.962 --    57 C    1.259    61 C    1.239    89 C    1.237
    59   6 C    3.958 --    60 C    1.273    28 C    1.233    64 C    1.219
    60   6 C    3.971 --    59 C    1.273    61 C    1.254    55 C    1.220
    61   6 C    3.942 --    60 C    1.254    58 C    1.239    62 C    1.233
    62   6 C    3.959 --    65 C    1.303    61 C    1.233    93 C    1.215
    63   6 C    3.781 --    64 C    1.301    32 C    1.234    67 B    1.054
    64   6 C    3.965 --    63 C    1.301    65 C    1.240    59 C    1.219
    65   6 C    3.856 --    62 C    1.303    64 C    1.240    66 C    1.122
    66   6 C    3.950 --    68 C    1.509    97 C    1.177    65 C    1.122
    67   5 B    3.278 --    68 C    1.120    63 C    1.054   200 H    0.959
    68   6 C    3.776 --    66 C    1.509    67 B    1.120   201 H    0.963
    69   6 C    3.936 --    38 C    1.289    70 C    1.262    74 C    1.197
    70   6 C    3.936 --    71 C    1.562    69 C    1.262   183 H    0.961
    71   6 C    3.941 --    70 C    1.562    72 C    1.268   184 H    0.961
    72   6 C    3.932 --   103 C    1.281    71 C    1.268    75 C    1.189
    73   6 C    3.939 --    42 C    1.300    78 C    1.259    74 C    1.182
    74   6 C    3.939 --    75 C    1.350    69 C    1.197    73 C    1.182
    75   6 C    3.938 --    74 C    1.350    76 C    1.190    72 C    1.189
    76   6 C    3.931 --   107 C    1.274    79 C    1.272    75 C    1.190
    77   6 C    3.961 --    82 C    1.257    46 C    1.253    78 C    1.231
    78   6 C    3.952 --    73 C    1.259    79 C    1.247    77 C    1.231
    79   6 C    3.951 --    76 C    1.272    78 C    1.247    80 C    1.219
    80   6 C    3.963 --    83 C    1.301   111 C    1.224    79 C    1.219
    81   6 C    3.886 --    50 C    1.328    82 C    1.289    86 B    1.063
    82   6 C    3.940 --    81 C    1.289    77 C    1.257    83 C    1.196
    83   6 C    3.917 --    80 C    1.301    84 C    1.215    82 C    1.196
    84   6 C    3.946 --    87 C    1.283   115 C    1.247    83 C    1.215
    85   6 C    3.883 --    54 C    1.323    90 C    1.278    86 B    1.077
    86   5 B    3.423 --    85 C    1.077    87 C    1.063    81 C    1.063
    87   6 C    3.874 --    88 C    1.317    84 C    1.283    86 B    1.063
    88   6 C    3.947 --    87 C    1.317   119 C    1.229    91 C    1.203
    89   6 C    3.941 --    90 C    1.265    58 C    1.237    94 C    1.231
    90   6 C    3.953 --    85 C    1.278    89 C    1.265    91 C    1.206
    91   6 C    3.912 --    92 C    1.294    90 C    1.206    88 C    1.203
    92   6 C    3.969 --    91 C    1.294    95 C    1.269   123 C    1.190
    93   6 C    3.879 --    94 C    1.298    62 C    1.215    98 B    1.119
    94   6 C    3.958 --    93 C    1.298    89 C    1.231    95 C    1.222
    95   6 C    3.946 --    92 C    1.269    94 C    1.222    96 C    1.216
    96   6 C    3.968 --    99 C    1.295   127 C    1.243    95 C    1.216
    97   6 C    3.799 --   101 C    1.330    66 C    1.177    98 B    1.080
    98   5 B    3.506 --    93 C    1.119    99 C    1.093    97 C    1.080
    99   6 C    3.893 --    96 C    1.295   100 C    1.277    98 B    1.093
   100   6 C    3.958 --   131 C    1.286    99 C    1.277   102 C    1.215
   101   6 C    3.968 --   102 C    1.523    97 C    1.330   202 H    0.959
   102   6 C    3.859 --   101 C    1.523   100 C    1.215   203 H    0.964
   103   6 C    3.815 --   104 C    1.300    72 C    1.281   108 B    1.068
   104   6 C    3.947 --   105 C    1.533   103 C    1.300   185 H    0.960
   105   6 C    3.878 --   104 C    1.533   106 C    1.248   186 H    0.962
   106   6 C    3.933 --   109 C    1.350   105 C    1.248   137 C    1.151
   107   6 C    3.871 --   112 C    1.314    76 C    1.274   108 B    1.077
   108   5 B    3.429 --   109 C    1.084   107 C    1.077   103 C    1.068
   109   6 C    3.905 --   106 C    1.350   110 C    1.248   108 B    1.084
   110   6 C    3.951 --   113 C    1.256   109 C    1.248   141 C    1.234
   111   6 C    3.941 --   116 C    1.270   112 C    1.240    80 C    1.224
   112   6 C    3.943 --   107 C    1.314   111 C    1.240   113 C    1.185
   113   6 C    3.938 --   114 C    1.279   110 C    1.256   112 C    1.185
   114   6 C    3.966 --   113 C    1.279   145 C    1.270   117 C    1.196
   115   6 C    3.956 --   116 C    1.250    84 C    1.247   120 C    1.244
   116   6 C    3.944 --   111 C    1.270   115 C    1.250   117 C    1.212
   117   6 C    3.960 --   118 C    1.334   116 C    1.212   114 C    1.196
   118   6 C    3.927 --   117 C    1.334   149 C    1.196   121 C    1.183
   119   6 C    3.962 --   120 C    1.265   124 C    1.240    88 C    1.229
   120   6 C    3.964 --   119 C    1.265   115 C    1.244   121 C    1.233
   121   6 C    3.953 --   122 C    1.327   120 C    1.233   118 C    1.183
   122   6 C    3.882 --   121 C    1.327   125 C    1.270   153 B    1.070
   123   6 C    3.949 --   128 C    1.283   124 C    1.252    92 C    1.190
   124   6 C    3.959 --   125 C    1.252   123 C    1.252   119 C    1.240
   125   6 C    3.949 --   122 C    1.270   124 C    1.252   126 C    1.222
   126   6 C    3.932 --   129 C    1.313   125 C    1.222   157 C    1.181
   127   6 C    3.949 --   132 C    1.252    96 C    1.243   128 C    1.229
   128   6 C    3.957 --   123 C    1.283   127 C    1.229   129 C    1.228
   129   6 C    3.955 --   126 C    1.313   128 C    1.228   130 C    1.200
   130   6 C    3.973 --   133 C    1.367   129 C    1.200   161 C    1.173
   131   6 C    3.851 --   132 C    1.303   100 C    1.286   135 B    1.046
   132   6 C    3.962 --   131 C    1.303   127 C    1.252   133 C    1.197
   133   6 C    3.903 --   130 C    1.367   132 C    1.197   134 C    1.142
   134   6 C    3.966 --   136 C    1.565   133 C    1.142   165 C    1.104
   135   5 B    3.312 --   136 C    1.125   131 C    1.046   204 H    0.962
   136   6 C    3.848 --   134 C    1.565   135 B    1.125   205 H    0.964
   137   6 C    3.978 --   138 C    1.375   142 C    1.256   106 C    1.151
   138   6 C    3.931 --   139 C    1.416   137 C    1.375   187 H    0.962
   139   6 C    3.981 --   140 C    1.470   138 C    1.416   188 H    0.970
   140   6 C    3.938 --   139 C    1.470   143 C    1.317   189 H    0.968
   141   6 C    3.968 --   146 C    1.283   110 C    1.234   142 C    1.233
   142   6 C    3.980 --   137 C    1.256   143 C    1.251   141 C    1.233
   143   6 C    3.985 --   140 C    1.317   142 C    1.251   144 C    1.246
   144   6 C    3.950 --   147 C    1.523   143 C    1.246   190 H    0.966
   145   6 C    3.940 --   114 C    1.270   146 C    1.246   150 C    1.209
   146   6 C    3.946 --   141 C    1.283   145 C    1.246   147 C    1.201
   147   6 C    3.951 --   144 C    1.523   146 C    1.201   148 B    1.057
   148   5 B    3.342 --   151 C    1.078   147 C    1.057   191 H    0.970
   149   6 C    3.963 --   154 C    1.288   150 C    1.279   118 C    1.196
   150   6 C    3.941 --   149 C    1.279   151 C    1.240   145 C    1.209
   151   6 C    3.936 --   152 C    1.452   150 C    1.240   148 B    1.078
   152   6 C    3.946 --   151 C    1.452   155 C    1.306   192 H    0.966
   153   5 B    3.436 --   158 C    1.080   122 C    1.070   154 C    1.068
   154   6 C    3.903 --   155 C    1.298   149 C    1.288   153 B    1.068
   155   6 C    3.960 --   152 C    1.306   154 C    1.298   156 C    1.202
   156   6 C    3.888 --   159 C    1.514   155 C    1.202   193 H    0.968
   157   6 C    3.932 --   158 C    1.364   162 C    1.184   126 C    1.181
   158   6 C    3.842 --   157 C    1.364   159 C    1.200   153 B    1.080
   159   6 C    3.941 --   156 C    1.514   158 C    1.200   160 B    1.079
   160   5 B    3.334 --   159 C    1.079   163 C    1.047   194 H    0.969
   161   6 C    3.956 --   162 C    1.337   166 C    1.232   130 C    1.173
   162   6 C    3.942 --   161 C    1.337   163 C    1.211   157 C    1.184
   163   6 C    3.947 --   164 C    1.514   162 C    1.211   160 B    1.047
   164   6 C    3.953 --   163 C    1.514   167 C    1.260   195 H    0.966
   165   6 C    3.978 --   169 C    1.415   166 C    1.263   134 C    1.104
   166   6 C    3.980 --   165 C    1.263   167 C    1.248   161 C    1.232
   167   6 C    3.981 --   168 C    1.301   164 C    1.260   166 C    1.248
   168   6 C    3.965 --   170 C    1.498   167 C    1.301   196 H    0.968
   169   6 C    3.968 --   165 C    1.415   170 C    1.385   206 H    0.963
   170   6 C    3.979 --   168 C    1.498   169 C    1.385   197 H    0.970
   171   1 H    0.998 --     1 C    0.970
   172   1 H    0.998 --     2 C    0.970
   173   1 H    0.998 --     3 C    0.960
   174   1 H    0.988 --     5 B    0.969
   175   1 H    0.997 --     9 C    0.966
   176   1 H    0.998 --    13 C    0.962
   177   1 H    0.998 --    17 C    0.964
   178   1 H    0.987 --    21 B    0.969
   179   1 H    0.997 --    25 C    0.966
   180   1 H    0.998 --    29 C    0.968
   181   1 H    0.998 --    36 C    0.961
   182   1 H    0.998 --    37 C    0.959
   183   1 H    0.997 --    70 C    0.961
   184   1 H    0.997 --    71 C    0.961
   185   1 H    0.998 --   104 C    0.960
   186   1 H    0.998 --   105 C    0.962
   187   1 H    0.998 --   138 C    0.962
   188   1 H    0.998 --   139 C    0.970
   189   1 H    0.998 --   140 C    0.968
   190   1 H    0.998 --   144 C    0.966
   191   1 H    0.988 --   148 B    0.970
   192   1 H    0.998 --   152 C    0.966
   193   1 H    0.998 --   156 C    0.968
   194   1 H    0.988 --   160 B    0.969
   195   1 H    0.997 --   164 C    0.966
   196   1 H    0.998 --   168 C    0.968
   197   1 H    0.998 --   170 C    0.970
   198   1 H    0.997 --    33 C    0.969
   199   1 H    0.997 --    34 C    0.963
   200   1 H    0.983 --    67 B    0.959
   201   1 H    0.997 --    68 C    0.963
   202   1 H    0.998 --   101 C    0.959
   203   1 H    0.997 --   102 C    0.964
   204   1 H    0.985 --   135 B    0.962
   205   1 H    0.998 --   136 C    0.964
   206   1 H    0.998 --   169 C    0.963
 ---------------------------------------------------------------------------

Topologies differ in total number of bonds
Writing topology from bond orders to xtbtopo.mol

molecular dipole:
                 x           y           z       tot (Debye)
 q only:        0.007       0.056      -0.080
   full:       -0.172       0.459      -0.173       1.321
molecular quadrupole (traceless):
                xx          xy          yy          xz          yz          zz
 q only:        9.488     -29.666      18.706       2.293       9.420     -28.194
  q+dip:       36.982     -28.885      71.281       2.206      15.333    -108.264
   full:        0.756     -28.246      36.212       1.903      17.276     -36.969


           -------------------------------------------------
          | TOTAL ENERGY             -372.454220577096 Eh   |
          | GRADIENT NORM               0.000334770791 Eh/α |
          | HOMO-LUMO GAP               0.027215129235 eV   |
           -------------------------------------------------

------------------------------------------------------------------------
 * finished run on 2025/12/08 at 00:37:30.896     
------------------------------------------------------------------------
 total:
 * wall-time:     0 d,  0 h,  0 min,  0.855 sec
 *  cpu-time:     0 d,  0 h,  0 min, 10.859 sec
 * ratio c/w:    12.701 speedup
 SCF:
 * wall-time:     0 d,  0 h,  0 min,  0.729 sec
 *  cpu-time:     0 d,  0 h,  0 min,  9.391 sec
 * ratio c/w:    12.882 speedup

normal termination of xtb
