      -----------------------------------------------------------      
     |                   =====================                   |     
     |                           x T B                           |     
     |                   =====================                   |     
     |                         S. Grimme                         |     
     |          Mulliken Center for Theoretical Chemistry        |     
     |                    University of Bonn                     |     
      -----------------------------------------------------------      

   * xtb version 6.7.1pre (5071a88) compiled by 'Marcel@Raven' on 2024-07-23

   xtb is free software: you can redistribute it and/or modify it under
   the terms of the GNU Lesser General Public License as published by
   the Free Software Foundation, either version 3 of the License, or
   (at your option) any later version.
   
   xtb is distributed in the hope that it will be useful,
   but WITHOUT ANY WARRANTY; without even the implied warranty of
   MERCHANTABILITY or FITNESS FOR A PARTICULAR PURPOSE.  See the
   GNU Lesser General Public License for more details.
   
   Cite this work as:
   * C. Bannwarth, E. Caldeweyher, S. Ehlert, A. Hansen, P. Pracht,
     J. Seibert, S. Spicher, S. Grimme, WIREs Comput. Mol. Sci., 2020, 11,
     e01493. DOI: 10.1002/wcms.1493
   
   for GFN2-xTB:
   * C. Bannwarth, S. Ehlert and S. Grimme., J. Chem. Theory Comput., 2019,
     15, 1652-1671. DOI: 10.1021/acs.jctc.8b01176
   for GFN1-xTB:
   * S. Grimme, C. Bannwarth, P. Shushkov, J. Chem. Theory Comput., 2017,
     13, 1989-2009. DOI: 10.1021/acs.jctc.7b00118
   for GFN0-xTB:
   * P. Pracht, E. Caldeweyher, S. Ehlert, S. Grimme, ChemRxiv, 2019, preprint.
     DOI: 10.26434/chemrxiv.8326202.v1
   for GFN-FF:
   * S. Spicher and S. Grimme, Angew. Chem. Int. Ed., 2020, 59, 15665-15673.
     DOI: 10.1002/anie.202004239
   
   for ALPB and GBSA implicit solvation:
   * S. Ehlert, M. Stahn, S. Spicher, S. Grimme, J. Chem. Theory Comput.,
     2021, 17, 4250-4261. DOI: 10.1021/acs.jctc.1c00471
   
   for ddCOSMO and CPCM-X implicit solvation:
   * M. Stahn, S. Ehlert, S. Grimme, J. Phys. Chem. A,
     2023, XX, XXXX-XXXX. DOI: 10.1021/acs.jpca.3c04382
   
   for DFT-D4:
   * E. Caldeweyher, C. Bannwarth and S. Grimme, J. Chem. Phys., 2017,
     147, 034112. DOI: 10.1063/1.4993215
   * E. Caldeweyher, S. Ehlert, A. Hansen, H. Neugebauer, S. Spicher,
     C. Bannwarth and S. Grimme, J. Chem. Phys., 2019, 150, 154122.
     DOI: 10.1063/1.5090222
   * E. Caldeweyher, J.-M. Mewes, S. Ehlert and S. Grimme, Phys. Chem. Chem. Phys.
     2020, 22, 8499-8512. DOI: 10.1039/D0CP00502A
   
   for sTDA-xTB:
   * S. Grimme and C. Bannwarth, J. Chem. Phys., 2016, 145, 054103.
     DOI: 10.1063/1.4959605
   
   in the mass-spec context:
   * V. Asgeirsson, C. Bauer and S. Grimme, Chem. Sci., 2017, 8, 4879.
     DOI: 10.1039/c7sc00601b
   * J. Koopman and S. Grimme, ACS Omega 2019, 4, 12, 15120-15133.
     DOI: 10.1021/acsomega.9b02011
   
   for metadynamics refer to:
   * S. Grimme, J. Chem. Theory Comput., 2019, 155, 2847-2862
     DOI: 10.1021/acs.jctc.9b00143
   
   for SPH calculations refer to:
   * S. Spicher and S. Grimme, J. Chem. Theory Comput., 2021, 17, 1701-1714
     DOI: 10.1021/acs.jctc.0c01306
   
   for ONIOM refer to:
   * C. Plett, A. Katbashev, S. Ehlert, S. Grimme, M. Bursch,
     Phys. Chem. Chem. Phys., 2023, 25, 17860-17868. DOI: 10.1039/D3CP02178E
   
   for DIPRO refer to:
   * J. Kohn, N. Gildemeister, S. Grimme, D. Fazzi, A. Hansen,
     J. Chem. Phys., 2023, just accepted.
   
   for PTB refer to:
   * S. Grimme, M. Mueller, A. Hansen, J. Chem. Phys., 2023, 158, 124111.
     DOI: 10.1063/5.0137838
   
   with help from (in alphabetical order)
   P. Atkinson, C. Bannwarth, F. Bohle, G. Brandenburg, E. Caldeweyher
   M. Checinski, S. Dohm, S. Ehlert, S. Ehrlich, I. Gerasimov, C. Hölzer
   A. Katbashev, J. Kohn, J. Koopman, C. Lavigne, S. Lehtola, F. März, M. Müller,
   F. Musil, H. Neugebauer, J. Pisarek, C. Plett, P. Pracht, F. Pultar,
   J. Seibert, P. Shushkov, S. Spicher, M. Stahn, M. Steiner, T. Strunk,
   J. Stückrath, T. Rose, and J. Unsleber
   
 * started run on 2025/12/08 at 00:35:43.902     
   ID    Z sym.   atoms
    1    6 C      1-4, 6-18, 20, 22-40, 42-66, 68-85, 87-97, 99-107, 109-134,
                  136-147, 149-152, 154-159, 161-170
    2    5 B      5, 19, 21, 41, 67, 86, 98, 108, 135, 148, 153, 160
    3    1 H      171-206

           -------------------------------------------------
          |                Calculation Setup                |
           -------------------------------------------------

          program call               : xtb "C:\Users\LENOVO GAMING\Documents\GitHub\molecular-conductivity-sim\dataset\2nm-12Bdoped-7percent.xyz" --opt --parallel 4
          coordinate file            : C:\Users\LENOVO GAMING\Documents\GitHub\molecular-conductivity-sim\dataset\2nm-12Bdoped-7percent.xyz
          omp threads                :                     4


           -------------------------------------------------
          |                 G F N 2 - x T B                 |
           -------------------------------------------------

        Reference                      10.1021/acs.jctc.8b01176
      * Hamiltonian:
        H0-scaling (s, p, d)           1.850000    2.230000    2.230000
        zeta-weighting                 0.500000
      * Dispersion:
        s8                             2.700000
        a1                             0.520000
        a2                             5.000000
        s9                             5.000000
      * Repulsion:
        kExp                           1.500000    1.000000
        rExp                           1.000000
      * Coulomb:
        alpha                          2.000000
        third order                    shell-resolved
        anisotropic                    true
        a3                             3.000000
        a5                             4.000000
        cn-shift                       1.200000
        cn-exp                         4.000000
        max-rad                        5.000000


          ...................................................
          :                      SETUP                      :
          :.................................................:
          :  # basis functions                 716          :
          :  # atomic orbitals                 716          :
          :  # shells                          376          :
          :  # electrons                       704          :
          :  max. iterations                   250          :
          :  Hamiltonian                  GFN2-xTB          :
          :  restarted?                      false          :
          :  GBSA solvation                  false          :
          :  PC potential                    false          :
          :  electronic temp.          300.0000000     K    :
          :  accuracy                    1.0000000          :
          :  -> integral cutoff          0.2500000E+02      :
          :  -> integral neglect         0.1000000E-07      :
          :  -> SCF convergence          0.1000000E-05 Eh   :
          :  -> wf. convergence          0.1000000E-03 e    :
          :  Broyden damping             0.4000000          :
          :  net charge                          0          :
          :  unpaired electrons                  0          :
          ...................................................

 iter      E             dE          RMSdq      gap      omega  full diag
   1   -377.9662673 -0.377966E+03  0.701E+00    0.19       0.0  T
   2   -377.3443807  0.621887E+00  0.471E+00    0.18       1.0  T
   3   -230.2786183  0.147066E+03  0.815E+00    0.02       1.0  T
   4    -25.4997379  0.204779E+03  0.122E+01    0.06       1.0  T
   5   -323.2517689 -0.297752E+03  0.675E+00    0.02       1.0  T
   6   -372.2694362 -0.490177E+02  0.318E+00    0.07       1.0  T
   7   -345.5905770  0.266789E+02  0.419E+00    0.07       1.0  T
   8   -347.2600268 -0.166945E+01  0.428E+00    0.04       1.0  T
   9   -376.4376423 -0.291776E+02  0.191E+00    0.05       1.0  T
  10   -377.5183834 -0.108074E+01  0.145E+00    0.06       1.0  T
  11   -378.1194695 -0.601086E+00  0.128E+00    0.21       1.0  T
  12   -378.3880450 -0.268575E+00  0.113E+00    0.22       1.0  T
  13   -378.5239629 -0.135918E+00  0.103E+00    0.14       1.0  T
  14   -378.6387763 -0.114813E+00  0.947E-01    0.02       1.0  T
  15   -378.7306169 -0.918406E-01  0.900E-01    0.05       1.0  T
  16   -378.7447969 -0.141800E-01  0.898E-01    0.10       1.0  T
  17   -378.7718506 -0.270537E-01  0.862E-01    0.09       1.0  T
  18   -378.9418636 -0.170013E+00  0.777E-01    0.14       1.0  T
  19   -378.8351344  0.106729E+00  0.721E-01    0.04       1.0  T
  20   -378.8686349 -0.335005E-01  0.627E-01    0.10       1.0  T
  21   -378.5751537  0.293481E+00  0.762E-01    0.04       1.0  T
  22   -378.7868548 -0.211701E+00  0.519E-01    0.04       1.0  T
  23   -378.9025254 -0.115671E+00  0.416E-01    0.13       1.0  T
  24   -378.9934641 -0.909387E-01  0.268E-01    0.13       1.0  T
  25   -379.0295645 -0.361004E-01  0.247E-01    0.11       1.0  T
  26   -379.0590743 -0.295099E-01  0.212E-01    0.10       1.0  T
  27   -379.0760993 -0.170249E-01  0.193E-01    0.08       1.0  T
  28   -379.0949830 -0.188837E-01  0.193E-01    0.04       1.0  T
  29   -379.0988187 -0.383576E-02  0.166E-01    0.06       1.0  T
  30   -379.1120683 -0.132496E-01  0.135E-01    0.03       1.0  T
  31   -379.1187022 -0.663386E-02  0.994E-02    0.03       1.0  T
  32   -379.1213281 -0.262593E-02  0.117E-01    0.05       1.0  T
  33   -379.1223246 -0.996477E-03  0.708E-02    0.04       1.0  T
  34   -379.1225798 -0.255172E-03  0.399E-02    0.04       1.0  T
  35   -379.1206528  0.192696E-02  0.509E-02    0.03       1.0  T
  36   -379.1236212 -0.296841E-02  0.235E-02    0.05       1.0  T
  37   -379.1236981 -0.769266E-04  0.239E-02    0.05       1.0  T
  38   -379.1237305 -0.323326E-04  0.251E-02    0.05       1.0  T
  39   -379.1237819 -0.514068E-04  0.163E-02    0.04       1.0  T
  40   -379.1237935 -0.116154E-04  0.120E-02    0.04       1.0  T
  41   -379.1238353 -0.417910E-04  0.101E-02    0.04       1.0  T
  42   -379.1239163 -0.810165E-04  0.624E-03    0.04       1.1  T
  43   -379.1239268 -0.105031E-04  0.522E-03    0.05       1.3  T
  44   -379.1239277 -0.871877E-06  0.397E-03    0.05       1.8  T
  45   -379.1239311 -0.341901E-05  0.450E-03    0.05       1.5  T
  46   -379.1239350 -0.391611E-05  0.302E-03    0.05       2.3  T
  47   -379.1239361 -0.110567E-05  0.210E-03    0.05       3.3  T
  48   -379.1239369 -0.754806E-06  0.924E-04    0.05       7.5  T
  49   -379.1239370 -0.113496E-06  0.585E-04    0.05      11.9  T

   *** convergence criteria satisfied after 49 iterations ***

         #    Occupation            Energy/Eh            Energy/eV
      -------------------------------------------------------------
         1        2.0000           -0.6584615             -17.9176
       ...           ...                  ...                  ...
       346        2.0000           -0.3603419              -9.8054
       347        2.0000           -0.3600562              -9.7976
       348        2.0000           -0.3578588              -9.7378
       349        2.0000           -0.3543244              -9.6417
       350        1.9999           -0.3527069              -9.5976
       351        1.9950           -0.3484584              -9.4820
       352        1.4102           -0.3435965              -9.3497 (HOMO)
       353        0.5848           -0.3419288              -9.3044 (LUMO)
       354        0.0100           -0.3377400              -9.1904
       355        0.0001           -0.3332935              -9.0694
       356                         -0.3261308              -8.8745
       357                         -0.3059799              -8.3261
       ...                                ...                  ...
       716                          0.7593252              20.6623
      -------------------------------------------------------------
                  HL-Gap            0.0016677 Eh            0.0454 eV
             Fermi-level           -0.3427685 Eh           -9.3272 eV

 SCC (total)                   0 d,  0 h,  0 min,  9.342 sec
 SCC setup                      ...        0 min,  0.005 sec (  0.054%)
 Dispersion                     ...        0 min,  0.015 sec (  0.161%)
 classical contributions        ...        0 min,  0.001 sec (  0.011%)
 integral evaluation            ...        0 min,  0.093 sec (  0.996%)
 iterations                     ...        0 min,  8.758 sec ( 93.749%)
 molecular gradient             ...        0 min,  0.453 sec (  4.849%)
 printout                       ...        0 min,  0.017 sec (  0.182%)

         :::::::::::::::::::::::::::::::::::::::::::::::::::::
         ::                     SUMMARY                     ::
         :::::::::::::::::::::::::::::::::::::::::::::::::::::
         :: total energy            -372.424120972700 Eh    ::
         :: gradient norm              0.095844117915 Eh/a0 ::
         :: HOMO-LUMO gap              0.045380646764 eV    ::
         ::.................................................::
         :: SCC energy              -379.139318502035 Eh    ::
         :: -> isotropic ES            0.243807504239 Eh    ::
         :: -> anisotropic ES          0.037653441378 Eh    ::
         :: -> anisotropic XC          0.139330452328 Eh    ::
         :: -> dispersion             -0.473319010462 Eh    ::
         :: repulsion energy           6.715197529335 Eh    ::
         :: add. restraining           0.000000000000 Eh    ::
         :: total charge              -0.000000000001 e     ::
         :::::::::::::::::::::::::::::::::::::::::::::::::::::

      ----------------------------------------------------------- 
     |                   =====================                   |
     |                        A N C O P T                        |
     |                   =====================                   |
     |               Approximate Normal Coordinate               |
     |                Rational Function Optimizer                |
      ----------------------------------------------------------- 
      ----------------------------------------------------------- 
     |                   =====================                   |
     |                        A N C O P T                        |
     |                   =====================                   |
     |               Approximate Normal Coordinate               |
     |                Rational Function Optimizer                |
      ----------------------------------------------------------- 

          ...................................................
          :                      SETUP                      :
          :.................................................:
          :   optimization level            normal          :
          :   max. optcycles                   618          :
          :   ANC micro-cycles                  20          :
          :   degrees of freedom               612          :
          :.................................................:
          :   RF solver                   davidson          :
          :   write xtbopt.log                true          :
          :   linear?                        false          :
          :   energy convergence         0.5000000E-05 Eh   :
          :   grad. convergence          0.1000000E-02 Eh/α :
          :   maxmium RF displ.          1.0000000          :
          :   Hlow (freq-cutoff)         0.1000000E-01      :
          :   Hmax (freq-cutoff)         5.0000000          :
          :   S6 in model hess.         20.0000000          :
          ...................................................

generating ANC from exact Hessian ...
Using Lindh-Hessian (1995)
 Shifting diagonal of input Hessian by   9.939046993034712E-003
 Lowest  eigenvalues of input Hessian
    0.000000    0.000000    0.000000    0.000000    0.000000    0.000000
    0.010000    0.010058    0.010091    0.010177    0.010191    0.010537
    0.010589    0.010621    0.010644    0.010831    0.011282    0.011322
 Highest eigenvalues
    2.043704    2.050920    2.056165    2.059633    2.076727    2.082026
 

........................................................................
.............................. CYCLE    1 ..............................
........................................................................

 iter      E             dE          RMSdq      gap      omega  full diag
   1   -379.1239370 -0.379124E+03  0.398E-04    0.05       0.0  T
   2   -379.1239352  0.182591E-05  0.173E-03    0.05       4.0  T
   3   -379.1239343  0.929950E-06  0.193E-03    0.05       3.6  T
   4   -379.1239363 -0.200219E-05  0.107E-03    0.05       6.5  T
   5   -379.1239365 -0.206383E-06  0.939E-04    0.05       7.4  T
   6   -379.1239370 -0.459789E-06  0.490E-04    0.05      14.2  T
     SCC iter.                  ...        0 min,  1.080 sec
     gradient                   ...        0 min,  0.460 sec
 * total energy  :  -372.4241210 Eh     change        0.2147470E-07 Eh
   gradient norm :     0.0958354 Eh/α   predicted     0.0000000E+00 (-100.00%)
   displ. norm   :     0.4879340 α      lambda       -0.2232457E-01
   maximum displ.:     0.2483914 α      in ANC's #51, #49, #50, ...

........................................................................
.............................. CYCLE    2 ..............................
........................................................................

 iter      E             dE          RMSdq      gap      omega  full diag
   1   -379.2836417 -0.379284E+03  0.147E-01    0.02       0.0  T
   2   -379.0630319  0.220610E+00  0.543E-01    0.13       1.0  T
   3   -379.2754264 -0.212394E+00  0.169E-01    0.04       1.0  T
   4   -379.2807853 -0.535893E-02  0.150E-01    0.03       1.0  T
   5   -379.2819466 -0.116128E-02  0.114E-01    0.02       1.0  T
   6   -379.2874040 -0.545742E-02  0.533E-02    0.03       1.0  T
   7   -379.2881747 -0.770658E-03  0.489E-02    0.05       1.0  T
   8   -379.2889980 -0.823311E-03  0.295E-02    0.04       1.0  T
   9   -379.2892317 -0.233692E-03  0.185E-02    0.04       1.0  T
  10   -379.2892730 -0.413623E-04  0.120E-02    0.04       1.0  T
  11   -379.2893408 -0.677256E-04  0.678E-03    0.04       1.0  T
  12   -379.2893621 -0.213189E-04  0.294E-03    0.04       2.4  T
  13   -379.2893662 -0.416057E-05  0.108E-03    0.04       6.5  T
  14   -379.2893665 -0.250479E-06  0.636E-04    0.04      11.0  T
  15   -379.2893665  0.256982E-07  0.555E-04    0.04      12.6  T
     SCC iter.                  ...        0 min,  2.663 sec
     gradient                   ...        0 min,  0.426 sec
 * total energy  :  -372.4408955 Eh     change       -0.1677453E-01 Eh
   gradient norm :     0.0431024 Eh/α   predicted    -0.1381985E-01 ( -17.61%)
   displ. norm   :     0.5648987 α      lambda       -0.1145807E-01
   maximum displ.:     0.3231247 α      in ANC's #51, #50, #49, ...

........................................................................
.............................. CYCLE    3 ..............................
........................................................................

 iter      E             dE          RMSdq      gap      omega  full diag
   1   -379.4348951 -0.379435E+03  0.125E-01    0.02       0.0  T
   2   -379.2264846  0.208410E+00  0.531E-01    0.14       1.0  T
   3   -379.4306488 -0.204164E+00  0.142E-01    0.03       1.0  T
   4   -379.4309540 -0.305252E-03  0.135E-01    0.03       1.0  T
   5   -379.4318233 -0.869314E-03  0.114E-01    0.02       1.0  T
   6   -379.4362856 -0.446229E-02  0.634E-02    0.02       1.0  T
   7   -379.4385541 -0.226850E-02  0.387E-02    0.04       1.0  T
   8   -379.4391810 -0.626849E-03  0.217E-02    0.03       1.0  T
   9   -379.4393261 -0.145075E-03  0.138E-02    0.03       1.0  T
  10   -379.4394147 -0.886676E-04  0.529E-03    0.03       1.3  T
  11   -379.4394201 -0.540533E-05  0.372E-03    0.03       1.9  T
  12   -379.4394235 -0.333545E-05  0.235E-03    0.03       3.0  T
  13   -379.4394266 -0.310045E-05  0.114E-03    0.03       6.1  T
  14   -379.4394270 -0.455292E-06  0.489E-04    0.03      14.2  T
  15   -379.4394270 -0.164504E-07  0.377E-04    0.03      18.5  T
     SCC iter.                  ...        0 min,  2.677 sec
     gradient                   ...        0 min,  0.453 sec
 * total energy  :  -372.4487460 Eh     change       -0.7850541E-02 Eh
   gradient norm :     0.0155324 Eh/α   predicted    -0.7557876E-02 (  -3.73%)
   displ. norm   :     0.4471663 α      lambda       -0.3736811E-02
   maximum displ.:     0.2588165 α      in ANC's #51, #49, #50, ...

........................................................................
.............................. CYCLE    4 ..............................
........................................................................

 iter      E             dE          RMSdq      gap      omega  full diag
   1   -379.5279114 -0.379528E+03  0.731E-02    0.02       0.0  T
   2   -379.4634661  0.644453E-01  0.304E-01    0.13       1.0  T
   3   -379.5197827 -0.563166E-01  0.110E-01    0.02       1.0  T
   4   -379.5052342  0.145485E-01  0.183E-01    0.04       1.0  T
   5   -379.5274435 -0.222093E-01  0.404E-02    0.03       1.0  T
   6   -379.5279625 -0.519072E-03  0.234E-02    0.02       1.0  T
   7   -379.5282869 -0.324403E-03  0.943E-03    0.03       1.0  T
   8   -379.5283094 -0.224848E-04  0.647E-03    0.03       1.1  T
   9   -379.5283100 -0.575136E-06  0.552E-03    0.03       1.3  T
  10   -379.5283183 -0.825241E-05  0.442E-03    0.03       1.6  T
  11   -379.5283235 -0.526925E-05  0.239E-03    0.03       2.9  T
  12   -379.5283252 -0.172030E-05  0.101E-03    0.03       6.9  T
  13   -379.5283254 -0.191335E-06  0.635E-04    0.03      11.0  T
  14   -379.5283256 -0.155840E-06  0.426E-04    0.03      16.4  T
     SCC iter.                  ...        0 min,  2.499 sec
     gradient                   ...        0 min,  0.448 sec
 * total energy  :  -372.4512976 Eh     change       -0.2551589E-02 Eh
   gradient norm :     0.0115712 Eh/α   predicted    -0.2242008E-02 ( -12.13%)
   displ. norm   :     0.3015838 α      lambda       -0.1141320E-02
   maximum displ.:     0.1467010 α      in ANC's #51, #49, #50, ...

........................................................................
.............................. CYCLE    5 ..............................
........................................................................

 iter      E             dE          RMSdq      gap      omega  full diag
   1   -379.5706683 -0.379571E+03  0.680E-02    0.03       0.0  T
   2   -379.5552579  0.154104E-01  0.150E-01    0.03       1.0  T
   3   -379.5427544  0.125035E-01  0.197E-01    0.08       1.0  T
   4   -379.5689090 -0.261546E-01  0.564E-02    0.02       1.0  T
   5   -379.5703952 -0.148623E-02  0.217E-02    0.03       1.0  T
   6   -379.5706981 -0.302914E-03  0.697E-03    0.02       1.0  T
   7   -379.5707041 -0.596235E-05  0.561E-03    0.03       1.2  T
   8   -379.5707168 -0.127387E-04  0.422E-03    0.03       1.7  T
   9   -379.5707221 -0.525810E-05  0.244E-03    0.02       2.9  T
  10   -379.5707213  0.846167E-06  0.189E-03    0.02       3.7  T
  11   -379.5707216 -0.364133E-06  0.188E-03    0.02       3.7  T
  12   -379.5707234 -0.176580E-05  0.499E-04    0.02      14.0  T
  13   -379.5707235 -0.101678E-06  0.173E-04    0.02      40.2  T
  14   -379.5707235 -0.493486E-08  0.128E-04    0.02      54.4  T
     SCC iter.                  ...        0 min,  2.473 sec
     gradient                   ...        0 min,  0.454 sec
 * total energy  :  -372.4520255 Eh     change       -0.7278898E-03 Eh
   gradient norm :     0.0053208 Eh/α   predicted    -0.6225692E-03 ( -14.47%)
   displ. norm   :     0.2073760 α      lambda       -0.3320804E-03
   maximum displ.:     0.1329195 α      in ANC's #13, #26, #49, ...

........................................................................
.............................. CYCLE    6 ..............................
........................................................................

 iter      E             dE          RMSdq      gap      omega  full diag
   1   -379.5822296 -0.379582E+03  0.687E-02    0.03       0.0  T
   2   -379.5270517  0.551779E-01  0.277E-01    0.06       1.0  T
   3   -379.5772202 -0.501684E-01  0.897E-02    0.04       1.0  T
   4   -379.5720715  0.514863E-02  0.118E-01    0.01       1.0  T
   5   -379.5821811 -0.101096E-01  0.219E-02    0.02       1.0  T
   6   -379.5823795 -0.198391E-03  0.951E-03    0.02       1.0  T
   7   -379.5824117 -0.321540E-04  0.648E-03    0.02       1.1  T
   8   -379.5824173 -0.561796E-05  0.513E-03    0.02       1.4  T
   9   -379.5824256 -0.830405E-05  0.413E-03    0.02       1.7  T
  10   -379.5824309 -0.530099E-05  0.265E-03    0.02       2.6  T
  11   -379.5824351 -0.422191E-05  0.110E-03    0.03       6.3  T
  12   -379.5824356 -0.524818E-06  0.324E-04    0.03      21.5  T
  13   -379.5824356  0.465957E-08  0.246E-04    0.03      28.4  T
     SCC iter.                  ...        0 min,  2.293 sec
     gradient                   ...        0 min,  0.443 sec
 * total energy  :  -372.4522898 Eh     change       -0.2643272E-03 Eh
   gradient norm :     0.0035542 Eh/α   predicted    -0.1731814E-03 ( -34.48%)
   displ. norm   :     0.3383298 α      lambda       -0.4398778E-03
   maximum displ.:     0.2245419 α      in ANC's #13, #26, #18, ...

........................................................................
.............................. CYCLE    7 ..............................
........................................................................

 iter      E             dE          RMSdq      gap      omega  full diag
   1   -379.5861716 -0.379586E+03  0.123E-01    0.03       0.0  T
   2   -379.4608723  0.125299E+00  0.416E-01    0.12       1.0  T
   3   -379.5693893 -0.108517E+00  0.162E-01    0.06       1.0  T
   4   -379.5603568  0.903253E-02  0.190E-01    0.01       1.0  T
   5   -379.5853371 -0.249804E-01  0.531E-02    0.02       1.0  T
   6   -379.5865364 -0.119922E-02  0.240E-02    0.02       1.0  T
   7   -379.5865296  0.676068E-05  0.234E-02    0.02       1.0  T
   8   -379.5867130 -0.183440E-03  0.167E-02    0.02       1.0  T
   9   -379.5868188 -0.105789E-03  0.113E-02    0.02       1.0  T
  10   -379.5868613 -0.424400E-04  0.740E-03    0.02       1.0  T
  11   -379.5868904 -0.290772E-04  0.408E-03    0.03       1.7  T
  12   -379.5868970 -0.661741E-05  0.108E-03    0.03       6.4  T
  13   -379.5868975 -0.543715E-06  0.531E-04    0.03      13.1  T
  14   -379.5868977 -0.170195E-06  0.237E-04    0.03      29.4  T
     SCC iter.                  ...        0 min,  2.490 sec
     gradient                   ...        0 min,  0.451 sec
 * total energy  :  -372.4526578 Eh     change       -0.3679677E-03 Eh
   gradient norm :     0.0063702 Eh/α   predicted    -0.2451272E-03 ( -33.38%)
   displ. norm   :     0.4198140 α      lambda       -0.5057700E-03
   maximum displ.:     0.2742566 α      in ANC's #13, #26, #18, ...

........................................................................
.............................. CYCLE    8 ..............................
........................................................................

 iter      E             dE          RMSdq      gap      omega  full diag
   1   -379.5820373 -0.379582E+03  0.154E-01    0.04       0.0  T
   2   -379.4302662  0.151771E+00  0.456E-01    0.14       1.0  T
   3   -379.5519569 -0.121691E+00  0.213E-01    0.08       1.0  T
   4   -379.5568792 -0.492222E-02  0.195E-01    0.01       1.0  T
   5   -379.5803376 -0.234584E-01  0.668E-02    0.02       1.0  T
   6   -379.5823474 -0.200981E-02  0.360E-02    0.02       1.0  T
   7   -379.5821917  0.155715E-03  0.357E-02    0.02       1.0  T
   8   -379.5827618 -0.570146E-03  0.242E-02    0.02       1.0  T
   9   -379.5829398 -0.177999E-03  0.168E-02    0.02       1.0  T
  10   -379.5830550 -0.115239E-03  0.117E-02    0.03       1.0  T
  11   -379.5831036 -0.486074E-04  0.573E-03    0.03       1.2  T
  12   -379.5831162 -0.125705E-04  0.234E-03    0.03       3.0  T
  13   -379.5831195 -0.324556E-05  0.914E-04    0.03       7.6  T
  14   -379.5831199 -0.474837E-06  0.453E-04    0.03      15.4  T
  15   -379.5831200 -0.343381E-07  0.295E-04    0.03      23.6  T
     SCC iter.                  ...        0 min,  2.671 sec
     gradient                   ...        0 min,  0.444 sec
 * total energy  :  -372.4530721 Eh     change       -0.4143101E-03 Eh
   gradient norm :     0.0084206 Eh/α   predicted    -0.2974581E-03 ( -28.20%)
   displ. norm   :     0.4126067 α      lambda       -0.4626460E-03
   maximum displ.:     0.2733320 α      in ANC's #13, #4, #26, ...

........................................................................
.............................. CYCLE    9 ..............................
........................................................................

 iter      E             dE          RMSdq      gap      omega  full diag
   1   -379.5749988 -0.379575E+03  0.145E-01    0.03       0.0  T
   2   -379.4386694  0.136329E+00  0.430E-01    0.12       1.0  T
   3   -379.5521647 -0.113495E+00  0.189E-01    0.07       1.0  T
   4   -379.5611503 -0.898564E-02  0.158E-01    0.02       1.0  T
   5   -379.5725501 -0.113998E-01  0.697E-02    0.02       1.0  T
   6   -379.5755386 -0.298855E-02  0.253E-02    0.02       1.0  T
   7   -379.5753435  0.195102E-03  0.256E-02    0.02       1.0  T
   8   -379.5756762 -0.332637E-03  0.164E-02    0.02       1.0  T
   9   -379.5757677 -0.915895E-04  0.100E-02    0.03       1.0  T
  10   -379.5758077 -0.399593E-04  0.622E-03    0.03       1.1  T
  11   -379.5758187 -0.109627E-04  0.342E-03    0.03       2.0  T
  12   -379.5758217 -0.307058E-05  0.160E-03    0.03       4.3  T
  13   -379.5758231 -0.131287E-05  0.800E-04    0.03       8.7  T
  14   -379.5758235 -0.405167E-06  0.329E-04    0.03      21.2  T
  15   -379.5758235 -0.362467E-07  0.163E-04    0.03      42.7  T
     SCC iter.                  ...        0 min,  2.670 sec
     gradient                   ...        0 min,  0.422 sec
 * total energy  :  -372.4534191 Eh     change       -0.3470396E-03 Eh
   gradient norm :     0.0069669 Eh/α   predicted    -0.2707066E-03 ( -22.00%)
   displ. norm   :     0.3022823 α      lambda       -0.2798168E-03
   maximum displ.:     0.2084191 α      in ANC's #13, #4, #7, ...

........................................................................
.............................. CYCLE   10 ..............................
........................................................................

 iter      E             dE          RMSdq      gap      omega  full diag
   1   -379.5711050 -0.379571E+03  0.101E-01    0.03       0.0  T
   2   -379.5119210  0.591841E-01  0.285E-01    0.06       1.0  T
   3   -379.5584526 -0.465317E-01  0.141E-01    0.06       1.0  T
   4   -379.5601604 -0.170780E-02  0.140E-01    0.03       1.0  T
   5   -379.5704644 -0.103040E-01  0.435E-02    0.03       1.0  T
   6   -379.5712832 -0.818759E-03  0.106E-02    0.03       1.0  T
   7   -379.5713274 -0.441763E-04  0.426E-03    0.03       1.6  T
   8   -379.5713255  0.181637E-05  0.448E-03    0.03       1.6  T
   9   -379.5713308 -0.529371E-05  0.301E-03    0.03       2.3  T
  10   -379.5713239  0.690824E-05  0.407E-03    0.03       1.7  T
  11   -379.5713335 -0.962462E-05  0.192E-03    0.03       3.6  T
  12   -379.5713349 -0.132847E-05  0.619E-04    0.03      11.3  T
  13   -379.5713350 -0.154168E-06  0.255E-04    0.03      27.4  T
  14   -379.5713351 -0.342293E-07  0.105E-04    0.03      66.3  T
     SCC iter.                  ...        0 min,  2.502 sec
     gradient                   ...        0 min,  0.434 sec
 * total energy  :  -372.4536140 Eh     change       -0.1948321E-03 Eh
   gradient norm :     0.0036729 Eh/α   predicted    -0.1526936E-03 ( -21.63%)
   displ. norm   :     0.1978217 α      lambda       -0.1316065E-03
   maximum displ.:     0.1367384 α      in ANC's #13, #4, #7, ...

........................................................................
.............................. CYCLE   11 ..............................
........................................................................

 iter      E             dE          RMSdq      gap      omega  full diag
   1   -379.5710078 -0.379571E+03  0.615E-02    0.03       0.0  T
   2   -379.5442797  0.267281E-01  0.190E-01    0.03       1.0  T
   3   -379.5677384 -0.234586E-01  0.753E-02    0.04       1.0  T
   4   -379.5638550  0.388335E-02  0.111E-01    0.03       1.0  T
   5   -379.5708376 -0.698260E-02  0.249E-02    0.03       1.0  T
   6   -379.5710780 -0.240398E-03  0.692E-03    0.03       1.0  T
   7   -379.5710910 -0.129921E-04  0.352E-03    0.03       2.0  T
   8   -379.5710963 -0.532790E-05  0.254E-03    0.03       2.7  T
   9   -379.5710997 -0.340838E-05  0.140E-03    0.03       5.0  T
  10   -379.5710990  0.730519E-06  0.150E-03    0.03       4.7  T
  11   -379.5710997 -0.743383E-06  0.121E-03    0.03       5.8  T
  12   -379.5711004 -0.605171E-06  0.541E-04    0.03      12.9  T
  13   -379.5711005 -0.182017E-06  0.168E-04    0.03      41.4  T
     SCC iter.                  ...        0 min,  2.316 sec
     gradient                   ...        0 min,  0.455 sec
 * total energy  :  -372.4537018 Eh     change       -0.8780634E-04 Eh
   gradient norm :     0.0026261 Eh/α   predicted    -0.6838500E-04 ( -22.12%)
   displ. norm   :     0.1767474 α      lambda       -0.9438305E-04
   maximum displ.:     0.1155099 α      in ANC's #13, #4, #7, ...

........................................................................
.............................. CYCLE   12 ..............................
........................................................................

 iter      E             dE          RMSdq      gap      omega  full diag
   1   -379.5723882 -0.379572E+03  0.538E-02    0.03       0.0  T
   2   -379.5619133  0.104749E-01  0.120E-01    0.02       1.0  T
   3   -379.5602324  0.168091E-02  0.129E-01    0.06       1.0  T
   4   -379.5679046 -0.767223E-02  0.848E-02    0.04       1.0  T
   5   -379.5721794 -0.427477E-02  0.239E-02    0.03       1.0  T
   6   -379.5723676 -0.188163E-03  0.954E-03    0.03       1.0  T
   7   -379.5724027 -0.351642E-04  0.558E-03    0.03       1.2  T
   8   -379.5724236 -0.208490E-04  0.252E-03    0.03       2.8  T
   9   -379.5724238 -0.212599E-06  0.220E-03    0.03       3.2  T
  10   -379.5724228  0.968774E-06  0.218E-03    0.03       3.2  T
  11   -379.5724259 -0.302037E-05  0.768E-04    0.03       9.1  T
  12   -379.5724261 -0.280338E-06  0.217E-04    0.03      32.2  T
  13   -379.5724261 -0.107774E-07  0.119E-04    0.03      58.6  T
     SCC iter.                  ...        0 min,  2.332 sec
     gradient                   ...        0 min,  0.422 sec
 * total energy  :  -372.4537557 Eh     change       -0.5393246E-04 Eh
   gradient norm :     0.0032451 Eh/α   predicted    -0.4866897E-04 (  -9.76%)
   displ. norm   :     0.1318626 α      lambda       -0.6543479E-04
   maximum displ.:     0.0697114 α      in ANC's #13, #4, #23, ...

........................................................................
.............................. CYCLE   13 ..............................
........................................................................

 iter      E             dE          RMSdq      gap      omega  full diag
   1   -379.5741954 -0.379574E+03  0.291E-02    0.03       0.0  T
   2   -379.5724093  0.178606E-02  0.509E-02    0.02       1.0  T
   3   -379.5665515  0.585778E-02  0.101E-01    0.05       1.0  T
   4   -379.5730027 -0.645116E-02  0.437E-02    0.03       1.0  T
   5   -379.5741548 -0.115211E-02  0.103E-02    0.03       1.0  T
   6   -379.5741958 -0.410453E-04  0.338E-03    0.03       2.1  T
   7   -379.5742001 -0.428196E-05  0.187E-03    0.03       3.7  T
   8   -379.5742017 -0.162085E-05  0.115E-03    0.03       6.1  T
   9   -379.5742021 -0.338125E-06  0.790E-04    0.03       8.8  T
  10   -379.5742021  0.207155E-07  0.769E-04    0.03       9.1  T
     SCC iter.                  ...        0 min,  1.792 sec
     gradient                   ...        0 min,  0.410 sec
 * total energy  :  -372.4538008 Eh     change       -0.4511471E-04 Eh
   gradient norm :     0.0032351 Eh/α   predicted    -0.3329234E-04 ( -26.21%)
   displ. norm   :     0.1486513 α      lambda       -0.5837904E-04
   maximum displ.:     0.0737096 α      in ANC's #13, #4, #23, ...

........................................................................
.............................. CYCLE   14 ..............................
........................................................................

 iter      E             dE          RMSdq      gap      omega  full diag
   1   -379.5757459 -0.379576E+03  0.297E-02    0.03       0.0  T
   2   -379.5693902  0.635571E-02  0.928E-02    0.02       1.0  T
   3   -379.5722440 -0.285381E-02  0.696E-02    0.04       1.0  T
   4   -379.5752166 -0.297258E-02  0.340E-02    0.03       1.0  T
   5   -379.5756874 -0.470864E-03  0.110E-02    0.03       1.0  T
   6   -379.5757606 -0.731531E-04  0.340E-03    0.03       2.1  T
   7   -379.5757644 -0.376325E-05  0.147E-03    0.03       4.7  T
   8   -379.5757648 -0.438297E-06  0.122E-03    0.03       5.7  T
   9   -379.5757654 -0.603157E-06  0.894E-04    0.03       7.8  T
  10   -379.5757655 -0.150322E-06  0.635E-04    0.03      11.0  T
     SCC iter.                  ...        0 min,  1.751 sec
     gradient                   ...        0 min,  0.451 sec
 * total energy  :  -372.4538403 Eh     change       -0.3949672E-04 Eh
   gradient norm :     0.0023492 Eh/α   predicted    -0.2983670E-04 ( -24.46%)
   displ. norm   :     0.1497223 α      lambda       -0.5072153E-04
   maximum displ.:     0.0677756 α      in ANC's #23, #4, #13, ...

........................................................................
.............................. CYCLE   15 ..............................
........................................................................

 iter      E             dE          RMSdq      gap      omega  full diag
   1   -379.5768012 -0.379577E+03  0.317E-02    0.03       0.0  T
   2   -379.5762758  0.525360E-03  0.324E-02    0.03       1.0  T
   3   -379.5448304  0.314454E-01  0.203E-01    0.04       1.0  T
   4   -379.5753122 -0.304818E-01  0.515E-02    0.03       1.0  T
   5   -379.5767412 -0.142902E-02  0.110E-02    0.03       1.0  T
   6   -379.5767899 -0.486475E-04  0.450E-03    0.03       1.5  T
   7   -379.5768028 -0.129930E-04  0.176E-03    0.03       4.0  T
   8   -379.5768036 -0.757176E-06  0.137E-03    0.03       5.1  T
   9   -379.5768041 -0.535882E-06  0.848E-04    0.03       8.2  T
  10   -379.5768042 -0.289762E-07  0.752E-04    0.03       9.3  T
     SCC iter.                  ...        0 min,  1.768 sec
     gradient                   ...        0 min,  0.430 sec
 * total energy  :  -372.4538676 Eh     change       -0.2724033E-04 Eh
   gradient norm :     0.0029941 Eh/α   predicted    -0.2593416E-04 (  -4.80%)
   displ. norm   :     0.0921405 α      lambda       -0.3261095E-04
   maximum displ.:     0.0472711 α      in ANC's #4, #23, #3, ...

........................................................................
.............................. CYCLE   16 ..............................
........................................................................

 iter      E             dE          RMSdq      gap      omega  full diag
   1   -379.5765476 -0.379577E+03  0.172E-02    0.03       0.0  T
   2   -379.5721138  0.443382E-02  0.761E-02    0.05       1.0  T
   3   -379.5762222 -0.410835E-02  0.235E-02    0.02       1.0  T
   4   -379.5758652  0.357003E-03  0.339E-02    0.03       1.0  T
   5   -379.5765337 -0.668550E-03  0.741E-03    0.03       1.0  T
   6   -379.5765595 -0.257437E-04  0.252E-03    0.03       2.8  T
   7   -379.5765614 -0.193764E-05  0.167E-03    0.03       4.2  T
   8   -379.5765626 -0.121831E-05  0.956E-04    0.03       7.3  T
   9   -379.5765626  0.207657E-07  0.757E-04    0.03       9.2  T
  10   -379.5765630 -0.410481E-06  0.271E-04    0.03      25.7  T
     SCC iter.                  ...        0 min,  1.766 sec
     gradient                   ...        0 min,  0.430 sec
 * total energy  :  -372.4538889 Eh     change       -0.2133981E-04 Eh
   gradient norm :     0.0020185 Eh/α   predicted    -0.1644432E-04 ( -22.94%)
   displ. norm   :     0.0766093 α      lambda       -0.2409457E-04
   maximum displ.:     0.0419705 α      in ANC's #4, #3, #2, ...

........................................................................
.............................. CYCLE   17 ..............................
........................................................................

 iter      E             dE          RMSdq      gap      omega  full diag
   1   -379.5758431 -0.379576E+03  0.153E-02    0.03       0.0  T
   2   -379.5735220  0.232112E-02  0.554E-02    0.04       1.0  T
   3   -379.5751707 -0.164866E-02  0.312E-02    0.02       1.0  T
   4   -379.5755791 -0.408438E-03  0.219E-02    0.03       1.0  T
   5   -379.5758083 -0.229228E-03  0.796E-03    0.03       1.0  T
   6   -379.5758475 -0.391539E-04  0.254E-03    0.03       2.7  T
   7   -379.5758505 -0.297698E-05  0.115E-03    0.03       6.0  T
   8   -379.5758508 -0.362102E-06  0.832E-04    0.03       8.4  T
   9   -379.5758509 -0.394115E-07  0.620E-04    0.03      11.2  T
     SCC iter.                  ...        0 min,  1.611 sec
     gradient                   ...        0 min,  0.471 sec
 * total energy  :  -372.4539065 Eh     change       -0.1758269E-04 Eh
   gradient norm :     0.0016025 Eh/α   predicted    -0.1211867E-04 ( -31.08%)
   displ. norm   :     0.1421817 α      lambda       -0.2201817E-04
   maximum displ.:     0.0811992 α      in ANC's #4, #3, #2, ...

........................................................................
.............................. CYCLE   18 ..............................
........................................................................

 iter      E             dE          RMSdq      gap      omega  full diag
   1   -379.5741220 -0.379574E+03  0.276E-02    0.03       0.0  T
   2   -379.5631098  0.110122E-01  0.121E-01    0.06       1.0  T
   3   -379.5723041 -0.919429E-02  0.515E-02    0.02       1.0  T
   4   -379.5734634 -0.115931E-02  0.362E-02    0.03       1.0  T
   5   -379.5740485 -0.585134E-03  0.128E-02    0.03       1.0  T
   6   -379.5741410 -0.924464E-04  0.537E-03    0.03       1.3  T
   7   -379.5741609 -0.198943E-04  0.153E-03    0.03       4.5  T
   8   -379.5741609 -0.144229E-07  0.130E-03    0.03       5.4  T
   9   -379.5741600  0.877640E-06  0.158E-03    0.03       4.4  T
  10   -379.5741616 -0.159178E-05  0.663E-04    0.03      10.5  T
  11   -379.5741616 -0.177945E-07  0.479E-04    0.03      14.6  T
  12   -379.5741617 -0.130124E-06  0.212E-04    0.03      32.8  T
     SCC iter.                  ...        0 min,  2.213 sec
     gradient                   ...        0 min,  0.471 sec
 * total energy  :  -372.4539266 Eh     change       -0.2012734E-04 Eh
   gradient norm :     0.0018737 Eh/α   predicted    -0.1110975E-04 ( -44.80%)
   displ. norm   :     0.0921238 α      lambda       -0.1208110E-04
   maximum displ.:     0.0555904 α      in ANC's #4, #3, #2, ...

........................................................................
.............................. CYCLE   19 ..............................
........................................................................

 iter      E             dE          RMSdq      gap      omega  full diag
   1   -379.5741649 -0.379574E+03  0.135E-02    0.03       0.0  T
   2   -379.5741589  0.605280E-05  0.869E-03    0.03       1.0  T
   3   -379.5680684  0.609048E-02  0.891E-02    0.05       1.0  T
   4   -379.5741094 -0.604096E-02  0.997E-03    0.03       1.0  T
   5   -379.5741587 -0.493368E-04  0.300E-03    0.03       2.3  T
   6   -379.5741627 -0.400723E-05  0.198E-03    0.03       3.5  T
   7   -379.5741642 -0.150582E-05  0.106E-03    0.03       6.6  T
   8   -379.5741650 -0.811198E-06  0.406E-04    0.03      17.1  T
   9   -379.5741651 -0.707148E-07  0.216E-04    0.03      32.3  T
     SCC iter.                  ...        0 min,  1.650 sec
     gradient                   ...        0 min,  0.438 sec
 * total energy  :  -372.4539421 Eh     change       -0.1546760E-04 Eh
   gradient norm :     0.0014333 Eh/α   predicted    -0.6067382E-05 ( -60.77%)
   displ. norm   :     0.1745157 α      lambda       -0.2423233E-04
   maximum displ.:     0.1015196 α      in ANC's #4, #3, #2, ...

........................................................................
.............................. CYCLE   20 ..............................
........................................................................

 iter      E             dE          RMSdq      gap      omega  full diag
   1   -379.5750175 -0.379575E+03  0.291E-02    0.03       0.0  T
   2   -379.5750080  0.949892E-05  0.183E-02    0.03       1.0  T
   3   -379.5733945  0.161350E-02  0.575E-02    0.03       1.0  T
   4   -379.5729786  0.415980E-03  0.511E-02    0.02       1.0  T
   5   -379.5748551 -0.187650E-02  0.148E-02    0.03       1.0  T
   6   -379.5750152 -0.160180E-03  0.232E-03    0.03       3.0  T
   7   -379.5750165 -0.124927E-05  0.165E-03    0.03       4.2  T
   8   -379.5750179 -0.140880E-05  0.104E-03    0.03       6.7  T
   9   -379.5750183 -0.351147E-06  0.554E-04    0.03      12.6  T
  10   -379.5750183 -0.808876E-07  0.412E-04    0.03      16.9  T
     SCC iter.                  ...        0 min,  1.809 sec
     gradient                   ...        0 min,  0.473 sec
 * total energy  :  -372.4539687 Eh     change       -0.2663230E-04 Eh
   gradient norm :     0.0012764 Eh/α   predicted    -0.1228368E-04 ( -53.88%)
   displ. norm   :     0.2095736 α      lambda       -0.2052802E-04
   maximum displ.:     0.1235305 α      in ANC's #4, #3, #2, ...
 * RMSD in coord.:     0.2369898 α      energy gain  -0.2984774E-01 Eh

generating ANC from exact Hessian ...
Using Lindh-Hessian (1995)
 Shifting diagonal of input Hessian by   9.934883400045455E-003
 Lowest  eigenvalues of input Hessian
    0.000000    0.000000    0.000000    0.000000    0.000000    0.000000
    0.010000    0.010061    0.010098    0.010195    0.010212    0.010613
    0.010656    0.010684    0.010764    0.010916    0.011434    0.011509
 Highest eigenvalues
    2.126238    2.134008    2.141639    2.141848    2.164597    2.168299
 

........................................................................
.............................. CYCLE   21 ..............................
........................................................................

 iter      E             dE          RMSdq      gap      omega  full diag
   1   -379.5755005 -0.379576E+03  0.318E-02    0.03       0.0  T
   2   -379.5720630  0.343756E-02  0.701E-02    0.02       1.0  T
   3   -379.5677102  0.435273E-02  0.102E-01    0.05       1.0  T
   4   -379.5738203 -0.611004E-02  0.517E-02    0.02       1.0  T
   5   -379.5754661 -0.164580E-02  0.882E-03    0.03       1.0  T
   6   -379.5754925 -0.264161E-04  0.501E-03    0.03       1.4  T
   7   -379.5755099 -0.173764E-04  0.180E-03    0.03       3.9  T
   8   -379.5755104 -0.504473E-06  0.152E-03    0.03       4.6  T
   9   -379.5755111 -0.738046E-06  0.108E-03    0.03       6.4  T
  10   -379.5755110  0.937554E-07  0.982E-04    0.03       7.1  T
  11   -379.5755116 -0.528906E-06  0.467E-04    0.03      14.9  T
     SCC iter.                  ...        0 min,  2.006 sec
     gradient                   ...        0 min,  0.464 sec
 * total energy  :  -372.4539910 Eh     change       -0.2230205E-04 Eh
   gradient norm :     0.0016543 Eh/α   predicted     0.0000000E+00 (-100.00%)
   displ. norm   :     0.0331725 α      lambda       -0.1068785E-04
   maximum displ.:     0.0161538 α      in ANC's #4, #3, #13, ...

........................................................................
.............................. CYCLE   22 ..............................
........................................................................

 iter      E             dE          RMSdq      gap      omega  full diag
   1   -379.5757209 -0.379576E+03  0.917E-03    0.03       0.0  T
   2   -379.5746294  0.109142E-02  0.381E-02    0.04       1.0  T
   3   -379.5756022 -0.972768E-03  0.136E-02    0.02       1.0  T
   4   -379.5756756 -0.733947E-04  0.831E-03    0.03       1.0  T
   5   -379.5757211 -0.454540E-04  0.235E-03    0.03       3.0  T
   6   -379.5757231 -0.207654E-05  0.137E-03    0.03       5.1  T
   7   -379.5757239 -0.803491E-06  0.771E-04    0.03       9.0  T
   8   -379.5757243 -0.315380E-06  0.457E-04    0.03      15.2  T
     SCC iter.                  ...        0 min,  1.421 sec
     gradient                   ...        0 min,  0.445 sec
 * total energy  :  -372.4540014 Eh     change       -0.1035400E-04 Eh
   gradient norm :     0.0006717 Eh/α   predicted    -0.5548127E-05 ( -46.42%)
   displ. norm   :     0.0624140 α      lambda       -0.1099430E-04
   maximum displ.:     0.0326138 α      in ANC's #4, #3, #13, ...

........................................................................
.............................. CYCLE   23 ..............................
........................................................................

 iter      E             dE          RMSdq      gap      omega  full diag
   1   -379.5754304 -0.379575E+03  0.147E-02    0.03       0.0  T
   2   -379.5750840  0.346394E-03  0.233E-02    0.03       1.0  T
   3   -379.5726982  0.238576E-02  0.600E-02    0.02       1.0  T
   4   -379.5752618 -0.256363E-02  0.162E-02    0.03       1.0  T
   5   -379.5754068 -0.144916E-03  0.626E-03    0.03       1.1  T
   6   -379.5754310 -0.242370E-04  0.133E-03    0.03       5.2  T
   7   -379.5754314 -0.440350E-06  0.762E-04    0.03       9.1  T
   8   -379.5754315 -0.101961E-06  0.670E-04    0.03      10.4  T
     SCC iter.                  ...        0 min,  1.414 sec
     gradient                   ...        0 min,  0.450 sec
 * total energy  :  -372.4540123 Eh     change       -0.1095134E-04 Eh
   gradient norm :     0.0012587 Eh/α   predicted    -0.5510055E-05 ( -49.69%)
   displ. norm   :     0.0833826 α      lambda       -0.9719697E-05
   maximum displ.:     0.0461337 α      in ANC's #4, #3, #13, ...

........................................................................
.............................. CYCLE   24 ..............................
........................................................................

 iter      E             dE          RMSdq      gap      omega  full diag
   1   -379.5747638 -0.379575E+03  0.170E-02    0.03       0.0  T
   2   -379.5746755  0.882997E-04  0.148E-02    0.03       1.0  T
   3   -379.5637115  0.109639E-01  0.119E-01    0.06       1.0  T
   4   -379.5745481 -0.108366E-01  0.211E-02    0.03       1.0  T
   5   -379.5747157 -0.167551E-03  0.906E-03    0.03       1.0  T
   6   -379.5747629 -0.471864E-04  0.207E-03    0.03       3.4  T
   7   -379.5747642 -0.130139E-05  0.112E-03    0.03       6.2  T
   8   -379.5747644 -0.204082E-06  0.891E-04    0.03       7.8  T
   9   -379.5747646 -0.270761E-06  0.512E-04    0.03      13.6  T
     SCC iter.                  ...        0 min,  1.610 sec
     gradient                   ...        0 min,  0.448 sec
 * total energy  :  -372.4540236 Eh     change       -0.1131577E-04 Eh
   gradient norm :     0.0012837 Eh/α   predicted    -0.4877594E-05 ( -56.90%)
   displ. norm   :     0.1091602 α      lambda       -0.1065377E-04
   maximum displ.:     0.0629712 α      in ANC's #4, #3, #13, ...

........................................................................
.............................. CYCLE   25 ..............................
........................................................................

 iter      E             dE          RMSdq      gap      omega  full diag
   1   -379.5748484 -0.379575E+03  0.177E-02    0.03       0.0  T
   2   -379.5747916  0.567897E-04  0.137E-02    0.03       1.0  T
   3   -379.5626712  0.121204E-01  0.124E-01    0.06       1.0  T
   4   -379.5745288 -0.118576E-01  0.274E-02    0.03       1.0  T
   5   -379.5747952 -0.266389E-03  0.985E-03    0.03       1.0  T
   6   -379.5748463 -0.511009E-04  0.258E-03    0.03       2.7  T
   7   -379.5748487 -0.244817E-05  0.115E-03    0.03       6.1  T
   8   -379.5748491 -0.434955E-06  0.846E-04    0.03       8.2  T
   9   -379.5748496 -0.426926E-06  0.368E-04    0.03      18.9  T
     SCC iter.                  ...        0 min,  1.604 sec
     gradient                   ...        0 min,  0.467 sec
 * total energy  :  -372.4540364 Eh     change       -0.1272933E-04 Eh
   gradient norm :     0.0008095 Eh/α   predicted    -0.5361168E-05 ( -57.88%)
   displ. norm   :     0.1255097 α      lambda       -0.1096107E-04
   maximum displ.:     0.0749757 α      in ANC's #4, #3, #2, ...

........................................................................
.............................. CYCLE   26 ..............................
........................................................................

 iter      E             dE          RMSdq      gap      omega  full diag
   1   -379.5753419 -0.379575E+03  0.158E-02    0.03       0.0  T
   2   -379.5753279  0.139428E-04  0.105E-02    0.03       1.0  T
   3   -379.5671066  0.822133E-02  0.102E-01    0.05       1.0  T
   4   -379.5750739 -0.796731E-02  0.226E-02    0.03       1.0  T
   5   -379.5753228 -0.248845E-03  0.585E-03    0.03       1.2  T
   6   -379.5753403 -0.175686E-04  0.203E-03    0.03       3.4  T
   7   -379.5753419 -0.158086E-05  0.902E-04    0.03       7.7  T
   8   -379.5753419  0.482783E-08  0.885E-04    0.03       7.9  T
   9   -379.5753423 -0.374573E-06  0.383E-04    0.03      18.2  T
     SCC iter.                  ...        0 min,  1.575 sec
     gradient                   ...        0 min,  0.444 sec
 * total energy  :  -372.4540495 Eh     change       -0.1316548E-04 Eh
   gradient norm :     0.0006572 Eh/α   predicted    -0.5526318E-05 ( -58.02%)
   displ. norm   :     0.1390653 α      lambda       -0.1161898E-04
   maximum displ.:     0.0847635 α      in ANC's #4, #3, #2, ...

........................................................................
.............................. CYCLE   27 ..............................
........................................................................

 iter      E             dE          RMSdq      gap      omega  full diag
   1   -379.5755790 -0.379576E+03  0.147E-02    0.03       0.0  T
   2   -379.5754513  0.127737E-03  0.159E-02    0.03       1.0  T
   3   -379.5692062  0.624509E-02  0.911E-02    0.02       1.0  T
   4   -379.5754404 -0.623421E-02  0.130E-02    0.03       1.0  T
   5   -379.5755774 -0.137041E-03  0.193E-03    0.03       3.6  T
   6   -379.5755780 -0.566485E-06  0.167E-03    0.03       4.2  T
   7   -379.5755793 -0.133690E-05  0.703E-04    0.03       9.9  T
   8   -379.5755794 -0.569093E-07  0.530E-04    0.03      13.1  T
   9   -379.5755795 -0.136051E-06  0.289E-04    0.03      24.1  T
     SCC iter.                  ...        0 min,  1.633 sec
     gradient                   ...        0 min,  0.438 sec
 * total energy  :  -372.4540639 Eh     change       -0.1436181E-04 Eh
   gradient norm :     0.0009844 Eh/α   predicted    -0.5860349E-05 ( -59.19%)
   displ. norm   :     0.1592209 α      lambda       -0.1294423E-04
   maximum displ.:     0.0987983 α      in ANC's #4, #3, #2, ...

........................................................................
.............................. CYCLE   28 ..............................
........................................................................

 iter      E             dE          RMSdq      gap      omega  full diag
   1   -379.5756675 -0.379576E+03  0.167E-02    0.03       0.0  T
   2   -379.5752480  0.419495E-03  0.252E-02    0.03       1.0  T
   3   -379.5712820  0.396598E-02  0.756E-02    0.02       1.0  T
   4   -379.5752071 -0.392503E-02  0.286E-02    0.03       1.0  T
   5   -379.5756554 -0.448329E-03  0.499E-03    0.03       1.4  T
   6   -379.5756672 -0.117976E-04  0.186E-03    0.03       3.7  T
   7   -379.5756689 -0.167181E-05  0.820E-04    0.03       8.5  T
   8   -379.5756690 -0.110635E-06  0.665E-04    0.03      10.5  T
   9   -379.5756691 -0.133226E-06  0.446E-04    0.03      15.6  T
     SCC iter.                  ...        0 min,  1.602 sec
     gradient                   ...        0 min,  0.442 sec
 * total energy  :  -372.4540798 Eh     change       -0.1589093E-04 Eh
   gradient norm :     0.0010589 Eh/α   predicted    -0.6545674E-05 ( -58.81%)
   displ. norm   :     0.1728612 α      lambda       -0.1308435E-04
   maximum displ.:     0.1094369 α      in ANC's #4, #3, #2, ...

........................................................................
.............................. CYCLE   29 ..............................
........................................................................

 iter      E             dE          RMSdq      gap      omega  full diag
   1   -379.5755961 -0.379576E+03  0.182E-02    0.03       0.0  T
   2   -379.5749341  0.662062E-03  0.308E-02    0.03       1.0  T
   3   -379.5718483  0.308577E-02  0.701E-02    0.02       1.0  T
   4   -379.5748660 -0.301770E-02  0.374E-02    0.03       1.0  T
   5   -379.5755737 -0.707703E-03  0.725E-03    0.03       1.0  T
   6   -379.5755944 -0.207099E-04  0.255E-03    0.03       2.7  T
   7   -379.5755987 -0.431991E-05  0.872E-04    0.03       8.0  T
   8   -379.5755990 -0.263923E-06  0.625E-04    0.03      11.1  T
   9   -379.5755991 -0.514426E-07  0.480E-04    0.03      14.5  T
     SCC iter.                  ...        0 min,  1.608 sec
     gradient                   ...        0 min,  0.456 sec
 * total energy  :  -372.4540959 Eh     change       -0.1606577E-04 Eh
   gradient norm :     0.0007644 Eh/α   predicted    -0.6631175E-05 ( -58.72%)
   displ. norm   :     0.1678135 α      lambda       -0.1158792E-04
   maximum displ.:     0.1083515 α      in ANC's #4, #3, #2, ...

........................................................................
.............................. CYCLE   30 ..............................
........................................................................

 iter      E             dE          RMSdq      gap      omega  full diag
   1   -379.5753286 -0.379575E+03  0.185E-02    0.03       0.0  T
   2   -379.5744161  0.912492E-03  0.359E-02    0.03       1.0  T
   3   -379.5727728  0.164330E-02  0.583E-02    0.02       1.0  T
   4   -379.5746805 -0.190775E-02  0.335E-02    0.03       1.0  T
   5   -379.5753104 -0.629813E-03  0.656E-03    0.03       1.1  T
   6   -379.5753275 -0.171659E-04  0.257E-03    0.03       2.7  T
   7   -379.5753319 -0.439852E-05  0.678E-04    0.03      10.3  T
   8   -379.5753318  0.858527E-07  0.739E-04    0.03       9.4  T
   9   -379.5753319 -0.103345E-06  0.527E-04    0.03      13.2  T
     SCC iter.                  ...        0 min,  1.611 sec
     gradient                   ...        0 min,  0.445 sec
 * total energy  :  -372.4541105 Eh     change       -0.1466767E-04 Eh
   gradient norm :     0.0004507 Eh/α   predicted    -0.5870522E-05 ( -59.98%)
   displ. norm   :     0.1681614 α      lambda       -0.1151639E-04
   maximum displ.:     0.1095027 α      in ANC's #4, #3, #2, ...

........................................................................
.............................. CYCLE   31 ..............................
........................................................................

 iter      E             dE          RMSdq      gap      omega  full diag
   1   -379.5753035 -0.379575E+03  0.186E-02    0.03       0.0  T
   2   -379.5745612  0.742367E-03  0.327E-02    0.03       1.0  T
   3   -379.5720521  0.250908E-02  0.654E-02    0.02       1.0  T
   4   -379.5747110 -0.265895E-02  0.325E-02    0.03       1.0  T
   5   -379.5752902 -0.579144E-03  0.557E-03    0.03       1.3  T
   6   -379.5753025 -0.122744E-04  0.234E-03    0.03       3.0  T
   7   -379.5753062 -0.374685E-05  0.630E-04    0.03      11.1  T
   8   -379.5753062  0.265308E-07  0.634E-04    0.03      11.0  T
   9   -379.5753063 -0.793843E-07  0.477E-04    0.03      14.6  T
     SCC iter.                  ...        0 min,  1.590 sec
     gradient                   ...        0 min,  0.442 sec
 * total energy  :  -372.4541259 Eh     change       -0.1540162E-04 Eh
   gradient norm :     0.0005283 Eh/α   predicted    -0.5831478E-05 ( -62.14%)
   displ. norm   :     0.2136012 α      lambda       -0.1517974E-04
   maximum displ.:     0.1382442 α      in ANC's #4, #3, #2, ...

........................................................................
.............................. CYCLE   32 ..............................
........................................................................

 iter      E             dE          RMSdq      gap      omega  full diag
   1   -379.5752714 -0.379575E+03  0.241E-02    0.03       0.0  T
   2   -379.5744403  0.831180E-03  0.359E-02    0.03       1.0  T
   3   -379.5671104  0.732984E-02  0.103E-01    0.02       1.0  T
   4   -379.5746024 -0.749202E-02  0.335E-02    0.03       1.0  T
   5   -379.5752642 -0.661769E-03  0.439E-03    0.03       1.6  T
   6   -379.5752706 -0.634693E-05  0.243E-03    0.03       2.9  T
   7   -379.5752740 -0.343619E-05  0.104E-03    0.03       6.7  T
   8   -379.5752738  0.169034E-06  0.110E-03    0.03       6.3  T
   9   -379.5752743 -0.494836E-06  0.530E-04    0.03      13.1  T
  10   -379.5752744 -0.668830E-07  0.452E-04    0.03      15.4  T
     SCC iter.                  ...        0 min,  1.781 sec
     gradient                   ...        0 min,  0.440 sec
 * total energy  :  -372.4541458 Eh     change       -0.1983638E-04 Eh
   gradient norm :     0.0007649 Eh/α   predicted    -0.7744415E-05 ( -60.96%)
   displ. norm   :     0.2865813 α      lambda       -0.1933661E-04
   maximum displ.:     0.1846408 α      in ANC's #4, #3, #2, ...

........................................................................
.............................. CYCLE   33 ..............................
........................................................................

 iter      E             dE          RMSdq      gap      omega  full diag
   1   -379.5750923 -0.379575E+03  0.329E-02    0.03       0.0  T
   2   -379.5739056  0.118673E-02  0.441E-02    0.04       1.0  T
   3   -379.5552220  0.186836E-01  0.160E-01    0.03       1.0  T
   4   -379.5747080 -0.194861E-01  0.252E-02    0.03       1.0  T
   5   -379.5750676 -0.359565E-03  0.673E-03    0.03       1.0  T
   6   -379.5750935 -0.259309E-04  0.241E-03    0.03       2.9  T
   7   -379.5750947 -0.116199E-05  0.185E-03    0.03       3.8  T
   8   -379.5750954 -0.715568E-06  0.148E-03    0.03       4.7  T
   9   -379.5750959 -0.520902E-06  0.893E-04    0.03       7.8  T
  10   -379.5750963 -0.362238E-06  0.644E-04    0.03      10.8  T
     SCC iter.                  ...        0 min,  1.852 sec
     gradient                   ...        0 min,  0.435 sec
 * total energy  :  -372.4541690 Eh     change       -0.2321111E-04 Eh
   gradient norm :     0.0009093 Eh/α   predicted    -0.1002632E-04 ( -56.80%)
   displ. norm   :     0.3081976 α      lambda       -0.1754596E-04
   maximum displ.:     0.1987858 α      in ANC's #4, #3, #2, ...

........................................................................
.............................. CYCLE   34 ..............................
........................................................................

 iter      E             dE          RMSdq      gap      omega  full diag
   1   -379.5750671 -0.379575E+03  0.345E-02    0.03       0.0  T
   2   -379.5747212  0.345913E-03  0.300E-02    0.03       1.0  T
   3   -379.5263634  0.483578E-01  0.251E-01    0.05       1.0  T
   4   -379.5745856 -0.482223E-01  0.246E-02    0.03       1.0  T
   5   -379.5750537 -0.468060E-03  0.521E-03    0.03       1.3  T
   6   -379.5750572 -0.354364E-05  0.418E-03    0.03       1.7  T
   7   -379.5750663 -0.910534E-05  0.237E-03    0.03       2.9  T
   8   -379.5750668 -0.478173E-06  0.169E-03    0.03       4.1  T
   9   -379.5750683 -0.145857E-05  0.874E-04    0.03       8.0  T
  10   -379.5750683  0.828317E-08  0.763E-04    0.03       9.1  T
  11   -379.5750687 -0.394180E-06  0.200E-04    0.03      34.8  T
     SCC iter.                  ...        0 min,  1.903 sec
     gradient                   ...        0 min,  0.436 sec
 * total energy  :  -372.4541891 Eh     change       -0.2012897E-04 Eh
   gradient norm :     0.0007139 Eh/α   predicted    -0.9144520E-05 ( -54.57%)
   displ. norm   :     0.2600148 α      lambda       -0.1165137E-04
   maximum displ.:     0.1684767 α      in ANC's #4, #3, #2, ...

........................................................................
.............................. CYCLE   35 ..............................
........................................................................

 iter      E             dE          RMSdq      gap      omega  full diag
   1   -379.5753169 -0.379575E+03  0.292E-02    0.03       0.0  T
   2   -379.5752717  0.452613E-04  0.193E-02    0.03       1.0  T
   3   -379.5379263  0.373454E-01  0.221E-01    0.04       1.0  T
   4   -379.5749088 -0.369825E-01  0.229E-02    0.03       1.0  T
   5   -379.5753104 -0.401636E-03  0.344E-03    0.03       2.0  T
   6   -379.5753071  0.327161E-05  0.408E-03    0.03       1.7  T
   7   -379.5753158 -0.862858E-05  0.189E-03    0.03       3.7  T
   8   -379.5753169 -0.114273E-05  0.979E-04    0.03       7.1  T
   9   -379.5753173 -0.422883E-06  0.601E-04    0.03      11.6  T
  10   -379.5753172  0.959578E-07  0.664E-04    0.03      10.5  T
     SCC iter.                  ...        0 min,  1.754 sec
     gradient                   ...        0 min,  0.443 sec
 * total energy  :  -372.4542021 Eh     change       -0.1303347E-04 Eh
   gradient norm :     0.0004703 Eh/α   predicted    -0.6002698E-05 ( -53.94%)
   displ. norm   :     0.2059379 α      lambda       -0.8093991E-05
   maximum displ.:     0.1339979 α      in ANC's #4, #3, #2, ...

........................................................................
.............................. CYCLE   36 ..............................
........................................................................

 iter      E             dE          RMSdq      gap      omega  full diag
   1   -379.5757170 -0.379576E+03  0.235E-02    0.03       0.0  T
   2   -379.5754076  0.309406E-03  0.244E-02    0.02       1.0  T
   3   -379.5595834  0.158242E-01  0.144E-01    0.07       1.0  T
   4   -379.5755856 -0.160022E-01  0.167E-02    0.03       1.0  T
   5   -379.5757088 -0.123143E-03  0.389E-03    0.03       1.8  T
   6   -379.5757140 -0.528573E-05  0.281E-03    0.03       2.5  T
   7   -379.5757167 -0.261385E-05  0.158E-03    0.03       4.4  T
   8   -379.5757178 -0.116014E-05  0.918E-04    0.03       7.6  T
   9   -379.5757182 -0.371125E-06  0.585E-04    0.03      11.9  T
  10   -379.5757182 -0.411241E-07  0.506E-04    0.03      13.8  T
     SCC iter.                  ...        0 min,  1.777 sec
     gradient                   ...        0 min,  0.435 sec
 * total energy  :  -372.4542112 Eh     change       -0.9038326E-05 Eh
   gradient norm :     0.0003180 Eh/α   predicted    -0.4123831E-05 ( -54.37%)
   displ. norm   :     0.1600071 α      lambda       -0.5733311E-05
   maximum displ.:     0.1040156 α      in ANC's #4, #3, #2, ...

........................................................................
.............................. CYCLE   37 ..............................
........................................................................

 iter      E             dE          RMSdq      gap      omega  full diag
   1   -379.5760730 -0.379576E+03  0.195E-02    0.03       0.0  T
   2   -379.5751340  0.938990E-03  0.367E-02    0.02       1.0  T
   3   -379.5726644  0.246955E-02  0.672E-02    0.04       1.0  T
   4   -379.5759314 -0.326696E-02  0.157E-02    0.03       1.0  T
   5   -379.5760651 -0.133719E-03  0.476E-03    0.03       1.5  T
   6   -379.5760739 -0.883561E-05  0.185E-03    0.03       3.8  T
   7   -379.5760755 -0.157363E-05  0.103E-03    0.03       6.8  T
   8   -379.5760757 -0.245443E-06  0.788E-04    0.03       8.8  T
   9   -379.5760759 -0.133250E-06  0.556E-04    0.03      12.5  T
     SCC iter.                  ...        0 min,  1.590 sec
     gradient                   ...        0 min,  0.450 sec
 * total energy  :  -372.4542170 Eh     change       -0.5825029E-05 Eh
   gradient norm :     0.0003639 Eh/α   predicted    -0.2900175E-05 ( -50.21%)
   displ. norm   :     0.1070710 α      lambda       -0.3523450E-05
   maximum displ.:     0.0685961 α      in ANC's #4, #3, #5, ...

........................................................................
.............................. CYCLE   38 ..............................
........................................................................

 iter      E             dE          RMSdq      gap      omega  full diag
   1   -379.5761975 -0.379576E+03  0.138E-02    0.03       0.0  T
   2   -379.5756202  0.577272E-03  0.285E-02    0.02       1.0  T
   3   -379.5747874  0.832817E-03  0.434E-02    0.04       1.0  T
   4   -379.5760657 -0.127824E-02  0.153E-02    0.03       1.0  T
   5   -379.5761887 -0.123065E-03  0.418E-03    0.03       1.7  T
   6   -379.5761986 -0.991137E-05  0.129E-03    0.03       5.4  T
   7   -379.5761992 -0.517073E-06  0.754E-04    0.03       9.2  T
   8   -379.5761993 -0.137509E-06  0.593E-04    0.03      11.7  T
     SCC iter.                  ...        0 min,  1.520 sec
     gradient                   ...        0 min,  0.472 sec
 * total energy  :  -372.4542206 Eh     change       -0.3581050E-05 Eh
   gradient norm :     0.0003503 Eh/α   predicted    -0.1772616E-05 ( -50.50%)
   displ. norm   :     0.0787967 α      lambda       -0.2695420E-05
   maximum displ.:     0.0479232 α      in ANC's #4, #3, #5, ...

   *** GEOMETRY OPTIMIZATION CONVERGED AFTER 38 ITERATIONS ***

------------------------------------------------------------------------
 total energy gain   :        -0.0300996 Eh      -18.8878 kcal/mol
 total RMSD          :         0.3526701 a0        0.1866 Å
 total power (kW/mol):        -2.0796446 (step)   -0.8313 (real)
------------------------------------------------------------------------

 ANCopt (total)                0 d,  0 h,  1 min, 35.068 sec
 optimizer setup                ...        0 min,  0.004 sec (  0.004%)
 model hessian                  ...        0 min,  0.452 sec (  0.475%)
 ANC generation                 ...        0 min,  0.197 sec (  0.207%)
 coordinate transformation      ...        0 min,  0.014 sec (  0.015%)
 single point calculation       ...        1 min, 34.248 sec ( 99.137%)
 optimization log               ...        0 min,  0.098 sec (  0.103%)
 hessian update                 ...        0 min,  0.015 sec (  0.016%)
 rational function              ...        0 min,  0.029 sec (  0.031%)

================
 final structure:
================
206
 xtb: 6.7.1pre (5071a88)
C            9.85417815183329        8.66956854763731       -1.27756761347476
C            9.16160277829557        9.87107857524231       -1.23995063726372
C            7.80588247241467        9.85542425512183       -1.02832427561619
C            7.09789200083924        8.65450025509189       -0.85047128411235
B           10.01696601472565        6.14705515785328       -1.15652186548225
C            9.21079500971216        7.44986551626270       -1.11277753160908
C            7.80451791803622        7.42141318323491       -0.89898403815005
C            7.11417635600668        6.16842808055218       -0.73903250007504
C            9.85009382189977        3.62568476286335       -0.96593361700540
C            9.21444749783012        4.85953257503267       -0.96006485924427
C            7.80768405198117        4.91908842211626       -0.76910280886200
C            7.08003564073604        3.71324775190517       -0.60310317112257
C            9.92128361754064        1.19991719055862       -0.79939986454061
C            9.17945496200396        2.41546273721969       -0.79120048668128
C            7.76007793557586        2.47224777725842       -0.61096639430983
C            7.04468627096903        1.27172927774631       -0.43823796895924
C            9.93740246247389       -1.28913296638976       -0.61019917737552
C            9.30923645647100       -0.02204247892031       -0.62525678013052
B            7.80762467162094       -0.02515572941684       -0.43317080767506
C            7.07070221483489       -1.32388038184606       -0.22728004098431
B           10.02312225221417       -3.78524924124653       -0.37768397965352
C            9.24616449453990       -2.47175121950683       -0.40034047621912
C            7.80951285110180       -2.51524330772553       -0.19064719159780
C            7.12448044271888       -3.74402375601613        0.06050299010063
C            9.86699572270041       -6.25957954257818        0.11401536140323
C            9.22473730470264       -5.05309277614872       -0.02292621527524
C            7.81089394408333       -4.98514508667159        0.18688729907852
C            7.09610082820113       -6.15908670985514        0.52977942844054
C            9.87575408839029       -8.65071160991209        0.66187781391168
C            9.19443685632446       -7.43859188025909        0.49403353336949
C            7.79791498083902       -7.37383935786053        0.71730137010903
C            7.10826550995986       -8.53349595144708        1.14849127565211
C            9.19303505385458       -9.78395303228764        1.05542559185357
C            7.83438469143937       -9.72596398922107        1.29993404338481
C            5.68198776736561        8.63879166053919       -0.62355510896015
C            4.90320504021113        9.83518734791427       -0.53334537732181
C            3.55046264509145        9.89537772408983       -0.32436163252009
C            2.77632071567004        8.72479751838630       -0.17653873924977
C            5.71545609374452        6.16981216458059       -0.54662998889190
C            5.03201915143925        7.41116620679239       -0.48687516634966
B            3.53865611836757        7.42068394375437       -0.27028433942199
C            2.79425766337156        6.12223621474039       -0.15894681778142
C            5.66551151142001        3.71646440686260       -0.43029581061556
C            4.96486247514765        4.94693905135394       -0.40299245074058
C            3.54117693685407        4.92543380721609       -0.23375096285340
C            2.84123802766811        3.69443708111723       -0.13364663604724
C            5.65681236945401        1.24753699063228       -0.27941923830708
C            4.96278814561574        2.48440270325588       -0.28553807519049
C            3.56007895209607        2.47596328282204       -0.15395186399166
C            2.86550840181606        1.24635432762347       -0.04921292652677
C            5.67126071418599       -1.27746660683093       -0.07990578006430
C            4.96522820851764       -0.01725880587208       -0.12409186374165
C            3.56891771591145       -0.01436668411849       -0.02553929498998
C            2.87226104420590       -1.27372418716894        0.08483401200485
C            5.71305062601445       -3.71984440209222        0.19967817806603
C            4.98704109078703       -2.50151436037966        0.10167232618395
C            3.57464767717346       -2.50048451840036        0.16947861920432
C            2.85645093605651       -3.71350602397488        0.30999866315559
C            5.67968539229222       -6.14449977367609        0.65471483641764
C            4.99383998206949       -4.92754517739530        0.44391754660047
C            3.57927316828932       -4.92593892397127        0.48384253833427
C            2.86809020237916       -6.13946347503731        0.68719615267288
C            5.70567544794082       -8.49175069675276        1.38347713192757
C            4.97352101168424       -7.33770766182519        1.01004768837676
C            3.54312156491177       -7.35087205252417        0.98538375923016
C            2.82233880748797       -8.60203222382320        1.24435426723259
B            4.96671353098299       -9.64441439141509        2.08448747842877
C            3.48294589472573       -9.67240216617031        1.80561213045395
C            1.38533301927634        8.66513015395868        0.06133739468120
C            0.64683551664298        9.85379941184859        0.23802809977140
C           -0.68475868722832        9.83326130509766        0.49457886412061
C           -1.40855930043094        8.62575023643134        0.56487561602911
C            1.39575223572170        6.15102689373515        0.00649381230144
C            0.68888626203650        7.40263268738742        0.13440764676421
C           -0.70901928023559        7.37978944528305        0.34081552173431
C           -1.41025197628008        6.11612596189460        0.31717432782768
C            1.42573619897433        3.70990291289886       -0.01820512798196
C            0.69770625653376        4.92431209492193        0.05384989010349
C           -0.71119205966761        4.89919844434758        0.17031929506539
C           -1.42683389204545        3.66278890979561        0.15382701150639
C            1.46853747678663        1.28892789594594        0.02074236621745
C            0.72702667154759        2.48370931801127        0.02996408981642
C           -0.70953131550644        2.44904762380199        0.08672177515310
C           -1.44771790096779        1.22280056679338        0.08299471183926
C            1.47339479120181       -1.30334630009897        0.10369069838713
B            0.72094866442365       -0.01008318967647        0.07179842784343
C           -0.77973047333386       -0.01551855898475        0.08110068288847
C           -1.44074421191768       -1.25065213671305        0.06860432389001
C            1.43360215952628       -3.71207760300917        0.28115881385210
C            0.73369099691886       -2.49676439867455        0.16502702454162
C           -0.69935175314555       -2.47778014067187        0.11491590978422
C           -1.39779201283321       -3.70625168265577        0.11069956894254
C            1.44821070967643       -6.11156320981984        0.59396725293942
C            0.72198473163081       -4.92960528309845        0.37511532004170
C           -0.70482612070414       -4.93308320701509        0.25450716908400
C           -1.46080405776244       -6.14563308457901        0.28660793079112
C            1.40567174241869       -8.67316186645877        1.00340648440756
B            0.68396802958265       -7.38772162846525        0.70345970580450
C           -0.80608584514924       -7.36533014985299        0.51854258545488
C           -1.51206567231352       -8.57787513592589        0.61778329355074
C            0.60665558317600       -9.82838312423414        1.04293517389087
C           -0.75710523090411       -9.76911276831507        0.85645251279065
C           -2.79697470683248        8.65094617541402        0.82488320606855
C           -3.56607986300499        9.78432943598361        1.15310884965829
C           -4.93004506571513        9.70636200991640        1.30031112480640
C           -5.70762607647626        8.52598847798408        1.14065199424432
[...]
     5   5 B        6   6 C                                       1.5326906
     4   6 C        7   6 C                                       1.4220330
     6   6 C        7   6 C                                       1.4227202
     5   5 B       10   6 C                                       1.5298190
     9   6 C       10   6 C                                       1.3879703
     8   6 C       11   6 C                                       1.4292330
    10   6 C       11   6 C                                       1.4209142
    11   6 C       12   6 C                                       1.4181256
     9   6 C       14   6 C                                       1.3946060
    13   6 C       14   6 C                                       1.4240535
    12   6 C       15   6 C                                       1.4151327
    14   6 C       15   6 C                                       1.4319010
    15   6 C       16   6 C                                       1.4081425
    13   6 C       18   6 C                                       1.3777203
    17   6 C       18   6 C                                       1.4143330
    16   6 C       19   5 B                                       1.5046634
    18   6 C       19   5 B                                       1.5138511
    19   5 B       20   6 C                                       1.5073592
    17   6 C       22   6 C                                       1.3857983
    21   5 B       22   6 C                                       1.5262549
    20   6 C       23   6 C                                       1.4023299
    23   6 C       24   6 C                                       1.4290723
    21   5 B       26   6 C                                       1.5397075
    25   6 C       26   6 C                                       1.3736301
    24   6 C       27   6 C                                       1.4239098
    26   6 C       27   6 C                                       1.4309410
    27   6 C       28   6 C                                       1.4165605
    25   6 C       30   6 C                                       1.4095459
    29   6 C       30   6 C                                       1.4005711
    28   6 C       31   6 C                                       1.4153911
    30   6 C       31   6 C                                       1.4157384
    31   6 C       32   6 C                                       1.4164551
    29   6 C       33   6 C                                       1.3802977
    32   6 C       34   6 C                                       1.4043377
    33   6 C       34   6 C                                       1.3816940
     4   6 C       35   6 C                                       1.4340582
    35   6 C       36   6 C                                       1.4303857
    36   6 C       37   6 C                                       1.3701129
    37   6 C       38   6 C                                       1.4111718
     8   6 C       39   6 C                                       1.4118921
    35   6 C       40   6 C                                       1.3957812
    39   6 C       40   6 C                                       1.4183148
    38   6 C       41   5 B                                       1.5134914
    40   6 C       41   5 B                                       1.5090181
    41   5 B       42   6 C                                       1.5008304
    12   6 C       43   6 C                                       1.4250444
    43   6 C       44   6 C                                       1.4162354
    42   6 C       45   6 C                                       1.4127351
    44   6 C       45   6 C                                       1.4338710
    45   6 C       46   6 C                                       1.4196086
    16   6 C       47   6 C                                       1.3971410
    43   6 C       48   6 C                                       1.4257459
    47   6 C       48   6 C                                       1.4182892
    46   6 C       49   6 C                                       1.4148581
    48   6 C       49   6 C                                       1.4088930
    49   6 C       50   6 C                                       1.4160992
    20   6 C       51   6 C                                       1.4079454
    52   6 C       53   6 C                                       1.3997872
    24   6 C       55   6 C                                       1.4184812
    51   6 C       56   6 C                                       1.4140086
    55   6 C       56   6 C                                       1.4216270
    54   6 C       57   6 C                                       1.4161402
    56   6 C       57   6 C                                       1.4140206
    57   6 C       58   6 C                                       1.4166771
    28   6 C       59   6 C                                       1.4219897
    55   6 C       60   6 C                                       1.4266949
    59   6 C       60   6 C                                       1.4127273
    58   6 C       61   6 C                                       1.4222122
    60   6 C       61   6 C                                       1.4151312
    61   6 C       62   6 C                                       1.4211883
    32   6 C       63   6 C                                       1.4227510
    59   6 C       64   6 C                                       1.4313193
    63   6 C       64   6 C                                       1.4167976
    62   6 C       65   6 C                                       1.4184831
    64   6 C       65   6 C                                       1.4306728
    63   6 C       67   5 B                                       1.5382179
    66   6 C       68   6 C                                       1.3773541
    67   5 B       68   6 C                                       1.5100072
    38   6 C       69   6 C                                       1.4124420
    69   6 C       70   6 C                                       1.4105081
    70   6 C       71   6 C                                       1.3562388
    71   6 C       72   6 C                                       1.4095788
    42   6 C       73   6 C                                       1.4085515
    74   6 C       75   6 C                                       1.4132467
    46   6 C       77   6 C                                       1.4202858
    73   6 C       78   6 C                                       1.4122112
    77   6 C       78   6 C                                       1.4177481
    76   6 C       79   6 C                                       1.4110861
    78   6 C       79   6 C                                       1.4139274
    79   6 C       80   6 C                                       1.4286792
    50   6 C       81   6 C                                       1.3993693
    77   6 C       82   6 C                                       1.4121142
    81   6 C       82   6 C                                       1.4062099
    80   6 C       83   6 C                                       1.4114512
    83   6 C       84   6 C                                       1.4312986
    54   6 C       85   6 C                                       1.3993070
    81   6 C       86   5 B                                       1.4996419
    85   6 C       86   5 B                                       1.4965701
    84   6 C       87   6 C                                       1.4069987
    86   5 B       87   6 C                                       1.5007180
    87   6 C       88   6 C                                       1.4009463
    58   6 C       89   6 C                                       1.4231419
    85   6 C       90   6 C                                       1.4054078
    89   6 C       90   6 C                                       1.4072487
    88   6 C       91   6 C                                       1.4344515
    90   6 C       91   6 C                                       1.4340444
    91   6 C       92   6 C                                       1.4131452
    62   6 C       93   6 C                                       1.4232105
    89   6 C       94   6 C                                       1.4133652
    93   6 C       94   6 C                                       1.4043950
    92   6 C       95   6 C                                       1.4163327
    94   6 C       95   6 C                                       1.4319036
    95   6 C       96   6 C                                       1.4292693
    93   6 C       98   5 B                                       1.4915214
    97   6 C       98   5 B                                       1.5043874
    96   6 C       99   6 C                                       1.4036064
    98   5 B       99   6 C                                       1.5016513
    99   6 C      100   6 C                                       1.4065994
    97   6 C      101   6 C                                       1.4051782
   100   6 C      102   6 C                                       1.4303761
   101   6 C      102   6 C                                       1.3777274
    72   6 C      103   6 C                                       1.4127762
   103   6 C      104   6 C                                       1.4084789
   104   6 C      105   6 C                                       1.3740993
   105   6 C      106   6 C                                       1.4224645
    76   6 C      107   6 C                                       1.4127394
   103   6 C      108   5 B                                       1.5090960
   107   6 C      108   5 B                                       1.5026719
   106   6 C      109   6 C                                       1.3987154
   108   5 B      109   6 C                                       1.5042304
   109   6 C      110   6 C                                       1.4154572
    80   6 C      111   6 C                                       1.4298029
   107   6 C      112   6 C                                       1.4062691
   111   6 C      112   6 C                                       1.4178891
   110   6 C      113   6 C                                       1.4254783
   113   6 C      114   6 C                                       1.4204216
    84   6 C      115   6 C                                       1.4129611
   111   6 C      116   6 C                                       1.4123607
   115   6 C      116   6 C                                       1.4141233
   116   6 C      117   6 C                                       1.4284408
   117   6 C      118   6 C                                       1.4068092
    88   6 C      119   6 C                                       1.4167907
   115   6 C      120   6 C                                       1.4165679
   119   6 C      120   6 C                                       1.4188666
   120   6 C      121   6 C                                       1.4162268
   121   6 C      122   6 C                                       1.4022064
    92   6 C      123   6 C                                       1.4339665
   119   6 C      124   6 C                                       1.4180546
   123   6 C      124   6 C                                       1.4138915
   122   6 C      125   6 C                                       1.4101709
   124   6 C      125   6 C                                       1.4121694
   125   6 C      126   6 C                                       1.4328896
    96   6 C      127   6 C                                       1.4178466
   123   6 C      128   6 C                                       1.4126444
   127   6 C      128   6 C                                       1.4199593
   126   6 C      129   6 C                                       1.4114530
   128   6 C      129   6 C                                       1.4254891
   129   6 C      130   6 C                                       1.4319698
   100   6 C      131   6 C                                       1.4146452
   127   6 C      132   6 C                                       1.4220573
   131   6 C      132   6 C                                       1.4185199
   130   6 C      133   6 C                                       1.4001772
   132   6 C      133   6 C                                       1.4346539
   131   6 C      135   5 B                                       1.5433416
   134   6 C      136   6 C                                       1.3687410
   135   5 B      136   6 C                                       1.5119161
   137   6 C      138   6 C                                       1.3953552
   138   6 C      139   6 C                                       1.3854369
   139   6 C      140   6 C                                       1.3753214
   110   6 C      141   6 C                                       1.4178769
   137   6 C      142   6 C                                       1.4206872
   141   6 C      142   6 C                                       1.4261299
   140   6 C      143   6 C                                       1.4007618
   142   6 C      143   6 C                                       1.4169567
   143   6 C      144   6 C                                       1.4099719
   114   6 C      145   6 C                                       1.4238901
   141   6 C      146   6 C                                       1.4108718
   145   6 C      146   6 C                                       1.4247893
   144   6 C      147   6 C                                       1.3716855
   146   6 C      147   6 C                                       1.4331415
   147   6 C      148   5 B                                       1.5317602
   118   6 C      149   6 C                                       1.4347973
   145   6 C      150   6 C                                       1.4325530
   149   6 C      150   6 C                                       1.4122872
   148   5 B      151   6 C                                       1.5282110
   150   6 C      151   6 C                                       1.4305835
   151   6 C      152   6 C                                       1.3866898
   122   6 C      153   5 B                                       1.4986365
   149   6 C      154   6 C                                       1.4079511
   153   5 B      154   6 C                                       1.5039006
   152   6 C      155   6 C                                       1.3988291
   154   6 C      155   6 C                                       1.4028464
   155   6 C      156   6 C                                       1.4299369
   153   5 B      158   6 C                                       1.5070848
   157   6 C      158   6 C                                       1.4012253
   156   6 C      159   6 C                                       1.3828834
   159   6 C      160   5 B                                       1.5308948
   161   6 C      162   6 C                                       1.4012518
   160   5 B      163   6 C                                       1.5448815 (max)
   163   6 C      164   6 C                                       1.3744740
   161   6 C      166   6 C                                       1.4195869
   165   6 C      166   6 C                                       1.4103912
   164   6 C      167   6 C                                       1.4077372
   166   6 C      167   6 C                                       1.4158467
   167   6 C      168   6 C                                       1.4040591
   165   6 C      169   6 C                                       1.3884858
   168   6 C      170   6 C                                       1.3723908
   169   6 C      170   6 C                                       1.3910428
     1   6 C      171   1 H                                       1.0804639
     2   6 C      172   1 H                                       1.0806039
     3   6 C      173   1 H                                       1.0782197
     5   5 B      174   1 H                                       1.1715063
     9   6 C      175   1 H                                       1.0819705
    13   6 C      176   1 H                                       1.0857090
    17   6 C      177   1 H                                       1.0845610
    21   5 B      178   1 H                                       1.1717870
    25   6 C      179   1 H                                       1.0810574
    29   6 C      180   1 H                                       1.0803726
    36   6 C      181   1 H                                       1.0797333
    37   6 C      182   1 H                                       1.0828736
    70   6 C      183   1 H                                       1.0784474
    71   6 C      184   1 H                                       1.0784852
   104   6 C      185   1 H                                       1.0829399
   105   6 C      186   1 H                                       1.0799984
   138   6 C      187   1 H                                       1.0782669
   139   6 C      188   1 H                                       1.0802217
   140   6 C      189   1 H                                       1.0803515
   144   6 C      190   1 H                                       1.0812791
   148   5 B      191   1 H                                       1.1707073
   152   6 C      192   1 H                                       1.0818373
   156   6 C      193   1 H                                       1.0836210
   160   5 B      194   1 H                                       1.1716482
   164   6 C      195   1 H                                       1.0811636
   168   6 C      196   1 H                                       1.0802807
   170   6 C      197   1 H                                       1.0801733
    33   6 C      198   1 H                                       1.0802190
    34   6 C      199   1 H                                       1.0772278 (min)
    67   5 B      200   1 H                                       1.1712740
    68   6 C      201   1 H                                       1.0818909
   101   6 C      202   1 H                                       1.0840931
   102   6 C      203   1 H                                       1.0791923
   135   5 B      204   1 H                                       1.1710138
   136   6 C      205   1 H                                       1.0816584
   169   6 C      206   1 H                                       1.0791137

 * 4 distinct bonds (by element types)

   Z      Z             #   av. dist./Å        max./Å        min./Å
   1 H    5 B           6     1.1713228     1.1717870     1.1707073
   1 H    6 C          30     1.0808675     1.0857090     1.0772278
   5 B    6 C          30     1.5145675     1.5448815     1.4915214
   6 C    6 C         182     1.4112238     1.4347973     1.3562388


optimized geometry written to: xtbopt.xyz


           -------------------------------------------------
          | TOTAL ENERGY             -372.454220760754 Eh   |
          | GRADIENT NORM               0.000345124007 Eh/α |
          | HOMO-LUMO GAP               0.027324804107 eV   |
           -------------------------------------------------

------------------------------------------------------------------------
 * finished run on 2025/12/08 at 00:37:30.003     
------------------------------------------------------------------------
 total:
 * wall-time:     0 d,  0 h,  1 min, 46.097 sec
 *  cpu-time:     0 d,  0 h,  6 min, 55.469 sec
 * ratio c/w:     3.916 speedup
 SCF:
 * wall-time:     0 d,  0 h,  0 min,  9.346 sec
 *  cpu-time:     0 d,  0 h,  0 min, 36.859 sec
 * ratio c/w:     3.944 speedup
 ANC optimizer:
 * wall-time:     0 d,  0 h,  1 min, 36.579 sec
 *  cpu-time:     0 d,  0 h,  6 min, 18.062 sec
 * ratio c/w:     3.915 speedup

normal termination of xtb
