206
 energy: -372.424120951225 gnorm: 0.095835397687 xtb: 6.7.1pre (5071a88)
C            9.94498700000000        8.73270800000000       -1.15940300000000
C            9.24894700000000        9.94470400000000       -1.08477700000000
C            7.88193900000000        9.92323200000000       -0.87986500000000
C            7.15989600000000        8.71006000000000       -0.74520800000000
B           10.08165000000000        6.19565800000000       -1.11129900000000
C            9.29293700000000        7.50211300000000       -1.03582100000000
C            7.87340900000000        7.46915100000000       -0.82861000000000
C            7.17136000000000        6.20441100000000       -0.70464200000000
C            9.93794800000000        3.66687900000000       -0.97818200000000
C            9.29511200000000        4.90178300000000       -0.95295800000000
C            7.86992100000000        4.95041400000000       -0.76302000000000
C            7.13801700000000        3.73303000000000       -0.62299200000000
C            9.99867600000000        1.22542700000000       -0.82609900000000
C            9.26271800000000        2.44276200000000       -0.82168100000000
C            7.82429400000000        2.48280800000000       -0.64733300000000
C            7.10971500000000        1.27420200000000       -0.49157200000000
C           10.01631300000000       -1.26962900000000       -0.60240100000000
C            9.37200300000000       -0.00997300000000       -0.65251300000000
B            7.86923000000000       -0.01548300000000       -0.48104400000000
C            7.12941100000000       -1.31508400000000       -0.26961900000000
B           10.11229100000000       -3.76170000000000       -0.27399000000000
C            9.32720100000000       -2.47139300000000       -0.37788600000000
C            7.88011800000000       -2.51489800000000       -0.20261400000000
C            7.18796700000000       -3.75326000000000        0.05457300000000
C            9.98982600000000       -6.22588900000000        0.28203800000000
C            9.32497300000000       -5.03280100000000        0.07315100000000
C            7.89228900000000       -4.98750200000000        0.21729000000000
C            7.17217600000000       -6.18501600000000        0.54350100000000
C           10.02474100000000       -8.60025700000000        0.90697000000000
C            9.31600700000000       -7.41406700000000        0.65628700000000
C            7.89588100000000       -7.38418600000000        0.78378200000000
C            7.20383400000000       -8.56791800000000        1.17142900000000
C            9.35089700000000       -9.75917000000000        1.29585800000000
C            7.97238500000000       -9.74058000000000        1.42999500000000
C            5.73228800000000        8.69077800000000       -0.52936200000000
C            4.95715600000000        9.91069500000000       -0.40772600000000
C            3.59867400000000        9.95965200000000       -0.20444700000000
C            2.81636000000000        8.76487900000000       -0.10367400000000
C            5.76080600000000        6.20769400000000       -0.51666300000000
C            5.06822300000000        7.45692700000000       -0.43148800000000
B            3.57538900000000        7.45962100000000       -0.22715100000000
C            2.83325600000000        6.16337000000000       -0.14518100000000
C            5.71368900000000        3.73595100000000       -0.45086800000000
C            5.01259500000000        4.97295200000000       -0.40246500000000
C            3.57392200000000        4.95789200000000       -0.23439400000000
C            2.86774700000000        3.71131200000000       -0.15184200000000
C            5.70708500000000        1.25560500000000       -0.33265600000000
C            5.00313800000000        2.49116900000000       -0.32312700000000
C            3.58947000000000        2.48311700000000       -0.18825900000000
C            2.88563400000000        1.24805500000000       -0.09352900000000
C            5.72453000000000       -1.28598200000000       -0.13426800000000
C            5.00180200000000       -0.01655300000000       -0.18104600000000
C            3.59828100000000       -0.01664400000000       -0.07963100000000
C            2.88967500000000       -1.29068800000000        0.02997400000000
C            5.76227200000000       -3.73994500000000        0.16501800000000
C            5.02923800000000       -2.52136500000000        0.05099500000000
C            3.60677100000000       -2.52623300000000        0.11308000000000
C            2.88980600000000       -3.74987100000000        0.25187300000000
C            5.74639600000000       -6.18427500000000        0.62054900000000
C            5.04303000000000       -4.96328600000000        0.40100300000000
C            3.62309100000000       -4.97240200000000        0.42218100000000
C            2.90523800000000       -6.20787000000000        0.61012100000000
C            5.78064100000000       -8.57261600000000        1.26184400000000
C            5.04071500000000       -7.40324000000000        0.92563300000000
C            3.59237700000000       -7.41891100000000        0.87870600000000
C            2.84940600000000       -8.69277100000000        1.10628600000000
B            5.01594600000000       -9.83415600000000        1.73268900000000
C            3.51158000000000       -9.81064500000000        1.55394300000000
C            1.41816900000000        8.70857100000000        0.10527900000000
C            0.66783600000000        9.90700100000000        0.28384400000000
C           -0.67750400000000        9.89274100000000        0.48450000000000
C           -1.42459500000000        8.68058900000000        0.50596900000000
C            1.41761200000000        6.18039100000000        0.01621100000000
C            0.70544000000000        7.43450300000000        0.14676500000000
C           -0.70807700000000        7.41485800000000        0.31879500000000
C           -1.41579100000000        6.14909600000000        0.30210000000000
C            1.44132800000000        3.72187600000000       -0.03180700000000
C            0.71092900000000        4.95039800000000        0.05075800000000
C           -0.70875200000000        4.92960000000000        0.16858600000000
C           -1.43240000000000        3.67756600000000        0.15478000000000
C            1.47766700000000        1.28240600000000       -0.01625100000000
C            0.74169300000000        2.48478400000000        0.01037100000000
C           -0.71632400000000        2.45813600000000        0.07829200000000
C           -1.45345500000000        1.21910100000000        0.06950100000000
C            1.48757000000000       -1.31906800000000        0.05338000000000
B            0.73258100000000       -0.02001300000000        0.02870800000000
C           -0.77351300000000       -0.02541500000000        0.04861900000000
C           -1.44271200000000       -1.26380600000000        0.03060100000000
C            1.44923200000000       -3.75068800000000        0.22302800000000
C            0.75051900000000       -2.52869000000000        0.11339700000000
C           -0.70010300000000       -2.51077000000000        0.06580300000000
C           -1.40467100000000       -3.74093700000000        0.05537000000000
C            1.45830300000000       -6.18082900000000        0.51554200000000
C            0.73456200000000       -4.98302700000000        0.30624400000000
C           -0.70550600000000       -4.98099000000000        0.18149400000000
C           -1.46374800000000       -6.20590900000000        0.19536300000000
C            1.40448000000000       -8.73502400000000        0.89268900000000
B            0.68768600000000       -7.44710100000000        0.61761700000000
C           -0.79797400000000       -7.42906200000000        0.41826100000000
C           -1.50634000000000       -8.65367000000000        0.45982600000000
C            0.61662600000000       -9.90240100000000        0.92317500000000
C           -0.76046600000000       -9.85342500000000        0.71894700000000
C           -2.82794600000000        8.70912900000000        0.69199600000000
C           -3.60807800000000        9.88463600000000        0.91866400000000
C           -4.97872500000000        9.82642800000000        1.04290800000000
C           -5.74860300000000        8.61296700000000        0.94818300000000
C           -2.84357700000000        6.11420100000000        0.41661800000000
B           -3.58165400000000        7.40622100000000        0.61936600000000
C           -5.07719000000000        7.39230200000000        0.73907900000000
C           -5.76404200000000        6.14578800000000        0.61282800000000
C           -2.87575500000000        3.66816000000000        0.22016800000000
C           -3.57984800000000        4.91179200000000        0.35466900000000
C           -5.03824700000000        4.92310300000000        0.42684500000000
C           -5.76439100000000        3.69832500000000        0.29759100000000
C           -2.87548200000000        1.22177400000000        0.07997900000000
C           -3.59661900000000        2.44790500000000        0.15653200000000
C           -5.04213600000000        2.44558600000000        0.16261000000000
C           -5.73592400000000        1.22325800000000        0.03167500000000
C           -2.87058400000000       -1.27146400000000       -0.02271100000000
C           -3.56776700000000       -0.02416500000000        0.00651800000000
C           -4.99479300000000       -0.03015800000000       -0.05143100000000
C           -5.65895300000000       -1.26524800000000       -0.19809900000000
C           -2.84849500000000       -3.74521800000000       -0.07810600000000
C           -3.56529800000000       -2.51813900000000       -0.11720200000000
C           -4.98107200000000       -2.51162800000000       -0.24216000000000
C           -5.71601900000000       -3.74402300000000       -0.41569400000000
C           -2.87918100000000       -6.20718600000000       -0.02220200000000
C           -3.57512000000000       -4.96592100000000       -0.16854200000000
C           -4.99745700000000       -4.96566400000000       -0.37954600000000
C           -5.68207300000000       -6.23492800000000       -0.56211100000000
C           -2.91236300000000       -8.68469600000000        0.21079700000000
C           -3.58350300000000       -7.45754000000000       -0.07186600000000
C           -4.99238900000000       -7.45238500000000       -0.42528700000000
C           -5.71274500000000       -8.71920400000000       -0.60414600000000
B           -3.72253700000000       -9.99909300000000        0.23755100000000
C           -5.14448100000000       -9.91952400000000       -0.23072300000000
C           -7.19644500000000        8.61662700000000        1.04742500000000
C           -7.94482000000000        9.78502000000000        1.28505000000000
C           -9.33817200000000        9.77093000000000        1.34938500000000
C          -10.02304100000000        8.57856500000000        1.16835600000000
C           -7.18884300000000        6.14015700000000        0.66381000000000
C           -7.89045100000000        7.37821500000000        0.88215400000000
C           -9.31695900000000        7.38238900000000        0.93441800000000
C          -10.00704600000000        6.15899800000000        0.73084100000000
C           -7.19649400000000        3.70141700000000        0.30356600000000
C           -7.91074600000000        4.93145800000000        0.49054200000000
C           -9.35592900000000        4.96428600000000        0.50717800000000
B          -10.15312500000000        3.68932700000000        0.26202000000000
C           -7.18266800000000        1.24310900000000       -0.02558000000000
C           -7.90733000000000        2.45782300000000        0.11113500000000
C           -9.34557900000000        2.41235300000000        0.05014800000000
C          -10.00882700000000        1.20768300000000       -0.18413600000000
B           -7.15083000000000       -1.26989900000000       -0.32571900000000
C           -7.89549900000000        0.03723300000000       -0.22918200000000
C           -9.30324800000000        0.00203400000000       -0.33665100000000
C           -9.96850700000000       -1.25242600000000       -0.60247700000000
C           -7.16696700000000       -3.75738300000000       -0.61427000000000
C           -7.89952800000000       -2.56040500000000       -0.56093000000000
C           -9.33809600000000       -2.48113500000000       -0.72959500000000
B          -10.09687100000000       -3.75578400000000       -1.07694500000000
C           -7.10009500000000       -6.22365400000000       -0.87357500000000
C           -7.83069900000000       -5.02182200000000       -0.88284200000000
C           -9.24957900000000       -5.03531000000000       -1.17033900000000
C           -9.85122700000000       -6.22491500000000       -1.53092800000000
C           -7.07088700000000       -8.68187900000000       -1.14825600000000
C           -7.76586300000000       -7.44847800000000       -1.19798000000000
C           -9.13912600000000       -7.44509100000000       -1.58810200000000
C           -9.76617200000000       -8.64164000000000       -1.99952300000000
C           -7.71569600000000       -9.83845800000000       -1.60625500000000
C           -9.04904900000000       -9.82290900000000       -2.03414300000000
H           11.02067000000000        8.73974500000000       -1.31723100000000
H            9.77049500000000       10.89197300000000       -1.18502800000000
H            7.35699600000000       10.86919400000000       -0.82570200000000
H           11.26966700000000        6.18987400000000       -1.28136500000000
H           11.01695300000000        3.64679800000000       -1.11866600000000
H           11.07956400000000        1.29811100000000       -0.95901200000000
H           11.09872600000000       -1.33530000000000       -0.72591800000000
H           11.30058900000000       -3.80408400000000       -0.42604200000000
H           11.07102300000000       -6.25670500000000        0.17174600000000
H           11.10570200000000       -8.60171300000000        0.80006200000000
H            5.47323700000000       10.86125400000000       -0.47471000000000
H            3.14962500000000       10.94756600000000       -0.13173200000000
H            1.18438900000000       10.85943900000000        0.26687200000000
H           -1.19698100000000       10.83377000000000        0.61846800000000
H           -3.15136200000000       10.86785900000000        1.00514100000000
H           -5.49805600000000       10.76294800000000        1.21047600000000
H           -7.43783100000000       10.73203200000000        1.42480500000000
H           -9.87895300000000       10.69356400000000        1.53504900000000
H          -11.10855100000000        8.55127800000000        1.20436800000000
H          -11.09444000000000        6.17332700000000        0.74842600000000
H          -11.35103300000000        3.69020900000000        0.24109300000000
H          -11.09547300000000        1.21092400000000       -0.24095600000000
H          -11.05081700000000       -1.21554200000000       -0.71863200000000
H          -11.27911700000000       -3.78592600000000       -1.27531700000000
H          -10.91100700000000       -6.23157100000000       -1.77497400000000
H          -10.81010200000000       -8.61297800000000       -2.29878300000000
H           -9.51266600000000      -10.74109300000000       -2.38075500000000
H            9.90316400000000      -10.67182900000000        1.49361400000000
H            7.46383500000000      -10.64607800000000        1.73055400000000
H            5.55316600000000      -10.78692200000000        2.20573600000000
H            2.91239500000000      -10.69076400000000        1.76991300000000
H            1.04939500000000      -10.88715600000000        1.08678000000000
H           -1.30080400000000      -10.79077500000000        0.74763800000000
H           -3.25846700000000      -11.04223400000000        0.59123200000000
H           -5.76784300000000      -10.80724900000000       -0.28757000000000
H           -7.17516900000000      -10.77653600000000       -1.64717500000000
206
 energy: -372.440895479247 gnorm: 0.043102408744 xtb: 6.7.1pre (5071a88)
C            9.92403899801743        8.72146359381645       -1.15591308270071
C            9.23293781457313        9.92557855969655       -1.08220961245931
C            7.87348980678555        9.90500298597456       -0.87872838615854
C            7.15410964126227        8.69826253361670       -0.74405152800765
B           10.07151659376843        6.18874839936134       -1.11035650432562
C            9.27507341194786        7.49582113951848       -1.03281781626912
C            7.86195175918938        7.46179444436373       -0.82633283421487
C            7.16402708070945        6.19994591216116       -0.70323656774975
C            9.90987059580452        3.65858021692257       -0.97385135831231
C            9.27364945395062        4.89326900747375       -0.94897537258393
C            7.85633776081029        4.94652089867222       -0.76028903753131
C            7.12488820355641        3.73333184502554       -0.62051255520794
C            9.97659669248226        1.22257957585744       -0.82243927093440
C            9.23805889437009        2.43802865441456       -0.81751301296266
C            7.80695062135393        2.48619440565374       -0.64474531532488
C            7.09062320518635        1.28015072767117       -0.48912451350838
C            9.99581629298622       -1.26804783038212       -0.59920413682280
C            9.35845053499900       -0.00852237458011       -0.64938832093727
B            7.85279067400649       -0.01749833689377       -0.47891955392365
C            7.11447571460874       -1.32144930254538       -0.26613159968517
B           10.09866997790785       -3.75909096599050       -0.27489219325098
C            9.30786540194752       -2.46215691762603       -0.37429762390128
C            7.86447177303933       -2.51486246379307       -0.19922790964342
C            7.17786323183721       -3.75210340937601        0.05662096868088
C            9.96783828138430       -6.22062816377920        0.28350357041599
C            9.30600966172305       -5.03150690981614        0.07759849459509
C            7.87749754201174       -4.98543328198058        0.22040657112688
C            7.16123968655568       -6.17761558100012        0.54299701543488
C           10.00898554633202       -8.58861948742619        0.90571536766813
C            9.29961096042882       -7.40678555750614        0.65673373685049
C            7.88321958010672       -7.37635567067893        0.78215750110993
C            7.19460882404301       -8.55813073946222        1.16579471341394
C            9.33774894523867       -9.73713455589469        1.29086679531876
C            7.96396364783144       -9.71976409081860        1.42076549371955
C            5.73127959703891        8.67727491700670       -0.52865719947504
C            4.95062884562314        9.88248439626900       -0.40655973549441
C            3.59619553031920        9.93578965622183       -0.20509129649543
C            2.81011320220955        8.75469853595677       -0.10353351212935
C            5.75787565226040        6.19990465335495       -0.51641037458425
C            5.07195743995675        7.44656426308875       -0.43143247432401
B            3.57285040374367        7.44921990637774       -0.22660172141988
C            2.82311458964120        6.14818179710632       -0.14425151181179
C            5.70367043238816        3.73468933119181       -0.44940780561828
C            5.00354892656493        4.96965174460814       -0.40107263396124
C            3.56785916267481        4.94779975337765       -0.23425628367221
C            2.86239623603405        3.70765205434586       -0.15128080093599
C            5.69321499137638        1.25533726719395       -0.33014247129721
C            4.99481895971958        2.49275567220180       -0.32196903223066
C            3.58432453646916        2.48298802695575       -0.18744068413459
C            2.88484794680713        1.24771598451838       -0.09302966201438
C            5.71145409566646       -1.28642740229931       -0.13105840580747
C            4.99566430051085       -0.01821381339548       -0.17965306954986
C            3.59420679496730       -0.01843496851495       -0.07912737424997
C            2.89065879850624       -1.29042835060188        0.02962366132015
C            5.75543119979388       -3.73828159492305        0.16627412883029
C            5.02264844574741       -2.51983229424787        0.05205248734922
C            3.60269532800000       -2.52380211598108        0.11271952896813
C            2.88504610492976       -3.74517465244893        0.25068728940598
C            5.73629851719144       -6.17835603165008        0.61816059277094
C            5.03677005149748       -4.95879291588195        0.39994874840570
C            3.61662802836144       -4.96407721650460        0.42084552874629
C            2.90251880562897       -6.19320868369134        0.60549405428134
C            5.77052055856123       -8.56376372781677        1.25714922100608
C            5.03106367028824       -7.39545731857710        0.92025287700325
C            3.58684592883271       -7.40830896682655        0.87211350700250
C            2.85106893288385       -8.67453939295759        1.09666796217372
B            5.01421630918305       -9.82269915484278        1.73600920589789
C            3.51477488238612       -9.78900006322326        1.54872163699360
C            1.41345441976218        8.69497125406249        0.10510100884563
C            0.66671749041937        9.88654356075792        0.28249123776111
C           -0.67463387836104        9.87161634295661        0.48175402900998
C           -1.41902619957999        8.66663449465695        0.50422997013361
C            1.41221176463510        6.17170208110705        0.01643604593735
C            0.70240865430694        7.42634701748993        0.14615534830145
C           -0.70745293396734        7.40671674691435        0.31818487413055
C           -1.41358957481298        6.14038539392984        0.30023071114394
C            1.43883881096460        3.71979864067290       -0.03162678542731
C            0.70764763838785        4.94263018349281        0.05099152776412
C           -0.70963353184728        4.92020380669905        0.16716727711816
C           -1.43167033239802        3.67324660270668        0.15341430096652
C            1.47856134820767        1.28645424744785       -0.01675832813814
C            0.73806071657688        2.48652805551700        0.00928262461260
C           -0.71428945931099        2.45510624287905        0.07718513077516
C           -1.45418553541724        1.21958159347476        0.06874553374162
C            1.48765417842903       -1.32094446706777        0.05258621791208
B            0.72969956357949       -0.02002991094356        0.02840824376340
C           -0.77979913944034       -0.02567301109666        0.04853765847722
C           -1.44501611200335       -1.26546511235168        0.03136384784164
C            1.44889422263193       -3.74455265045452        0.22001741744447
C            0.74656977667788       -2.52534055111812        0.11156049982799
C           -0.70015416612961       -2.50626639517317        0.06536486264254
C           -1.40388395458369       -3.73745365963104        0.05496691941676
C            1.46484910131420       -6.16061956141857        0.51196088457680
C            0.73415651004068       -4.97102734504539        0.30257962341805
C           -0.70475829139709       -4.97308442592351        0.18087490716969
C           -1.46730303764290       -6.19321544178041        0.19173620469729
C            1.41387660853870       -8.72307364279227        0.88890785183056
B            0.69037838382661       -7.43253249886517        0.61610648693496
C           -0.80309994540405       -7.41457356244437        0.41453730486461
C           -1.50576061454606       -8.63813308808849        0.45596224785142
C            0.61904943393827       -9.88097066058805        0.91750103051156
C           -0.74948412343034       -9.82722722586951        0.71500291047180
C           -2.82008147353910        8.70040732564871        0.69013747049600
C           -3.60439735470928        9.86255175313546        0.91514807355155
C           -4.97079490802820        9.79837659316416        1.03702044252891
C           -5.74693701098031        8.59832899145923        0.94464061832556
C           -2.83504835070120        6.09895640655215        0.41268492124176
B           -3.57799681314350        7.39468102115933        0.61686823105533
C           -5.08086447710409        7.38112703631371        0.73674822805747
C           -5.75908986629506        6.13571728893867        0.61114990386173
C           -2.87098195842654        3.66312587724447        0.21908758401326
C           -3.57427674222389        4.90031141108229        0.35263477637506
C           -5.02948674015752        4.91680272214967        0.42479635335530
C           -5.75477016088428        3.69443763219717        0.29686918999728
C           -2.87446096112900        1.22080465628005        0.07958541859971
C           -3.59423662936292        2.44565502805941        0.15566573983481
C           -5.03476904689928        2.44471455199152        0.16224379087315
C           -5.72608641805085        1.22197829804031        0.03212423720683
C           -2.86941457007200       -1.27206829925758       -0.02212617034685
C           -3.56328079458654       -0.02482470214630        0.00693827735287
C           -4.98601158534229       -0.02825637442053       -0.04977549119415
C           -5.64489903107373       -1.26449325167752       -0.19656332309363
C           -2.84453363900272       -3.74449650204330       -0.07801594975618
C           -3.56039443679698       -2.51811030884812       -0.11655517242293
C           -4.97407411030420       -2.51293980693327       -0.24289141156234
C           -5.71182709005230       -3.74136398737697       -0.41537416024803
C           -2.87934181643002       -6.19973142668461       -0.02393501005821
C           -3.57391294099495       -4.96148689444763       -0.16889237811469
C           -4.99366065946736       -4.96153781386755       -0.37997141162553
C           -5.67297970312537       -6.22602495977381       -0.56129446546332
C           -2.90750872279729       -8.67076378674846        0.20708724119773
C           -3.57964324793189       -7.44769586278163       -0.07435415880366
C           -4.98504461981011       -7.44232537318330       -0.42398893800321
C           -5.70319040497620       -8.70057293678149       -0.60970103618188
B           -3.71677039898022       -9.98699881992263        0.24335745764208
C           -5.14245269981448       -9.89431144249564       -0.22955246577602
C           -7.18921814839459        8.60529665594700        1.04484504364260
C           -7.93681946179064        9.76681384607184        1.28173081789951
C           -9.32277268326521        9.75183445090527        1.34546627109713
C          -10.00308719314784        8.56663469620582        1.16555084923342
C           -7.18064607098125        6.13459076292993        0.66257664726983
C           -7.87742336617506        7.36960495393547        0.88006401495150
C           -9.29802227414159        7.37512813006596        0.93266100352829
C           -9.98347631416993        6.15554187990406        0.73029023862551
C           -7.18484188250930        3.69958556923164        0.30283505209923
C           -7.89761624589674        4.92711046584446        0.48946313238403
C           -9.33729882971328        4.96281871007554        0.50703164517774
B          -10.14279531700881        3.68558167508087        0.26123520582713
C           -7.16892194145589        1.24685533087936       -0.02488258233744
C           -7.89170680438859        2.45869073183130        0.11118863928549
C           -9.32537002453695        2.41060171644049        0.05014667306355
C           -9.98384475320779        1.20838049981715       -0.18364370863124
B           -7.14210909483348       -1.26932295849537       -0.32441337924075
C           -7.88121599388911        0.04350321930104       -0.22820897220342
C           -9.28330829054885        0.00512832058494       -0.33558116680686
C           -9.94011271512589       -1.24622992246171       -0.59868421520559
C           -7.15695082113185       -3.75897384274536       -0.61495806786655
C           -7.88872029777236       -2.56324785338943       -0.56067976863777
C           -9.32038699842974       -2.47662440272995       -0.72656828082685
B          -10.08571599703313       -3.75367669592468       -1.07327804299019
C           -7.08651849704405       -6.21735546629978       -0.87021951913280
C           -7.81620295379989       -5.01787729943323       -0.88042572960314
C           -9.22961528386323       -5.03325360988821       -1.16630363869706
C           -9.82693838950146       -6.22053135184209       -1.52547874496427
C           -7.05974738758865       -8.66988043305959       -1.14516125359142
C           -7.75061590834825       -7.43895332233867       -1.19340745927133
C           -9.11844001507230       -7.43700992359213       -1.58236588487672
C           -9.74447618531447       -8.62919462019159       -1.99140902278145
C           -7.70491384205291       -9.82032356657326       -1.60155872858918
C           -9.03129092509027       -9.80333006914425       -2.02715797405735
H           10.99581563707422        8.73113873709199       -1.31350164649890
H            9.75568624326963       10.86895943084816       -1.18243841404753
H            7.35437990047997       10.85064399949152       -0.82523144673507
H           11.24278562119035        6.18552912509309       -1.27788417965993
H           10.98579933380108        3.64064523320102       -1.11436234151975
H           11.05437000360235        1.29696394974460       -0.95522069144580