206
 energy: -372.454220760754 gnorm: 0.000345124007 xtb: 6.7.1pre (5071a88)
C            9.85417815183329        8.66956854763731       -1.27756761347476
C            9.16160277829557        9.87107857524231       -1.23995063726372
C            7.80588247241467        9.85542425512183       -1.02832427561619
C            7.09789200083924        8.65450025509189       -0.85047128411235
B           10.01696601472565        6.14705515785328       -1.15652186548225
C            9.21079500971216        7.44986551626270       -1.11277753160908
C            7.80451791803622        7.42141318323491       -0.89898403815005
C            7.11417635600668        6.16842808055218       -0.73903250007504
C            9.85009382189977        3.62568476286335       -0.96593361700540
C            9.21444749783012        4.85953257503267       -0.96006485924427
C            7.80768405198117        4.91908842211626       -0.76910280886200
C            7.08003564073604        3.71324775190517       -0.60310317112257
C            9.92128361754064        1.19991719055862       -0.79939986454061
C            9.17945496200396        2.41546273721969       -0.79120048668128
C            7.76007793557586        2.47224777725842       -0.61096639430983
C            7.04468627096903        1.27172927774631       -0.43823796895924
C            9.93740246247389       -1.28913296638976       -0.61019917737552
C            9.30923645647100       -0.02204247892031       -0.62525678013052
B            7.80762467162094       -0.02515572941684       -0.43317080767506
C            7.07070221483489       -1.32388038184606       -0.22728004098431
B           10.02312225221417       -3.78524924124653       -0.37768397965352
C            9.24616449453990       -2.47175121950683       -0.40034047621912
C            7.80951285110180       -2.51524330772553       -0.19064719159780
C            7.12448044271888       -3.74402375601613        0.06050299010063
C            9.86699572270041       -6.25957954257818        0.11401536140323
C            9.22473730470264       -5.05309277614872       -0.02292621527524
C            7.81089394408333       -4.98514508667159        0.18688729907852
C            7.09610082820113       -6.15908670985514        0.52977942844054
C            9.87575408839029       -8.65071160991209        0.66187781391168
C            9.19443685632446       -7.43859188025909        0.49403353336949
C            7.79791498083902       -7.37383935786053        0.71730137010903
C            7.10826550995986       -8.53349595144708        1.14849127565211
C            9.19303505385458       -9.78395303228764        1.05542559185357
C            7.83438469143937       -9.72596398922107        1.29993404338481
C            5.68198776736561        8.63879166053919       -0.62355510896015
C            4.90320504021113        9.83518734791427       -0.53334537732181
C            3.55046264509145        9.89537772408983       -0.32436163252009
C            2.77632071567004        8.72479751838630       -0.17653873924977
C            5.71545609374452        6.16981216458059       -0.54662998889190
C            5.03201915143925        7.41116620679239       -0.48687516634966
B            3.53865611836757        7.42068394375437       -0.27028433942199
C            2.79425766337156        6.12223621474039       -0.15894681778142
C            5.66551151142001        3.71646440686260       -0.43029581061556
C            4.96486247514765        4.94693905135394       -0.40299245074058
C            3.54117693685407        4.92543380721609       -0.23375096285340
C            2.84123802766811        3.69443708111723       -0.13364663604724
C            5.65681236945401        1.24753699063228       -0.27941923830708
C            4.96278814561574        2.48440270325588       -0.28553807519049
C            3.56007895209607        2.47596328282204       -0.15395186399166
C            2.86550840181606        1.24635432762347       -0.04921292652677
C            5.67126071418599       -1.27746660683093       -0.07990578006430
C            4.96522820851764       -0.01725880587208       -0.12409186374165
C            3.56891771591145       -0.01436668411849       -0.02553929498998
C            2.87226104420590       -1.27372418716894        0.08483401200485
C            5.71305062601445       -3.71984440209222        0.19967817806603
C            4.98704109078703       -2.50151436037966        0.10167232618395
C            3.57464767717346       -2.50048451840036        0.16947861920432
C            2.85645093605651       -3.71350602397488        0.30999866315559
C            5.67968539229222       -6.14449977367609        0.65471483641764
C            4.99383998206949       -4.92754517739530        0.44391754660047
C            3.57927316828932       -4.92593892397127        0.48384253833427
C            2.86809020237916       -6.13946347503731        0.68719615267288
C            5.70567544794082       -8.49175069675276        1.38347713192757
C            4.97352101168424       -7.33770766182519        1.01004768837676
C            3.54312156491177       -7.35087205252417        0.98538375923016
C            2.82233880748797       -8.60203222382320        1.24435426723259
B            4.96671353098299       -9.64441439141509        2.08448747842877
C            3.48294589472573       -9.67240216617031        1.80561213045395
C            1.38533301927634        8.66513015395868        0.06133739468120
C            0.64683551664298        9.85379941184859        0.23802809977140
C           -0.68475868722832        9.83326130509766        0.49457886412061
C           -1.40855930043094        8.62575023643134        0.56487561602911
C            1.39575223572170        6.15102689373515        0.00649381230144
C            0.68888626203650        7.40263268738742        0.13440764676421
C           -0.70901928023559        7.37978944528305        0.34081552173431
C           -1.41025197628008        6.11612596189460        0.31717432782768
C            1.42573619897433        3.70990291289886       -0.01820512798196
C            0.69770625653376        4.92431209492193        0.05384989010349
C           -0.71119205966761        4.89919844434758        0.17031929506539
C           -1.42683389204545        3.66278890979561        0.15382701150639
C            1.46853747678663        1.28892789594594        0.02074236621745
C            0.72702667154759        2.48370931801127        0.02996408981642
C           -0.70953131550644        2.44904762380199        0.08672177515310
C           -1.44771790096779        1.22280056679338        0.08299471183926
C            1.47339479120181       -1.30334630009897        0.10369069838713
B            0.72094866442365       -0.01008318967647        0.07179842784343
C           -0.77973047333386       -0.01551855898475        0.08110068288847
C           -1.44074421191768       -1.25065213671305        0.06860432389001
C            1.43360215952628       -3.71207760300917        0.28115881385210
C            0.73369099691886       -2.49676439867455        0.16502702454162
C           -0.69935175314555       -2.47778014067187        0.11491590978422
C           -1.39779201283321       -3.70625168265577        0.11069956894254
C            1.44821070967643       -6.11156320981984        0.59396725293942
C            0.72198473163081       -4.92960528309845        0.37511532004170
C           -0.70482612070414       -4.93308320701509        0.25450716908400
C           -1.46080405776244       -6.14563308457901        0.28660793079112
C            1.40567174241869       -8.67316186645877        1.00340648440756
B            0.68396802958265       -7.38772162846525        0.70345970580450
C           -0.80608584514924       -7.36533014985299        0.51854258545488
C           -1.51206567231352       -8.57787513592589        0.61778329355074
C            0.60665558317600       -9.82838312423414        1.04293517389087
C           -0.75710523090411       -9.76911276831507        0.85645251279065
C           -2.79697470683248        8.65094617541402        0.82488320606855
C           -3.56607986300499        9.78432943598361        1.15310884965829
C           -4.93004506571513        9.70636200991640        1.30031112480640
C           -5.70762607647626        8.52598847798408        1.14065199424432
C           -2.81726825634846        6.06948809363083        0.43533653131069
B           -3.55448745465933        7.35162589067819        0.70114302092046
C           -5.05123260117455        7.32583661711244        0.84878314108407
C           -5.72422293802778        6.09474212618182        0.66167598747830
C           -2.85535032047267        3.65050064171573        0.21320626140913
C           -3.55538455309985        4.87500686209030        0.35793215844151
C           -4.99815076377018        4.89045494570188        0.42822471990995
C           -5.72160784904426        3.67995052087373        0.25826560293221
C           -2.86067425122786        1.22198981524501        0.07949299636784
C           -3.57796608939840        2.43908789928914        0.14201609356156
C           -5.00631160183332        2.44024176385903        0.12557008949626
C           -5.69497961472985        1.22209319930830       -0.01921292038393
C           -2.85583626703034       -1.25630859416198       -0.00051849446142
C           -3.54518653551171       -0.01619005734235        0.00865603876566
C           -4.95905721895966       -0.01792352579913       -0.07298165493484
C           -5.61084136256916       -1.25030141318208       -0.22332943990428
C           -2.82426621780682       -3.71346926919307       -0.03551541651783
C           -3.53919824513342       -2.49515770237615       -0.09616173866562
C           -4.94301475917144       -2.49203585670504       -0.24949614607188
C           -5.67158185118479       -3.71183355798643       -0.43511920805018
C           -2.86150107896148       -6.15277666861577        0.06686858161369
C           -3.54814343152934       -4.92372934316316       -0.11819618575985
C           -4.95263611163451       -4.92425394654550       -0.36195569475597
C           -5.61376215136158       -6.18131741791106       -0.54427628971718
C           -2.91442693743802       -8.59854399300304        0.43291464207135
C           -3.56101722193925       -7.39088747140803        0.06456020694543
C           -4.93935661586794       -7.39012873202174       -0.33344887640990
C           -5.63770282256192       -8.64517979066839       -0.51524431669023
B           -3.77448022796709       -9.86028886016478        0.65699289804955
C           -5.13821412013891       -9.80790666552081        0.00631959114810
C           -7.14309322623340        8.52313294374984        1.25484124713735
C           -7.88461516662748        9.65640228602653        1.59079001612097
C           -9.26893083853225        9.63680652842806        1.64295385501016
C           -9.94975635825179        8.47879138616363        1.34801960759779
C           -7.14164527637243        6.09405030581272        0.69756263197447
C           -7.83024398066674        7.30832580243597        0.98947530724270
C           -9.24683707456138        7.31203194699496        1.02135446484870
C           -9.93137543508564        6.12299751173486        0.69635490319428
C           -7.14504230935224        3.68943146319759        0.22352155428374
C           -7.85592137715176        4.90577521878271        0.43608430384972
C           -9.28799294319774        4.94822975451390        0.40054996877414
B          -10.09155060866720        3.69809788828368        0.02939746587770
C           -7.12542407152340        1.25338591961070       -0.12641550482523
C           -7.84538705547908        2.46371894988471       -0.02010462247452
C           -9.26874178833096        2.42403272811333       -0.15814479649149
C           -9.91864664507908        1.22871193681320       -0.42598802855304
B           -7.09901898283125       -1.25670201429875       -0.39995701344135
C           -7.83126966940367        0.05596586215866       -0.35067709125841
C           -9.22250658658265        0.01962446570421       -0.52707659056428
C           -9.86470424235814       -1.22686238031569       -0.80738335299736
C           -7.09570767557284       -3.73689090776300       -0.68808528388311
C           -7.83307787369102       -2.54555871833056       -0.66699670071456
C           -9.24676499657833       -2.46056734364545       -0.89952072084833
B           -9.99131167084947       -3.74057683823681       -1.28793325343574
C           -6.99709809710935       -6.18180118588159       -0.92966705513693
C           -7.73044751270823       -4.98906154400431       -0.98513695558477
C           -9.11689110535645       -5.01239967994936       -1.35511689872467
C           -9.66673320026901       -6.19918955734561       -1.77746976310026
C           -6.92517010954712       -8.62754907430510       -1.18609854036118
C           -7.61828926583197       -7.40424405736274       -1.29706529277986
C           -8.94227688644162       -7.40601773822512       -1.79873763697061
C           -9.50792738457706       -8.59928482081583       -2.27574354648790
C           -7.50197340727521       -9.77725447840620       -1.70894442646728
C           -8.77843639735038       -9.76165231347360       -2.26157313105586
H           10.92229682385324        8.67449429616302       -1.44035632268109
H            9.68157730447307       10.80874067031163       -1.37456468233064
H            7.28213866530887       10.79755365014112       -1.00298382341821
H           11.17584788756439        6.13806652337274       -1.32780746593227
H           10.92211100542469        3.60679565770335       -1.11113110134387
H           10.99423609924334        1.28180415220360       -0.94373060960771
H           11.00900982830323       -1.35605695863931       -0.76333708005759
H           11.17360564360601       -3.83920129229326       -0.59346548413107
H           10.93356970614191       -6.31158418034196       -0.05450866367262
H           10.93991384259712       -8.68347534724776        0.47831495156303
H            5.41395512331903       10.78120772977716       -0.63336309264045
H            3.10571730559353       10.88193697761819       -0.28540648274837
H            1.15806546327541       10.80178603078645        0.18312974284726
H           -1.21006327285063       10.76488904691728        0.63334146496555
H           -3.11126480360546       10.75356209900210        1.31586587605309
H           -5.44369023007078       10.62351414062626        1.54809530441223
H           -7.38140561761155       10.58204560761765        1.82018880679808
H           -9.80771862275743       10.53507630273343        1.90695754491240
H          -11.02958931859547        8.45138474402036        1.36722654745317
H          -11.01226044971495        6.14786816807331        0.68108024318612
H          -11.25667670992514        3.71874195495934       -0.08289825893130
H          -10.99401805920399        1.23921312938844       -0.54362225595979
H          -10.93495248097006       -1.18559677953313       -0.97200427012290
H          -11.13755753696874       -3.77737791423862       -1.52777769218113
H          -10.69779977528306       -6.21783214072656       -2.10222930792456
H          -10.51604123757372       -8.58143983451737       -2.66355047498820
H           -9.19566366067836      -10.67393493674362       -2.66211781370028
H            9.72035791341962      -10.71912765590651        1.17480730671920
H            7.31105106374947      -10.61928930514893        1.59744255087797
H            5.48412598186817      -10.41879913363925        2.79476576977555
H            2.88250550370180      -10.53967091720060        2.04603678956771
H            1.03928574175926      -10.81012364539393        1.19873771296491
H           -1.30571810256688      -10.69826269812017        0.87542754417778
H           -3.43248402462349      -10.78514530448660        1.28861948687481
H           -5.76337549226292      -10.68828008670894       -0.05771540933555
H           -6.95315671936817      -10.70637134834799       -1.70363437561275
