      -----------------------------------------------------------      
     |                   =====================                   |     
     |                           x T B                           |     
     |                   =====================                   |     
     |                         S. Grimme                         |     
     |          Mulliken Center for Theoretical Chemistry        |     
     |                    University of Bonn                     |     
      -----------------------------------------------------------      

   * xtb version 6.7.1pre (5071a88) compiled by 'Marcel@Raven' on 2024-07-23

   xtb is free software: you can redistribute it and/or modify it under
   the terms of the GNU Lesser General Public License as published by
   the Free Software Foundation, either version 3 of the License, or
   (at your option) any later version.
   
   xtb is distributed in the hope that it will be useful,
   but WITHOUT ANY WARRANTY; without even the implied warranty of
   MERCHANTABILITY or FITNESS FOR A PARTICULAR PURPOSE.  See the
   GNU Lesser General Public License for more details.
   
   Cite this work as:
   * C. Bannwarth, E. Caldeweyher, S. Ehlert, A. Hansen, P. Pracht,
     J. Seibert, S. Spicher, S. Grimme, WIREs Comput. Mol. Sci., 2020, 11,
     e01493. DOI: 10.1002/wcms.1493
   
   for GFN2-xTB:
   * C. Bannwarth, S. Ehlert and S. Grimme., J. Chem. Theory Comput., 2019,
     15, 1652-1671. DOI: 10.1021/acs.jctc.8b01176
   for GFN1-xTB:
   * S. Grimme, C. Bannwarth, P. Shushkov, J. Chem. Theory Comput., 2017,
     13, 1989-2009. DOI: 10.1021/acs.jctc.7b00118
   for GFN0-xTB:
   * P. Pracht, E. Caldeweyher, S. Ehlert, S. Grimme, ChemRxiv, 2019, preprint.
     DOI: 10.26434/chemrxiv.8326202.v1
   for GFN-FF:
   * S. Spicher and S. Grimme, Angew. Chem. Int. Ed., 2020, 59, 15665-15673.
     DOI: 10.1002/anie.202004239
   
   for ALPB and GBSA implicit solvation:
   * S. Ehlert, M. Stahn, S. Spicher, S. Grimme, J. Chem. Theory Comput.,
     2021, 17, 4250-4261. DOI: 10.1021/acs.jctc.1c00471
   
   for ddCOSMO and CPCM-X implicit solvation:
   * M. Stahn, S. Ehlert, S. Grimme, J. Phys. Chem. A,
     2023, XX, XXXX-XXXX. DOI: 10.1021/acs.jpca.3c04382
   
   for DFT-D4:
   * E. Caldeweyher, C. Bannwarth and S. Grimme, J. Chem. Phys., 2017,
     147, 034112. DOI: 10.1063/1.4993215
   * E. Caldeweyher, S. Ehlert, A. Hansen, H. Neugebauer, S. Spicher,
     C. Bannwarth and S. Grimme, J. Chem. Phys., 2019, 150, 154122.
     DOI: 10.1063/1.5090222
   * E. Caldeweyher, J.-M. Mewes, S. Ehlert and S. Grimme, Phys. Chem. Chem. Phys.
     2020, 22, 8499-8512. DOI: 10.1039/D0CP00502A
   
   for sTDA-xTB:
   * S. Grimme and C. Bannwarth, J. Chem. Phys., 2016, 145, 054103.
     DOI: 10.1063/1.4959605
   
   in the mass-spec context:
   * V. Asgeirsson, C. Bauer and S. Grimme, Chem. Sci., 2017, 8, 4879.
     DOI: 10.1039/c7sc00601b
   * J. Koopman and S. Grimme, ACS Omega 2019, 4, 12, 15120-15133.
     DOI: 10.1021/acsomega.9b02011
   
   for metadynamics refer to:
   * S. Grimme, J. Chem. Theory Comput., 2019, 155, 2847-2862
     DOI: 10.1021/acs.jctc.9b00143
   
   for SPH calculations refer to:
   * S. Spicher and S. Grimme, J. Chem. Theory Comput., 2021, 17, 1701-1714
     DOI: 10.1021/acs.jctc.0c01306
   
   for ONIOM refer to:
   * C. Plett, A. Katbashev, S. Ehlert, S. Grimme, M. Bursch,
     Phys. Chem. Chem. Phys., 2023, 25, 17860-17868. DOI: 10.1039/D3CP02178E
   
   for DIPRO refer to:
   * J. Kohn, N. Gildemeister, S. Grimme, D. Fazzi, A. Hansen,
     J. Chem. Phys., 2023, just accepted.
   
   for PTB refer to:
   * S. Grimme, M. Mueller, A. Hansen, J. Chem. Phys., 2023, 158, 124111.
     DOI: 10.1063/5.0137838
   
   with help from (in alphabetical order)
   P. Atkinson, C. Bannwarth, F. Bohle, G. Brandenburg, E. Caldeweyher
   M. Checinski, S. Dohm, S. Ehlert, S. Ehrlich, I. Gerasimov, C. Hölzer
   A. Katbashev, J. Kohn, J. Koopman, C. Lavigne, S. Lehtola, F. März, M. Müller,
   F. Musil, H. Neugebauer, J. Pisarek, C. Plett, P. Pracht, F. Pultar,
   J. Seibert, P. Shushkov, S. Spicher, M. Stahn, M. Steiner, T. Strunk,
   J. Stückrath, T. Rose, and J. Unsleber
   
 * started run on 2025/12/08 at 00:52:11.648     
   ID    Z sym.   atoms
    1    6 C      1-161
    2    1 H      162-192, 202-204
    3    8 O      193-201

           -------------------------------------------------
          |                Calculation Setup                |
           -------------------------------------------------

          program call               : xtb "C:\Users\LENOVO GAMING\Documents\GitHub\molecular-conductivity-sim\results\2nm-9Odoped-5percent\xtbopt.xyz" --sp
          coordinate file            : C:\Users\LENOVO GAMING\Documents\GitHub\molecular-conductivity-sim\results\2nm-9Odoped-5percent\xtbopt.xyz
          omp threads                :                    16


           -------------------------------------------------
          |                 G F N 2 - x T B                 |
           -------------------------------------------------

        Reference                      10.1021/acs.jctc.8b01176
      * Hamiltonian:
        H0-scaling (s, p, d)           1.850000    2.230000    2.230000
        zeta-weighting                 0.500000
      * Dispersion:
        s8                             2.700000
        a1                             0.520000
        a2                             5.000000
        s9                             5.000000
      * Repulsion:
        kExp                           1.500000    1.000000
        rExp                           1.000000
      * Coulomb:
        alpha                          2.000000
        third order                    shell-resolved
        anisotropic                    true
        a3                             3.000000
        a5                             4.000000
        cn-shift                       1.200000
        cn-exp                         4.000000
        max-rad                        5.000000

q/qsh data taken from xtbrestart
CAMM data taken from xtbrestart

          ...................................................
          :                      SETUP                      :
          :.................................................:
          :  # basis functions                 714          :
          :  # atomic orbitals                 714          :
          :  # shells                          374          :
          :  # electrons                       732          :
          :  max. iterations                   250          :
          :  Hamiltonian                  GFN2-xTB          :
          :  restarted?                       true          :
          :  GBSA solvation                  false          :
          :  PC potential                    false          :
          :  electronic temp.          300.0000000     K    :
          :  accuracy                    1.0000000          :
          :  -> integral cutoff          0.2500000E+02      :
          :  -> integral neglect         0.1000000E-07      :
          :  -> SCF convergence          0.1000000E-05 Eh   :
          :  -> wf. convergence          0.1000000E-03 e    :
          :  Broyden damping             0.4000000          :
          :  net charge                          0          :
          :  unpaired electrons                  0          :
          ...................................................

 iter      E             dE          RMSdq      gap      omega  full diag
   1   -406.9617802 -0.406962E+03  0.229E-05    0.12       0.0  T
   2   -406.9617801  0.399945E-08  0.788E-05    0.12      88.8  T
   3   -406.9617802 -0.291652E-08  0.484E-05    0.12     144.7  T

   *** convergence criteria satisfied after 3 iterations ***

         #    Occupation            Energy/Eh            Energy/eV
      -------------------------------------------------------------
         1        2.0000           -0.7780743             -21.1725
       ...           ...                  ...                  ...
       360        2.0000           -0.3586508              -9.7594
       361        2.0000           -0.3551868              -9.6651
       362        2.0000           -0.3527057              -9.5976
       363        2.0000           -0.3427156              -9.3258
       364        1.9999           -0.3276990              -8.9171
       365        1.9968           -0.3241124              -8.8195
       366        1.8090           -0.3201448              -8.7116 (HOMO)
       367        0.1943           -0.3158910              -8.5958 (LUMO)
       368        0.0000           -0.3042948              -8.2803
       369                         -0.2991166              -8.1394
       370                         -0.2905190              -7.9054
       371                         -0.2873302              -7.8187
       ...                                ...                  ...
       714                          0.7918773              21.5481
      -------------------------------------------------------------
                  HL-Gap            0.0042538 Eh            0.1158 eV
             Fermi-level           -0.3180088 Eh           -8.6535 eV

 SCC (total)                   0 d,  0 h,  0 min,  0.705 sec
 SCC setup                      ...        0 min,  0.003 sec (  0.426%)
 Dispersion                     ...        0 min,  0.021 sec (  2.979%)
 classical contributions        ...        0 min,  0.001 sec (  0.142%)
 integral evaluation            ...        0 min,  0.053 sec (  7.518%)
 iterations                     ...        0 min,  0.420 sec ( 59.574%)
 molecular gradient             ...        0 min,  0.195 sec ( 27.660%)
 printout                       ...        0 min,  0.012 sec (  1.702%)

         :::::::::::::::::::::::::::::::::::::::::::::::::::::
         ::                     SUMMARY                     ::
         :::::::::::::::::::::::::::::::::::::::::::::::::::::
         :: total energy            -399.778772789006 Eh    ::
         :: gradient norm              0.000623310802 Eh/a0 ::
         :: HOMO-LUMO gap              0.115753036291 eV    ::
         ::.................................................::
         :: SCC energy              -406.976594813175 Eh    ::
         :: -> isotropic ES            0.094697324998 Eh    ::
         :: -> anisotropic ES          0.019986080083 Eh    ::
         :: -> anisotropic XC          0.101048476305 Eh    ::
         :: -> dispersion             -0.484719705940 Eh    ::
         :: repulsion energy           7.197822024169 Eh    ::
         :: add. restraining           0.000000000000 Eh    ::
         :: total charge              -0.000000000000 e     ::
         :::::::::::::::::::::::::::::::::::::::::::::::::::::

           -------------------------------------------------
          |                Property Printout                |
           -------------------------------------------------

    * Orbital Energies and Occupations

         #    Occupation            Energy/Eh            Energy/eV
      -------------------------------------------------------------
         1        2.0000           -0.7780743             -21.1725
       ...           ...                  ...                  ...
       354        2.0000           -0.3789594             -10.3120
       355        2.0000           -0.3751576             -10.2086
       356        2.0000           -0.3735534             -10.1649
       357        2.0000           -0.3701074             -10.0711
       358        2.0000           -0.3655894              -9.9482
       359        2.0000           -0.3648920              -9.9292
       360        2.0000           -0.3586508              -9.7594
       361        2.0000           -0.3551868              -9.6651
       362        2.0000           -0.3527057              -9.5976
       363        2.0000           -0.3427156              -9.3258
       364        1.9999           -0.3276990              -8.9171
       365        1.9968           -0.3241124              -8.8195
       366        1.8090           -0.3201448              -8.7116 (HOMO)
       367        0.1943           -0.3158910              -8.5958 (LUMO)
       368        0.0000           -0.3042948              -8.2803
       369                         -0.2991166              -8.1394
       370                         -0.2905190              -7.9054
       371                         -0.2873302              -7.8187
       372                         -0.2837482              -7.7212
       373                         -0.2759219              -7.5082
       374                         -0.2722546              -7.4084
       375                         -0.2664299              -7.2499
       376                         -0.2658825              -7.2350
       377                         -0.2618738              -7.1259
       ...                                ...                  ...
       714                          0.7918773              21.5481
      -------------------------------------------------------------
                  HL-Gap            0.0042538 Eh            0.1158 eV
             Fermi-level           -0.3180088 Eh           -8.6535 eV

     #   Z          covCN         q      C6AA      α(0)
     1   6 C        2.915    -0.061    29.513     8.908
     2   6 C        2.918    -0.029    28.724     8.789
     3   6 C        2.917    -0.045    29.123     8.850
     4   6 C        2.980     0.003    27.956     8.673
     5   6 C        2.881     0.140    24.937     8.187
     6   6 C        2.995    -0.019    28.464     8.752
     7   6 C        2.995     0.008    27.830     8.654
     8   6 C        2.918    -0.068    29.688     8.935
     9   6 C        2.877     0.138    24.984     8.194
    10   6 C        2.992    -0.020    28.491     8.756
    11   6 C        3.004     0.000    28.014     8.682
    12   6 C        2.903    -0.088    30.213     9.013
    13   6 C        2.968     0.025    27.449     8.594
    14   6 C        2.990    -0.002    28.061     8.690
    15   6 C        2.932    -0.012    28.305     8.725
    16   6 C        2.907    -0.096    30.407     9.042
    17   6 C        2.853     0.138    24.990     8.193
    18   6 C        2.871     0.135    25.048     8.204
    19   6 C        2.870     0.151    24.721     8.150
    20   6 C        2.987    -0.040    28.989     8.832
    21   6 C        3.000     0.004    27.927     8.669
    22   6 C        2.917    -0.066    29.649     8.929
    23   6 C        2.870     0.134    25.073     8.208
    24   6 C        2.996    -0.021    28.529     8.762
    25   6 C        2.991     0.001    27.993     8.679
    26   6 C        2.921    -0.042    29.047     8.838
    27   6 C        2.984     0.012    27.730     8.638
    28   6 C        2.996    -0.003    28.093     8.695
    29   6 C        2.975     0.008    27.836     8.654
    30   6 C        2.913    -0.029    28.733     8.790
    31   6 C        2.921    -0.042    29.035     8.836
    32   6 C        2.972    -0.017    28.425     8.745
    33   6 C        2.918    -0.033    28.830     8.805
    34   6 C        2.903    -0.049    29.217     8.863
    35   6 C        2.852     0.122    25.325     8.248
    36   6 C        2.967    -0.022    28.552     8.765
    37   6 C        2.870     0.137    25.003     8.197
    38   6 C        2.931    -0.016    28.410     8.741
    39   6 C        2.995     0.000    28.008     8.681
    40   6 C        2.978     0.006    27.874     8.660
    41   6 C        2.986     0.004    27.936     8.670
    42   6 C        3.003     0.000    28.011     8.682
    43   6 C        2.982     0.005    27.901     8.665
    44   6 C        3.005    -0.000    28.015     8.682
    45   6 C        2.996    -0.001    28.034     8.685
    46   6 C        2.991    -0.000    28.022     8.683
    47   6 C        2.970    -0.019    28.481     8.754
    48   6 C        2.974     0.008    27.840     8.655
    49   6 C        2.988     0.002    27.970     8.675
    50   6 C        2.989     0.002    27.972     8.676
    51   6 C        2.992    -0.007    28.187     8.709
    52   6 C        2.989     0.001    27.993     8.679
    53   6 C        2.989    -0.001    28.035     8.685
    54   6 C        2.987    -0.002    28.057     8.689
    55   6 C        2.988    -0.002    28.058     8.689
    56   6 C        2.989     0.002    27.975     8.676
    57   6 C        2.992    -0.006    28.164     8.705
    58   6 C        2.980    -0.008    28.208     8.712
    59   6 C        2.977    -0.009    28.227     8.715
    60   6 C        2.989     0.003    27.945     8.671
    61   6 C        2.989    -0.010    28.256     8.720
    62   6 C        2.972    -0.003    28.099     8.695
    63   6 C        2.918    -0.032    28.804     8.801
    64   6 C        2.920    -0.051    29.268     8.872
    65   6 C        2.960    -0.021    28.533     8.762
    66   6 C        2.918    -0.044    29.086     8.844
    67   6 C        2.918    -0.044    29.082     8.843
    68   6 C        2.960    -0.022    28.546     8.764
    69   6 C        2.984     0.004    27.925     8.668
    70   6 C        2.979     0.006    27.892     8.663
    71   6 C        2.979     0.006    27.874     8.660
    72   6 C        2.984     0.005    27.911     8.666
    73   6 C        2.999    -0.002    28.065     8.690
    74   6 C        3.006     0.001    27.991     8.679
    75   6 C        3.006     0.000    28.003     8.680
    76   6 C        2.998    -0.003    28.079     8.692
    77   6 C        2.993    -0.001    28.046     8.687
    78   6 C        2.995    -0.000    28.030     8.685
    79   6 C        2.996    -0.001    28.048     8.688
    80   6 C        2.995    -0.001    28.036     8.686
    81   6 C        2.991    -0.003    28.083     8.693
    82   6 C        2.993     0.001    28.001     8.680
    83   6 C        2.994    -0.001    28.032     8.685
    84   6 C        2.993     0.000    28.008     8.681
    85   6 C        2.993    -0.002    28.057     8.689
    86   6 C        2.990     0.001    27.996     8.679
    87   6 C        2.993    -0.002    28.059     8.689
    88   6 C        2.991     0.002    27.969     8.675
    89   6 C        2.850     0.083    26.150     8.381
    90   6 C        2.983    -0.010    28.270     8.722
    91   6 C        2.991    -0.011    28.291     8.725
    92   6 C        2.982    -0.014    28.353     8.734
    93   6 C        2.828     0.048    26.903     8.499
    94   6 C        2.853     0.077    26.270     8.401
    95   6 C        2.976    -0.017    28.418     8.744
    96   6 C        2.910    -0.047    29.178     8.857
    97   6 C        2.910    -0.073    29.828     8.956
    98   6 C        2.853     0.124    25.269     8.239
    99   6 C        2.903    -0.049    29.223     8.864
   100   6 C        2.919    -0.031    28.779     8.797
   101   6 C        2.972    -0.015    28.372     8.737
   102   6 C        2.931    -0.016    28.417     8.742
   103   6 C        2.867     0.136    25.034     8.202
   104   6 C        2.968    -0.020    28.511     8.758
   105   6 C        3.001     0.000    28.005     8.681
   106   6 C        2.983     0.005    27.911     8.666
   107   6 C        2.974     0.008    27.847     8.656
   108   6 C        2.991    -0.002    28.071     8.691
   109   6 C        2.995    -0.000    28.019     8.683
   110   6 C        2.995    -0.000    28.026     8.684
   111   6 C        2.994    -0.001    28.051     8.688
   112   6 C        2.993     0.000    28.016     8.683
   113   6 C        2.994    -0.003    28.095     8.695
   114   6 C        2.994     0.000    28.014     8.682
   115   6 C        2.994    -0.001    28.040     8.686
   116   6 C        2.994     0.000    28.018     8.683
   117   6 C        2.993    -0.005    28.129     8.700
   118   6 C        2.994    -0.000    28.025     8.684
   119   6 C        2.995     0.000    28.012     8.682
   120   6 C        2.996    -0.002    28.071     8.691
   121   6 C        3.000    -0.011    28.275     8.723
   122   6 C        2.994     0.002    27.965     8.675
   123   6 C        2.995    -0.002    28.055     8.689
   124   6 C        2.991    -0.004    28.107     8.697
   125   6 C        2.889     0.115    25.471     8.274
   126   6 C        2.986    -0.012    28.312     8.728
   127   6 C        3.002     0.007    27.861     8.658
   128   6 C        2.962    -0.014    28.369     8.736
   129   6 C        2.818     0.091    25.976     8.351
   130   6 C        2.978     0.004    27.925     8.668
   131   6 C        2.920    -0.041    29.021     8.834
   132   6 C        2.914    -0.030    28.741     8.791
   133   6 C        2.922    -0.041    29.007     8.832
   134   6 C        2.988    -0.002    28.058     8.689
   135   6 C        2.995    -0.008    28.196     8.710
   136   6 C        2.983     0.015    27.673     8.629
   137   6 C        2.917    -0.075    29.870     8.962
   138   6 C        2.997     0.009    27.812     8.651
   139   6 C        2.993    -0.015    28.380     8.739
   140   6 C        2.868     0.136    25.026     8.200
   141   6 C        2.996     0.001    27.993     8.679
   142   6 C        2.991    -0.020    28.507     8.758
   143   6 C        2.868     0.140    24.946     8.187
   144   6 C        2.915    -0.070    29.752     8.944
   145   6 C        2.995    -0.000    28.020     8.683
   146   6 C        2.996    -0.011    28.268     8.722
   147   6 C        2.976     0.015    27.663     8.627
   148   6 C        2.913    -0.071    29.767     8.947
   149   6 C        2.998     0.006    27.865     8.659
   150   6 C        2.993    -0.018    28.438     8.748
   151   6 C        2.862     0.138    24.981     8.193
   152   6 C        2.991     0.000    28.011     8.682
   153   6 C        2.995    -0.017    28.418     8.745
   154   6 C        2.864     0.139    24.966     8.190
   155   6 C        2.917    -0.071    29.775     8.948
   156   6 C        2.972     0.005    27.912     8.666
   157   6 C        2.994    -0.000    28.019     8.683
   158   6 C        2.982     0.014    27.688     8.631
   159   6 C        2.919    -0.037    28.928     8.820
   160   6 C        2.919    -0.043    29.058     8.840
   161   6 C        2.913    -0.028    28.703     8.785
   162   1 H        0.926     0.050     2.320     2.382
   163   1 H        0.926     0.041     2.431     2.438
   164   1 H        0.926     0.040     2.450     2.448
   165   1 H        0.926     0.051     2.303     2.373
   166   1 H        0.926     0.044     2.391     2.418
   167   1 H        0.926     0.055     2.255     2.348
   168   1 H        0.926     0.048     2.343     2.394
   169   1 H        0.926     0.031     2.573     2.509
   170   1 H        0.926     0.036     2.497     2.471
   171   1 H        0.926     0.044     2.394     2.419
   172   1 H        0.926     0.029     2.599     2.521
   173   1 H        0.926     0.030     2.593     2.518
   174   1 H        0.926     0.044     2.394     2.419
   175   1 H        0.926     0.038     2.480     2.463
   176   1 H        0.926     0.032     2.559     2.502
   177   1 H        0.926     0.031     2.574     2.509
   178   1 H        0.926     0.033     2.538     2.491
   179   1 H        0.926     0.046     2.364     2.404
   180   1 H        0.926     0.049     2.329     2.386
   181   1 H        0.926     0.049     2.335     2.390
   182   1 H        0.926     0.049     2.335     2.390
   183   1 H        0.926     0.037     2.487     2.466
   184   1 H        0.926     0.035     2.519     2.482
   185   1 H        0.926     0.029     2.595     2.519
   186   1 H        0.926     0.031     2.578     2.511
   187   1 H        0.926     0.035     2.520     2.482
   188   1 H        0.926     0.028     2.611     2.527
   189   1 H        0.926     0.052     2.300     2.372
   190   1 H        0.926     0.037     2.484     2.465
   191   1 H        0.926     0.061     2.190     2.314
   192   1 H        0.926     0.028     2.616     2.529
   193   8 O        1.709    -0.186    17.112     5.585
   194   8 O        2.527    -0.032    14.870     5.208
   195   8 O        1.709    -0.226    17.750     5.688
   196   8 O        1.713    -0.231    17.825     5.700
   197   8 O        1.708    -0.232    17.844     5.703
   198   8 O        1.709    -0.230    17.821     5.700
   199   8 O        1.713    -0.232    17.837     5.702
   200   8 O        1.714    -0.229    17.789     5.695
   201   8 O        1.710    -0.218    17.619     5.667
   202   1 H        0.926     0.039     2.456     2.450
   203   1 H        0.926     0.035     2.515     2.480
   204   1 H        0.926     0.035     2.516     2.480

 Mol. C6AA /au·bohr⁶  :     886765.239252
 Mol. C8AA /au·bohr⁸  :   24308757.607140
 Mol. α(0) /au        :       1530.487617


Wiberg/Mayer (AO) data.
largest (>0.10) Wiberg bond orders for each atom

 ---------------------------------------------------------------------------
     #   Z sym  total        # sym  WBO       # sym  WBO       # sym  WBO
 ---------------------------------------------------------------------------
     1   6 C    3.955 --     5 C    1.410     2 C    1.383   162 H    0.968
     2   6 C    3.971 --     3 C    1.491     1 C    1.383   163 H    0.970
     3   6 C    3.964 --     2 C    1.491     4 C    1.325   164 H    0.963
     4   6 C    3.965 --     3 C    1.325     6 C    1.266    32 C    1.178
     5   6 C    3.917 --     1 C    1.410     6 C    1.259   201 O    1.056
     6   6 C    3.976 --     4 C    1.266     5 C    1.259     7 C    1.217
     7   6 C    3.950 --    36 C    1.307     6 C    1.217    10 C    1.205
     8   6 C    3.948 --    13 C    1.383     9 C    1.372   165 H    0.964
     9   6 C    3.864 --     8 C    1.372    10 C    1.264   201 O    1.059
    10   6 C    3.968 --     9 C    1.264    11 C    1.258     7 C    1.205
    11   6 C    3.958 --    10 C    1.258    14 C    1.258    39 C    1.225
    12   6 C    3.932 --    17 C    1.550    13 C    1.164   166 H    0.961
    13   6 C    3.920 --     8 C    1.383    14 C    1.213    12 C    1.164
    14   6 C    3.965 --    15 C    1.279    11 C    1.258    13 C    1.213
    15   6 C    3.845 --    43 C    1.385    14 C    1.279   202 H    0.964
    16   6 C    3.942 --    19 C    1.550    17 C    1.176   167 H    0.964
    17   6 C    3.879 --    12 C    1.550    16 C    1.176   196 O    1.008
    18   6 C    3.877 --    20 C    1.392    47 C    1.209   196 O    1.055
    19   6 C    3.895 --    16 C    1.550    20 C    1.110   195 O    1.077
    20   6 C    3.958 --    18 C    1.392    21 C    1.220    19 C    1.110
    21   6 C    3.957 --    51 C    1.279    24 C    1.239    20 C    1.220
    22   6 C    3.926 --    23 C    1.507    27 C    1.237   168 H    0.965
    23   6 C    3.915 --    22 C    1.507    24 C    1.200   195 O    1.028
    24   6 C    3.940 --    25 C    1.278    21 C    1.239    23 C    1.200
    25   6 C    3.973 --    24 C    1.278    55 C    1.238    28 C    1.236
    26   6 C    3.928 --    30 C    1.468    27 C    1.321   169 H    0.969
    27   6 C    3.982 --    26 C    1.321    28 C    1.252    22 C    1.237
    28   6 C    3.970 --    29 C    1.258    27 C    1.252    25 C    1.236
    29   6 C    3.977 --    31 C    1.374    28 C    1.258    59 C    1.151
    30   6 C    3.981 --    26 C    1.468    31 C    1.417   185 H    0.971
    31   6 C    3.932 --    30 C    1.417    29 C    1.374   186 H    0.963
    32   6 C    3.960 --    37 C    1.384    33 C    1.183     4 C    1.178
    33   6 C    3.879 --    34 C    1.606    32 C    1.183   170 H    0.964
    34   6 C    3.964 --    33 C    1.606    35 C    1.235   171 H    0.959
    35   6 C    3.784 --    65 C    1.375    34 C    1.235   200 O    1.002
    36   6 C    3.962 --     7 C    1.307    37 C    1.214    40 C    1.183
    37   6 C    3.879 --    32 C    1.384    36 C    1.214   200 O    1.055
    38   6 C    3.884 --    69 C    1.395    41 C    1.289   204 H    0.965
    39   6 C    3.977 --    40 C    1.286    44 C    1.236    11 C    1.225
    40   6 C    3.899 --    39 C    1.286    41 C    1.221    36 C    1.183
    41   6 C    3.956 --    38 C    1.289    42 C    1.242    40 C    1.221
    42   6 C    3.961 --    73 C    1.254    41 C    1.242    45 C    1.240
    43   6 C    3.965 --    15 C    1.385    44 C    1.218    48 C    1.164
    44   6 C    3.946 --    45 C    1.272    39 C    1.236    43 C    1.218
    45   6 C    3.960 --    44 C    1.272    42 C    1.240    46 C    1.230
    46   6 C    3.940 --    77 C    1.272    45 C    1.230    49 C    1.229
    47   6 C    3.950 --    52 C    1.254    48 C    1.237    18 C    1.209
    48   6 C    3.911 --    49 C    1.297    47 C    1.237    43 C    1.164
    49   6 C    3.966 --    48 C    1.297    46 C    1.229    50 C    1.222
    50   6 C    3.957 --    53 C    1.274    81 C    1.246    49 C    1.222
    51   6 C    3.971 --    21 C    1.279    52 C    1.243    56 C    1.224
    52   6 C    3.967 --    47 C    1.254    53 C    1.246    51 C    1.243
    53   6 C    3.965 --    50 C    1.274    52 C    1.246    54 C    1.218
    54   6 C    3.973 --    85 C    1.271    57 C    1.262    53 C    1.218
    55   6 C    3.946 --    56 C    1.288    25 C    1.238    60 C    1.205
    56   6 C    3.967 --    55 C    1.288    57 C    1.233    51 C    1.224
    57   6 C    3.945 --    54 C    1.262    56 C    1.233    58 C    1.228
    58   6 C    3.959 --    89 C    1.345    57 C    1.228    61 C    1.172
    59   6 C    3.925 --    63 C    1.319    60 C    1.262    29 C    1.151
    60   6 C    3.980 --    61 C    1.292    59 C    1.262    55 C    1.205
    61   6 C    3.930 --    60 C    1.292    62 C    1.233    58 C    1.172
    62   6 C    3.957 --    64 C    1.268    93 C    1.259    61 C    1.233
    63   6 C    3.967 --    64 C    1.523    59 C    1.319   187 H    0.961
    64   6 C    3.942 --    63 C    1.523    62 C    1.268   188 H    0.961
    65   6 C    3.947 --    35 C    1.375    66 C    1.183    70 C    1.149
    66   6 C    3.952 --    67 C    1.660    65 C    1.183   172 H    0.960
    67   6 C    3.954 --    66 C    1.660    68 C    1.185   173 H    0.959
    68   6 C    3.946 --    98 C    1.369    67 C    1.185    71 C    1.150
    69   6 C    3.959 --    38 C    1.395    74 C    1.226    70 C    1.141
    70   6 C    3.949 --    71 C    1.433    65 C    1.149    69 C    1.141
    71   6 C    3.950 --    70 C    1.433    68 C    1.150    72 C    1.142
    72   6 C    3.954 --   102 C    1.381    75 C    1.234    71 C    1.142
    73   6 C    3.973 --    74 C    1.258    42 C    1.254    78 C    1.232
    74   6 C    3.951 --    73 C    1.258    75 C    1.246    69 C    1.226
    75   6 C    3.958 --    76 C    1.255    74 C    1.246    72 C    1.234
    76   6 C    3.971 --    75 C    1.255   105 C    1.255    79 C    1.233
    77   6 C    3.955 --    46 C    1.272    78 C    1.239    82 C    1.232
    78   6 C    3.959 --    79 C    1.269    77 C    1.239    73 C    1.232
    79   6 C    3.960 --    78 C    1.269    80 C    1.240    76 C    1.233
    80   6 C    3.954 --    83 C    1.255   109 C    1.246    79 C    1.240
    81   6 C    3.956 --    82 C    1.256    50 C    1.246    86 C    1.238
    82   6 C    3.955 --    81 C    1.256    83 C    1.254    77 C    1.232
    83   6 C    3.959 --    80 C    1.255    82 C    1.254    84 C    1.236
    84   6 C    3.956 --    87 C    1.262   113 C    1.247    83 C    1.236
    85   6 C    3.958 --    54 C    1.271    86 C    1.250    90 C    1.213
    86   6 C    3.963 --    87 C    1.257    85 C    1.250    81 C    1.238
    87   6 C    3.950 --    84 C    1.262    86 C    1.257    88 C    1.218
    88   6 C    3.967 --    91 C    1.316    87 C    1.218   117 C    1.217
    89   6 C    3.767 --    58 C    1.345    90 C    1.319   194 O    0.868
    90   6 C    3.960 --    89 C    1.319    85 C    1.213    91 C    1.209
    91   6 C    3.895 --    88 C    1.316    90 C    1.209    92 C    1.163
    92   6 C    3.971 --    94 C    1.380   121 C    1.211    91 C    1.163
    93   6 C    3.658 --    96 C    1.368    62 C    1.259   194 O    0.797
    94   6 C    3.746 --    92 C    1.380    95 C    1.271   194 O    0.854
    95   6 C    3.952 --    94 C    1.271   125 C    1.264    97 C    1.210
    96   6 C    3.957 --    97 C    1.476    93 C    1.368   189 H    0.949
    97   6 C    3.832 --    96 C    1.476    95 C    1.210   190 H    0.969
    98   6 C    3.790 --    68 C    1.369    99 C    1.238   199 O    1.010
    99   6 C    3.958 --   100 C    1.600    98 C    1.238   174 H    0.959
   100   6 C    3.883 --    99 C    1.600   101 C    1.191   175 H    0.963
   101   6 C    3.947 --   103 C    1.396   100 C    1.191   130 C    1.157
   102   6 C    3.893 --    72 C    1.381   106 C    1.311   203 H    0.965
   103   6 C    3.879 --   101 C    1.396   104 C    1.210   199 O    1.046
   104   6 C    3.945 --   107 C    1.250   134 C    1.234   103 C    1.210
   105   6 C    3.962 --   106 C    1.259    76 C    1.255   110 C    1.225
   106   6 C    3.950 --   102 C    1.311   105 C    1.259   107 C    1.180
   107   6 C    3.923 --   108 C    1.270   104 C    1.250   106 C    1.180
   108   6 C    3.971 --   107 C    1.270   138 C    1.262   111 C    1.215
   109   6 C    3.957 --   110 C    1.251    80 C    1.246   114 C    1.245
   110   6 C    3.955 --   111 C    1.266   109 C    1.251   105 C    1.225
   111   6 C    3.952 --   110 C    1.266   112 C    1.256   108 C    1.215
   112   6 C    3.953 --   115 C    1.267   111 C    1.256   141 C    1.218
   113   6 C    3.946 --   114 C    1.256    84 C    1.247   118 C    1.234
   114   6 C    3.960 --   113 C    1.256   115 C    1.245   109 C    1.245
   115   6 C    3.957 --   112 C    1.267   114 C    1.245   116 C    1.231
   116   6 C    3.961 --   119 C    1.271   145 C    1.240   115 C    1.231
   117   6 C    3.930 --   118 C    1.278   122 C    1.232    88 C    1.217
   118   6 C    3.960 --   117 C    1.278   113 C    1.234   119 C    1.234
   119   6 C    3.960 --   116 C    1.271   120 C    1.238   118 C    1.234
   120   6 C    3.969 --   149 C    1.270   123 C    1.240   119 C    1.238
   121   6 C    3.952 --   126 C    1.252   122 C    1.250    92 C    1.211
   122   6 C    3.975 --   123 C    1.265   121 C    1.250   117 C    1.232
   123   6 C    3.942 --   122 C    1.265   120 C    1.240   124 C    1.228
   124   6 C    3.977 --   127 C    1.342   123 C    1.228   152 C    1.179
   125   6 C    3.833 --   126 C    1.287    95 C    1.264   193 O    1.049
   126   6 C    3.981 --   125 C    1.287   121 C    1.252   127 C    1.223
   127   6 C    3.909 --   124 C    1.342   126 C    1.223   128 C    1.138
   128   6 C    3.962 --   129 C    1.551   127 C    1.138   156 C    1.100
   129   6 C    3.838 --   128 C    1.551   193 O    1.116   191 H    0.954
   130   6 C    3.977 --   131 C    1.368   135 C    1.256   101 C    1.157
   131   6 C    3.934 --   132 C    1.426   130 C    1.368   176 H    0.964
   132   6 C    3.980 --   133 C    1.458   131 C    1.426   177 H    0.971
   133   6 C    3.937 --   132 C    1.458   136 C    1.334   178 H    0.969
   134   6 C    3.971 --   139 C    1.262   135 C    1.250   104 C    1.234
   135   6 C    3.981 --   130 C    1.256   134 C    1.250   136 C    1.244
   136   6 C    3.984 --   133 C    1.334   135 C    1.244   137 C    1.234
   137   6 C    3.946 --   140 C    1.512   136 C    1.234   179 H    0.965
   138   6 C    3.944 --   139 C    1.273   108 C    1.262   142 C    1.197
   139   6 C    3.953 --   138 C    1.273   134 C    1.262   140 C    1.190
   140   6 C    3.922 --   137 C    1.512   139 C    1.190   198 O    1.040
   141   6 C    3.969 --   142 C    1.282   146 C    1.253   112 C    1.218
   142   6 C    3.949 --   141 C    1.282   143 C    1.244   138 C    1.197
   143   6 C    3.906 --   144 C    1.433   142 C    1.244   198 O    1.056
   144   6 C    3.934 --   143 C    1.433   147 C    1.304   180 H    0.966
   145   6 C    3.967 --   150 C    1.261   146 C    1.249   116 C    1.240
   146   6 C    3.969 --   141 C    1.253   145 C    1.249   147 C    1.243
   147   6 C    3.965 --   144 C    1.304   148 C    1.254   146 C    1.243
   148   6 C    3.941 --   151 C    1.489   147 C    1.254   181 H    0.966
   149   6 C    3.933 --   120 C    1.270   150 C    1.262   153 C    1.197
   150   6 C    3.946 --   149 C    1.262   145 C    1.261   151 C    1.204
   151   6 C    3.907 --   148 C    1.489   150 C    1.204   197 O    1.045
   152   6 C    3.965 --   153 C    1.325   157 C    1.239   124 C    1.179
   153   6 C    3.952 --   152 C    1.325   154 C    1.208   149 C    1.197
   154   6 C    3.921 --   155 C    1.486   153 C    1.208   197 O    1.050
   155   6 C    3.948 --   154 C    1.486   158 C    1.256   182 H    0.966
   156   6 C    3.978 --   160 C    1.426   157 C    1.257   128 C    1.100
   157   6 C    3.979 --   156 C    1.257   158 C    1.252   152 C    1.239
   158   6 C    3.980 --   159 C    1.301   155 C    1.256   157 C    1.252
   159   6 C    3.965 --   161 C    1.503   158 C    1.301   183 H    0.969
   160   6 C    3.966 --   156 C    1.426   161 C    1.379   192 H    0.967
   161   6 C    3.980 --   159 C    1.503   160 C    1.379   184 H    0.970
   162   1 H    0.997 --     1 C    0.968
   163   1 H    0.997 --     2 C    0.970
   164   1 H    0.998 --     3 C    0.963
   165   1 H    0.996 --     8 C    0.964
   166   1 H    0.996 --    12 C    0.961
   167   1 H    0.996 --    16 C    0.964
   168   1 H    0.996 --    22 C    0.965
   169   1 H    0.998 --    26 C    0.969
   170   1 H    0.998 --    33 C    0.964
   171   1 H    0.997 --    34 C    0.959
   172   1 H    0.997 --    66 C    0.960
   173   1 H    0.997 --    67 C    0.959
   174   1 H    0.997 --    99 C    0.959
   175   1 H    0.997 --   100 C    0.963
   176   1 H    0.998 --   131 C    0.964
   177   1 H    0.998 --   132 C    0.971
   178   1 H    0.998 --   133 C    0.969
   179   1 H    0.996 --   137 C    0.965
   180   1 H    0.996 --   144 C    0.966
   181   1 H    0.996 --   148 C    0.966
   182   1 H    0.996 --   155 C    0.966
   183   1 H    0.998 --   159 C    0.969
   184   1 H    0.998 --   161 C    0.970
   185   1 H    0.998 --    30 C    0.971
   186   1 H    0.999 --    31 C    0.963
   187   1 H    0.998 --    63 C    0.961
   188   1 H    0.998 --    64 C    0.961
   189   1 H    0.996 --    96 C    0.949
   190   1 H    0.997 --    97 C    0.969
   191   1 H    0.995 --   129 C    0.954
   192   1 H    0.998 --   160 C    0.967
   193   8 O    2.359 --   129 C    1.116   125 C    1.049
   194   8 O    2.686 --    89 C    0.868    94 C    0.854    93 C    0.797
   195   8 O    2.350 --    19 C    1.077    23 C    1.028
   196   8 O    2.339 --    18 C    1.055    17 C    1.008
   197   8 O    2.336 --   154 C    1.050   151 C    1.045
   198   8 O    2.339 --   143 C    1.056   140 C    1.040
   199   8 O    2.320 --   103 C    1.046    98 C    1.010
   200   8 O    2.322 --    37 C    1.055    35 C    1.002
   201   8 O    2.346 --     9 C    1.059     5 C    1.056
   202   1 H    0.996 --    15 C    0.964
   203   1 H    0.997 --   102 C    0.965
   204   1 H    0.997 --    38 C    0.965
 ---------------------------------------------------------------------------

Topologies differ in total number of bonds
Writing topology from bond orders to xtbtopo.mol

molecular dipole:
                 x           y           z       tot (Debye)
 q only:       -0.175       0.684       0.417
   full:       -0.254       0.610       0.047       1.684
molecular quadrupole (traceless):
                xx          xy          yy          xz          yz          zz
 q only:      -29.920      34.885      60.630      -4.865      -2.543     -30.709
  q+dip:       -3.831      35.250      94.084      -3.027       0.080     -90.253
   full:      -31.658      36.375      68.294      -2.945      -0.742     -36.636


           -------------------------------------------------
          | TOTAL ENERGY             -399.778772789006 Eh   |
          | GRADIENT NORM               0.000623310802 Eh/α |
          | HOMO-LUMO GAP               0.115753036291 eV   |
           -------------------------------------------------

------------------------------------------------------------------------
 * finished run on 2025/12/08 at 00:52:12.498     
------------------------------------------------------------------------
 total:
 * wall-time:     0 d,  0 h,  0 min,  0.847 sec
 *  cpu-time:     0 d,  0 h,  0 min, 10.953 sec
 * ratio c/w:    12.932 speedup
 SCF:
 * wall-time:     0 d,  0 h,  0 min,  0.711 sec
 *  cpu-time:     0 d,  0 h,  0 min,  9.609 sec
 * ratio c/w:    13.515 speedup

normal termination of xtb
