      -----------------------------------------------------------      
     |                   =====================                   |     
     |                           x T B                           |     
     |                   =====================                   |     
     |                         S. Grimme                         |     
     |          Mulliken Center for Theoretical Chemistry        |     
     |                    University of Bonn                     |     
      -----------------------------------------------------------      

   * xtb version 6.7.1pre (5071a88) compiled by 'Marcel@Raven' on 2024-07-23

   xtb is free software: you can redistribute it and/or modify it under
   the terms of the GNU Lesser General Public License as published by
   the Free Software Foundation, either version 3 of the License, or
   (at your option) any later version.
   
   xtb is distributed in the hope that it will be useful,
   but WITHOUT ANY WARRANTY; without even the implied warranty of
   MERCHANTABILITY or FITNESS FOR A PARTICULAR PURPOSE.  See the
   GNU Lesser General Public License for more details.
   
   Cite this work as:
   * C. Bannwarth, E. Caldeweyher, S. Ehlert, A. Hansen, P. Pracht,
     J. Seibert, S. Spicher, S. Grimme, WIREs Comput. Mol. Sci., 2020, 11,
     e01493. DOI: 10.1002/wcms.1493
   
   for GFN2-xTB:
   * C. Bannwarth, S. Ehlert and S. Grimme., J. Chem. Theory Comput., 2019,
     15, 1652-1671. DOI: 10.1021/acs.jctc.8b01176
   for GFN1-xTB:
   * S. Grimme, C. Bannwarth, P. Shushkov, J. Chem. Theory Comput., 2017,
     13, 1989-2009. DOI: 10.1021/acs.jctc.7b00118
   for GFN0-xTB:
   * P. Pracht, E. Caldeweyher, S. Ehlert, S. Grimme, ChemRxiv, 2019, preprint.
     DOI: 10.26434/chemrxiv.8326202.v1
   for GFN-FF:
   * S. Spicher and S. Grimme, Angew. Chem. Int. Ed., 2020, 59, 15665-15673.
     DOI: 10.1002/anie.202004239
   
   for ALPB and GBSA implicit solvation:
   * S. Ehlert, M. Stahn, S. Spicher, S. Grimme, J. Chem. Theory Comput.,
     2021, 17, 4250-4261. DOI: 10.1021/acs.jctc.1c00471
   
   for ddCOSMO and CPCM-X implicit solvation:
   * M. Stahn, S. Ehlert, S. Grimme, J. Phys. Chem. A,
     2023, XX, XXXX-XXXX. DOI: 10.1021/acs.jpca.3c04382
   
   for DFT-D4:
   * E. Caldeweyher, C. Bannwarth and S. Grimme, J. Chem. Phys., 2017,
     147, 034112. DOI: 10.1063/1.4993215
   * E. Caldeweyher, S. Ehlert, A. Hansen, H. Neugebauer, S. Spicher,
     C. Bannwarth and S. Grimme, J. Chem. Phys., 2019, 150, 154122.
     DOI: 10.1063/1.5090222
   * E. Caldeweyher, J.-M. Mewes, S. Ehlert and S. Grimme, Phys. Chem. Chem. Phys.
     2020, 22, 8499-8512. DOI: 10.1039/D0CP00502A
   
   for sTDA-xTB:
   * S. Grimme and C. Bannwarth, J. Chem. Phys., 2016, 145, 054103.
     DOI: 10.1063/1.4959605
   
   in the mass-spec context:
   * V. Asgeirsson, C. Bauer and S. Grimme, Chem. Sci., 2017, 8, 4879.
     DOI: 10.1039/c7sc00601b
   * J. Koopman and S. Grimme, ACS Omega 2019, 4, 12, 15120-15133.
     DOI: 10.1021/acsomega.9b02011
   
   for metadynamics refer to:
   * S. Grimme, J. Chem. Theory Comput., 2019, 155, 2847-2862
     DOI: 10.1021/acs.jctc.9b00143
   
   for SPH calculations refer to:
   * S. Spicher and S. Grimme, J. Chem. Theory Comput., 2021, 17, 1701-1714
     DOI: 10.1021/acs.jctc.0c01306
   
   for ONIOM refer to:
   * C. Plett, A. Katbashev, S. Ehlert, S. Grimme, M. Bursch,
     Phys. Chem. Chem. Phys., 2023, 25, 17860-17868. DOI: 10.1039/D3CP02178E
   
   for DIPRO refer to:
   * J. Kohn, N. Gildemeister, S. Grimme, D. Fazzi, A. Hansen,
     J. Chem. Phys., 2023, just accepted.
   
   for PTB refer to:
   * S. Grimme, M. Mueller, A. Hansen, J. Chem. Phys., 2023, 158, 124111.
     DOI: 10.1063/5.0137838
   
   with help from (in alphabetical order)
   P. Atkinson, C. Bannwarth, F. Bohle, G. Brandenburg, E. Caldeweyher
   M. Checinski, S. Dohm, S. Ehlert, S. Ehrlich, I. Gerasimov, C. Hölzer
   A. Katbashev, J. Kohn, J. Koopman, C. Lavigne, S. Lehtola, F. März, M. Müller,
   F. Musil, H. Neugebauer, J. Pisarek, C. Plett, P. Pracht, F. Pultar,
   J. Seibert, P. Shushkov, S. Spicher, M. Stahn, M. Steiner, T. Strunk,
   J. Stückrath, T. Rose, and J. Unsleber
   
 * started run on 2025/12/08 at 00:51:37.805     
   ID    Z sym.   atoms
    1    6 C      1-161
    2    1 H      162-192, 202-204
    3    8 O      193-201

           -------------------------------------------------
          |                Calculation Setup                |
           -------------------------------------------------

          program call               : xtb "C:\Users\LENOVO GAMING\Documents\GitHub\molecular-conductivity-sim\dataset\2nm-9Odoped-5percent.xyz" --opt --parallel 4
          coordinate file            : C:\Users\LENOVO GAMING\Documents\GitHub\molecular-conductivity-sim\dataset\2nm-9Odoped-5percent.xyz
          omp threads                :                     4


           -------------------------------------------------
          |                 G F N 2 - x T B                 |
           -------------------------------------------------

        Reference                      10.1021/acs.jctc.8b01176
      * Hamiltonian:
        H0-scaling (s, p, d)           1.850000    2.230000    2.230000
        zeta-weighting                 0.500000
      * Dispersion:
        s8                             2.700000
        a1                             0.520000
        a2                             5.000000
        s9                             5.000000
      * Repulsion:
        kExp                           1.500000    1.000000
        rExp                           1.000000
      * Coulomb:
        alpha                          2.000000
        third order                    shell-resolved
        anisotropic                    true
        a3                             3.000000
        a5                             4.000000
        cn-shift                       1.200000
        cn-exp                         4.000000
        max-rad                        5.000000


          ...................................................
          :                      SETUP                      :
          :.................................................:
          :  # basis functions                 714          :
          :  # atomic orbitals                 714          :
          :  # shells                          374          :
          :  # electrons                       732          :
          :  max. iterations                   250          :
          :  Hamiltonian                  GFN2-xTB          :
          :  restarted?                      false          :
          :  GBSA solvation                  false          :
          :  PC potential                    false          :
          :  electronic temp.          300.0000000     K    :
          :  accuracy                    1.0000000          :
          :  -> integral cutoff          0.2500000E+02      :
          :  -> integral neglect         0.1000000E-07      :
          :  -> SCF convergence          0.1000000E-05 Eh   :
          :  -> wf. convergence          0.1000000E-03 e    :
          :  Broyden damping             0.4000000          :
          :  net charge                          0          :
          :  unpaired electrons                  0          :
          ...................................................

 iter      E             dE          RMSdq      gap      omega  full diag
   1   -406.0924732 -0.406092E+03  0.487E+00    0.16       0.0  T
   2   -403.9602523  0.213222E+01  0.352E+00    0.20       1.0  T
   3   -281.2972739  0.122663E+03  0.747E+00    0.03       1.0  T
   4   -277.2130073  0.408427E+01  0.795E+00    0.05       1.0  T
   5   -387.5509338 -0.110338E+03  0.453E+00    0.02       1.0  T
   6   -399.1422462 -0.115913E+02  0.295E+00    0.22       1.0  T
   7   -386.7955677  0.123467E+02  0.353E+00    0.06       1.0  T
   8   -402.5781525 -0.157826E+02  0.183E+00    0.08       1.0  T
   9   -406.0457048 -0.346755E+01  0.105E+00    0.09       1.0  T
  10   -406.1727855 -0.127081E+00  0.859E-01    0.20       1.0  T
  11   -406.2285451 -0.557596E-01  0.774E-01    0.14       1.0  T
  12   -406.3082444 -0.796992E-01  0.688E-01    0.28       1.0  T
  13   -406.3480433 -0.397989E-01  0.542E-01    0.17       1.0  T
  14   -406.4289588 -0.809155E-01  0.400E-01    0.10       1.0  T
  15   -406.4522465 -0.232877E-01  0.318E-01    0.13       1.0  T
  16   -406.4873134 -0.350669E-01  0.253E-01    0.15       1.0  T
  17   -406.5120895 -0.247761E-01  0.177E-01    0.16       1.0  T
  18   -406.5225585 -0.104691E-01  0.149E-01    0.16       1.0  T
  19   -406.5285353 -0.597675E-02  0.100E-01    0.17       1.0  T
  20   -406.5292035 -0.668238E-03  0.116E-01    0.10       1.0  T
  21   -406.5336637 -0.446020E-02  0.609E-02    0.14       1.0  T
  22   -406.5353278 -0.166406E-02  0.302E-02    0.14       1.0  T
  23   -406.5352274  0.100352E-03  0.254E-02    0.15       1.0  T
  24   -406.5353837 -0.156307E-03  0.173E-02    0.14       1.0  T
  25   -406.5355651 -0.181317E-03  0.820E-03    0.14       1.0  T
  26   -406.5356082 -0.431355E-04  0.634E-03    0.13       1.1  T
  27   -406.5356381 -0.299306E-04  0.490E-03    0.13       1.4  T
  28   -406.5356550 -0.168766E-04  0.291E-03    0.13       2.4  T
  29   -406.5356592 -0.418577E-05  0.120E-03    0.13       5.8  T
  30   -406.5356595 -0.339306E-06  0.568E-04    0.13      12.3  T
  31   -406.5356597 -0.154417E-06  0.501E-04    0.13      14.0  T

   *** convergence criteria satisfied after 31 iterations ***

         #    Occupation            Energy/Eh            Energy/eV
      -------------------------------------------------------------
         1        2.0000           -0.7634220             -20.7738
       ...           ...                  ...                  ...
       360        2.0000           -0.3594138              -9.7801
       361        2.0000           -0.3562477              -9.6940
       362        2.0000           -0.3547756              -9.6539
       363        2.0000           -0.3437776              -9.3547
       364        2.0000           -0.3289770              -8.9519
       365        1.9993           -0.3260601              -8.8725
       366        1.8566           -0.3209809              -8.7343 (HOMO)
       367        0.1441           -0.3161201              -8.6021 (LUMO)
       368        0.0000           -0.3050620              -8.3012
       369                         -0.2989125              -8.1338
       370                         -0.2915724              -7.9341
       371                         -0.2885502              -7.8519
       ...                                ...                  ...
       714                          0.7606676              20.6988
      -------------------------------------------------------------
                  HL-Gap            0.0048608 Eh            0.1323 eV
             Fermi-level           -0.3185477 Eh           -8.6681 eV

 SCC (total)                   0 d,  0 h,  0 min,  4.469 sec
 SCC setup                      ...        0 min,  0.004 sec (  0.090%)
 Dispersion                     ...        0 min,  0.012 sec (  0.269%)
 classical contributions        ...        0 min,  0.001 sec (  0.022%)
 integral evaluation            ...        0 min,  0.069 sec (  1.544%)
 iterations                     ...        0 min,  4.073 sec ( 91.139%)
 molecular gradient             ...        0 min,  0.299 sec (  6.691%)
 printout                       ...        0 min,  0.011 sec (  0.246%)

         :::::::::::::::::::::::::::::::::::::::::::::::::::::
         ::                     SUMMARY                     ::
         :::::::::::::::::::::::::::::::::::::::::::::::::::::
         :: total energy            -399.746252296624 Eh    ::
         :: gradient norm              0.083893018043 Eh/a0 ::
         :: HOMO-LUMO gap              0.132269319887 eV    ::
         ::.................................................::
         :: SCC energy              -406.550169985607 Eh    ::
         :: -> isotropic ES            0.102958470286 Eh    ::
         :: -> anisotropic ES          0.017029849532 Eh    ::
         :: -> anisotropic XC          0.111772423485 Eh    ::
         :: -> dispersion             -0.477644419350 Eh    ::
         :: repulsion energy           6.803917688983 Eh    ::
         :: add. restraining           0.000000000000 Eh    ::
         :: total charge              -0.000000000000 e     ::
         :::::::::::::::::::::::::::::::::::::::::::::::::::::

      ----------------------------------------------------------- 
     |                   =====================                   |
     |                        A N C O P T                        |
     |                   =====================                   |
     |               Approximate Normal Coordinate               |
     |                Rational Function Optimizer                |
      ----------------------------------------------------------- 
      ----------------------------------------------------------- 
     |                   =====================                   |
     |                        A N C O P T                        |
     |                   =====================                   |
     |               Approximate Normal Coordinate               |
     |                Rational Function Optimizer                |
      ----------------------------------------------------------- 

          ...................................................
          :                      SETUP                      :
          :.................................................:
          :   optimization level            normal          :
          :   max. optcycles                   612          :
          :   ANC micro-cycles                  20          :
          :   degrees of freedom               606          :
          :.................................................:
          :   RF solver                   davidson          :
          :   write xtbopt.log                true          :
          :   linear?                        false          :
          :   energy convergence         0.5000000E-05 Eh   :
          :   grad. convergence          0.1000000E-02 Eh/α :
          :   maxmium RF displ.          1.0000000          :
          :   Hlow (freq-cutoff)         0.1000000E-01      :
          :   Hmax (freq-cutoff)         5.0000000          :
          :   S6 in model hess.         20.0000000          :
          ...................................................

generating ANC from exact Hessian ...
Using Lindh-Hessian (1995)
 Shifting diagonal of input Hessian by   9.941909811219339E-003
 Lowest  eigenvalues of input Hessian
    0.000000    0.000000    0.000000    0.000000    0.000000    0.000000
    0.010000    0.010092    0.010121    0.010211    0.010234    0.010749
    0.010778    0.010810    0.010917    0.011047    0.011728    0.011776
 Highest eigenvalues
    2.143476    2.149749    2.157272    2.175638    2.179209    2.195491
 

........................................................................
.............................. CYCLE    1 ..............................
........................................................................

 iter      E             dE          RMSdq      gap      omega  full diag
   1   -406.5356597 -0.406536E+03  0.369E-04    0.13       0.0  T
   2   -406.5356586  0.109563E-05  0.141E-03    0.13       5.0  T
   3   -406.5356583  0.239896E-06  0.153E-03    0.13       4.6  T
   4   -406.5356580  0.270707E-06  0.170E-03    0.13       4.1  T
   5   -406.5356594 -0.137080E-05  0.779E-04    0.13       9.0  T
   6   -406.5356597 -0.312294E-06  0.155E-04    0.13      45.2  T
   7   -406.5356597 -0.775691E-08  0.724E-05    0.13      96.7  T
     SCC iter.                  ...        0 min,  0.931 sec
     gradient                   ...        0 min,  0.435 sec
 * total energy  :  -399.7462524 Eh     change       -0.6095684E-07 Eh
   gradient norm :     0.0838976 Eh/α   predicted     0.0000000E+00 (-100.00%)
   displ. norm   :     0.5286310 α      lambda       -0.2244307E-01
   maximum displ.:     0.2164221 α      in ANC's #46, #39, #41, ...

........................................................................
.............................. CYCLE    2 ..............................
........................................................................

 iter      E             dE          RMSdq      gap      omega  full diag
   1   -406.6844956 -0.406684E+03  0.124E-01    0.12       0.0  T
   2   -406.6808340  0.366162E-02  0.118E-01    0.18       1.0  T
   3   -406.5877138  0.931202E-01  0.422E-01    0.07       1.0  T
   4   -406.6800970 -0.923831E-01  0.103E-01    0.18       1.0  T
   5   -406.6840620 -0.396501E-02  0.631E-02    0.15       1.0  T
   6   -406.6831980  0.863981E-03  0.602E-02    0.16       1.0  T
   7   -406.6847070 -0.150899E-02  0.358E-02    0.15       1.0  T
   8   -406.6850601 -0.353139E-03  0.238E-02    0.14       1.0  T
   9   -406.6850838 -0.236852E-04  0.214E-02    0.14       1.0  T
  10   -406.6851999 -0.116042E-03  0.127E-02    0.14       1.0  T
  11   -406.6852596 -0.596988E-04  0.159E-03    0.13       4.4  T
  12   -406.6852602 -0.630605E-06  0.804E-04    0.13       8.7  T
  13   -406.6852604 -0.246483E-06  0.315E-04    0.13      22.2  T
     SCC iter.                  ...        0 min,  2.320 sec
     gradient                   ...        0 min,  0.440 sec
 * total energy  :  -399.7638661 Eh     change       -0.1761373E-01 Eh
   gradient norm :     0.0481067 Eh/α   predicted    -0.1435872E-01 ( -18.48%)
   displ. norm   :     0.6173792 α      lambda       -0.1447960E-01
   maximum displ.:     0.2864455 α      in ANC's #46, #39, #41, ...

........................................................................
.............................. CYCLE    3 ..............................
........................................................................

 iter      E             dE          RMSdq      gap      omega  full diag
   1   -406.8211192 -0.406821E+03  0.133E-01    0.11       0.0  T
   2   -406.7982761  0.228431E-01  0.220E-01    0.25       1.0  T
   3   -406.7684661  0.298100E-01  0.301E-01    0.07       1.0  T
   4   -406.8158778 -0.474117E-01  0.121E-01    0.19       1.0  T
   5   -406.8179850 -0.210716E-02  0.926E-02    0.16       1.0  T
   6   -406.8222042 -0.421928E-02  0.409E-02    0.14       1.0  T
   7   -406.8225705 -0.366278E-03  0.256E-02    0.13       1.0  T
   8   -406.8227262 -0.155715E-03  0.188E-02    0.13       1.0  T
   9   -406.8228327 -0.106507E-03  0.128E-02    0.13       1.0  T
  10   -406.8228767 -0.439985E-04  0.564E-03    0.12       1.2  T
  11   -406.8228940 -0.172238E-04  0.174E-03    0.12       4.0  T
  12   -406.8228949 -0.940536E-06  0.462E-04    0.12      15.2  T
  13   -406.8228948  0.119201E-06  0.616E-04    0.12      11.4  T
     SCC iter.                  ...        0 min,  2.290 sec
     gradient                   ...        0 min,  0.443 sec
 * total energy  :  -399.7741497 Eh     change       -0.1028358E-01 Eh
   gradient norm :     0.0178307 Eh/α   predicted    -0.9999299E-02 (  -2.76%)
   displ. norm   :     0.4980806 α      lambda       -0.5173258E-02
   maximum displ.:     0.2320706 α      in ANC's #46, #39, #41, ...

........................................................................
.............................. CYCLE    4 ..............................
........................................................................

 iter      E             dE          RMSdq      gap      omega  full diag
   1   -406.9090402 -0.406909E+03  0.845E-02    0.11       0.0  T
   2   -406.8868165  0.222238E-01  0.204E-01    0.25       1.0  T
   3   -406.9020947 -0.152782E-01  0.114E-01    0.09       1.0  T
   4   -406.9046925 -0.259780E-02  0.944E-02    0.15       1.0  T
   5   -406.9092948 -0.460229E-02  0.393E-02    0.13       1.0  T
   6   -406.9097381 -0.443343E-03  0.237E-02    0.12       1.0  T
   7   -406.9099510 -0.212867E-03  0.884E-03    0.12       1.0  T
   8   -406.9099754 -0.244048E-04  0.360E-03    0.12       1.9  T
   9   -406.9099800 -0.462635E-05  0.191E-03    0.12       3.7  T
  10   -406.9099807 -0.622589E-06  0.135E-03    0.12       5.2  T
  11   -406.9099815 -0.800995E-06  0.615E-04    0.12      11.4  T
  12   -406.9099816 -0.139803E-06  0.214E-04    0.12      32.7  T
     SCC iter.                  ...        0 min,  2.132 sec
     gradient                   ...        0 min,  0.442 sec
 * total energy  :  -399.7776443 Eh     change       -0.3494610E-02 Eh
   gradient norm :     0.0108456 Eh/α   predicted    -0.3228333E-02 (  -7.62%)
   displ. norm   :     0.3120897 α      lambda       -0.1377215E-02
   maximum displ.:     0.1334112 α      in ANC's #46, #39, #41, ...

........................................................................
.............................. CYCLE    5 ..............................
........................................................................

 iter      E             dE          RMSdq      gap      omega  full diag
   1   -406.9521525 -0.406952E+03  0.454E-02    0.11       0.0  T
   2   -406.9469832  0.516930E-02  0.988E-02    0.16       1.0  T
   3   -406.9488194 -0.183623E-02  0.763E-02    0.09       1.0  T
   4   -406.9501745 -0.135514E-02  0.567E-02    0.14       1.0  T
   5   -406.9520907 -0.191619E-02  0.196E-02    0.12       1.0  T
   6   -406.9521764 -0.856810E-04  0.119E-02    0.12       1.0  T
   7   -406.9522329 -0.564754E-04  0.671E-03    0.12       1.0  T
   8   -406.9522526 -0.197276E-04  0.258E-03    0.12       2.7  T
   9   -406.9522536 -0.102218E-05  0.170E-03    0.12       4.1  T
  10   -406.9522546 -0.101830E-05  0.999E-04    0.12       7.0  T
  11   -406.9522550 -0.376631E-06  0.290E-04    0.12      24.2  T
  12   -406.9522550 -0.377254E-07  0.749E-05    0.12      93.5  T
     SCC iter.                  ...        0 min,  2.125 sec
     gradient                   ...        0 min,  0.451 sec
 * total energy  :  -399.7784956 Eh     change       -0.8513523E-03 Eh
   gradient norm :     0.0074072 Eh/α   predicted    -0.7556973E-03 ( -11.24%)
   displ. norm   :     0.1339213 α      lambda       -0.2384741E-03
   maximum displ.:     0.0470971 α      in ANC's #25, #18, #39, ...

........................................................................
.............................. CYCLE    6 ..............................
........................................................................

 iter      E             dE          RMSdq      gap      omega  full diag
   1   -406.9632806 -0.406963E+03  0.219E-02    0.12       0.0  T
   2   -406.9602645  0.301618E-02  0.719E-02    0.09       1.0  T
   3   -406.9627446 -0.248013E-02  0.327E-02    0.13       1.0  T
   4   -406.9632185 -0.473944E-03  0.157E-02    0.11       1.0  T
   5   -406.9632593 -0.407540E-04  0.996E-03    0.12       1.0  T
   6   -406.9633031 -0.437810E-04  0.375E-03    0.12       1.9  T
   7   -406.9633088 -0.568359E-05  0.150E-03    0.12       4.7  T
   8   -406.9633088 -0.821200E-08  0.122E-03    0.12       5.7  T
   9   -406.9633096 -0.806898E-06  0.488E-04    0.12      14.3  T
  10   -406.9633096 -0.486207E-07  0.247E-04    0.12      28.3  T
     SCC iter.                  ...        0 min,  1.794 sec
     gradient                   ...        0 min,  0.459 sec
 * total energy  :  -399.7786480 Eh     change       -0.1523412E-03 Eh
   gradient norm :     0.0036728 Eh/α   predicted    -0.1213819E-03 ( -20.32%)
   displ. norm   :     0.0948866 α      lambda       -0.8788810E-04
   maximum displ.:     0.0381797 α      in ANC's #18, #25, #22, ...

........................................................................
.............................. CYCLE    7 ..............................
........................................................................

 iter      E             dE          RMSdq      gap      omega  full diag
   1   -406.9643836 -0.406964E+03  0.204E-02    0.12       0.0  T
   2   -406.9505897  0.137939E-01  0.154E-01    0.08       1.0  T
   3   -406.9643793 -0.137896E-01  0.166E-02    0.12       1.0  T
   4   -406.9644536 -0.742602E-04  0.112E-02    0.11       1.0  T
   5   -406.9644414  0.121439E-04  0.106E-02    0.12       1.0  T
   6   -406.9644862 -0.448321E-04  0.404E-03    0.12       1.7  T
   7   -406.9644919 -0.563156E-05  0.170E-03    0.11       4.1  T
   8   -406.9644928 -0.914647E-06  0.901E-04    0.12       7.8  T
   9   -406.9644933 -0.483498E-06  0.268E-04    0.12      26.1  T
     SCC iter.                  ...        0 min,  1.568 sec
     gradient                   ...        0 min,  0.448 sec
 * total energy  :  -399.7787041 Eh     change       -0.5617185E-04 Eh
   gradient norm :     0.0017376 Eh/α   predicted    -0.4434076E-04 ( -21.06%)
   displ. norm   :     0.1179283 α      lambda       -0.4263836E-04
   maximum displ.:     0.0525670 α      in ANC's #18, #14, #15, ...

........................................................................
.............................. CYCLE    8 ..............................
........................................................................

 iter      E             dE          RMSdq      gap      omega  full diag
   1   -406.9617262 -0.406962E+03  0.301E-02    0.12       0.0  T
   2   -406.9161204  0.456058E-01  0.283E-01    0.06       1.0  T
   3   -406.9618186 -0.456982E-01  0.236E-02    0.13       1.0  T
   4   -406.9619936 -0.174986E-03  0.130E-02    0.11       1.0  T
   5   -406.9619244  0.691881E-04  0.150E-02    0.12       1.0  T
   6   -406.9620210 -0.965790E-04  0.544E-03    0.12       1.3  T
   7   -406.9620334 -0.123566E-04  0.186E-03    0.12       3.8  T
   8   -406.9620333  0.242275E-07  0.143E-03    0.12       4.9  T
   9   -406.9620346 -0.122690E-05  0.547E-04    0.12      12.8  T
  10   -406.9620346 -0.118623E-07  0.424E-04    0.12      16.5  T
  11   -406.9620346 -0.655326E-07  0.176E-04    0.12      39.9  T
     SCC iter.                  ...        0 min,  1.942 sec
     gradient                   ...        0 min,  0.459 sec
 * total energy  :  -399.7787364 Eh     change       -0.3224505E-04 Eh
   gradient norm :     0.0024904 Eh/α   predicted    -0.2145342E-04 ( -33.47%)
   displ. norm   :     0.0370787 α      lambda       -0.1822190E-04
   maximum displ.:     0.0154530 α      in ANC's #18, #14, #15, ...

........................................................................
.............................. CYCLE    9 ..............................
........................................................................

 iter      E             dE          RMSdq      gap      omega  full diag
   1   -406.9609219 -0.406961E+03  0.956E-03    0.12       0.0  T
   2   -406.9577332  0.318880E-02  0.738E-02    0.09       1.0  T
   3   -406.9609301 -0.319696E-02  0.702E-03    0.12       1.0  T
   4   -406.9609380 -0.791428E-05  0.580E-03    0.11       1.2  T
   5   -406.9609428 -0.476054E-05  0.466E-03    0.11       1.5  T
   6   -406.9609513 -0.851780E-05  0.105E-03    0.12       6.7  T
   7   -406.9609515 -0.225428E-06  0.673E-04    0.12      10.4  T
   8   -406.9609518 -0.221133E-06  0.226E-04    0.12      31.0  T
     SCC iter.                  ...        0 min,  1.422 sec
     gradient                   ...        0 min,  0.463 sec
 * total energy  :  -399.7787503 Eh     change       -0.1394439E-04 Eh
   gradient norm :     0.0015703 Eh/α   predicted    -0.9127744E-05 ( -34.54%)
   displ. norm   :     0.1040200 α      lambda       -0.2124738E-04
   maximum displ.:     0.0427938 α      in ANC's #18, #14, #12, ...

........................................................................
.............................. CYCLE   10 ..............................
........................................................................

 iter      E             dE          RMSdq      gap      omega  full diag
   1   -406.9597535 -0.406960E+03  0.236E-02    0.12       0.0  T
   2   -406.9393890  0.203645E-01  0.188E-01    0.07       1.0  T
   3   -406.9597568 -0.203678E-01  0.190E-02    0.12       1.0  T
   4   -406.9598425 -0.857056E-04  0.142E-02    0.11       1.0  T
   5   -406.9598323  0.102001E-04  0.129E-02    0.12       1.0  T
   6   -406.9599077 -0.753585E-04  0.294E-03    0.12       2.4  T
   7   -406.9599106 -0.287023E-05  0.138E-03    0.12       5.1  T
   8   -406.9599107 -0.163147E-06  0.102E-03    0.12       6.8  T
   9   -406.9599114 -0.645164E-06  0.330E-04    0.12      21.2  T
  10   -406.9599114 -0.101163E-07  0.238E-04    0.12      29.4  T
     SCC iter.                  ...        0 min,  1.791 sec
     gradient                   ...        0 min,  0.467 sec
 * total energy  :  -399.7787631 Eh     change       -0.1281667E-04 Eh
   gradient norm :     0.0015359 Eh/α   predicted    -0.1067647E-04 ( -16.70%)
   displ. norm   :     0.0169200 α      lambda       -0.4537457E-05
   maximum displ.:     0.0063209 α      in ANC's #12, #46, #13, ...

........................................................................
.............................. CYCLE   11 ..............................
........................................................................

 iter      E             dE          RMSdq      gap      omega  full diag
   1   -406.9609189 -0.406961E+03  0.375E-03    0.12       0.0  T
   2   -406.9606991  0.219735E-03  0.191E-02    0.12       1.0  T
   3   -406.9609173 -0.218183E-03  0.317E-03    0.11       2.2  T
   4   -406.9609180 -0.714055E-06  0.307E-03    0.12       2.3  T
   5   -406.9609207 -0.264463E-05  0.155E-03    0.12       4.5  T
   6   -406.9609216 -0.914860E-06  0.460E-04    0.12      15.2  T
   7   -406.9609217 -0.823256E-07  0.120E-04    0.12      58.4  T
     SCC iter.                  ...        0 min,  1.229 sec
     gradient                   ...        0 min,  0.452 sec
 * total energy  :  -399.7787682 Eh     change       -0.5080264E-05 Eh
   gradient norm :     0.0006904 Eh/α   predicted    -0.2270864E-05 ( -55.30%)
   displ. norm   :     0.0470252 α      lambda       -0.5115318E-05
   maximum displ.:     0.0217620 α      in ANC's #12, #13, #6, ...

........................................................................
.............................. CYCLE   12 ..............................
........................................................................

 iter      E             dE          RMSdq      gap      omega  full diag
   1   -406.9617760 -0.406962E+03  0.708E-03    0.11       0.0  T
   2   -406.9614629  0.313136E-03  0.229E-02    0.12       1.0  T
   3   -406.9617457 -0.282866E-03  0.828E-03    0.11       1.0  T
   4   -406.9617686 -0.228232E-04  0.568E-03    0.12       1.2  T
   5   -406.9617786 -0.100739E-04  0.198E-03    0.12       3.5  T
   6   -406.9617798 -0.118488E-05  0.868E-04    0.12       8.1  T
   7   -406.9617801 -0.318560E-06  0.226E-04    0.12      31.0  T
   8   -406.9617801 -0.582952E-08  0.144E-04    0.12      48.7  T
     SCC iter.                  ...        0 min,  1.419 sec
     gradient                   ...        0 min,  0.444 sec
 * total energy  :  -399.7787728 Eh     change       -0.4550666E-05 Eh
   gradient norm :     0.0006226 Eh/α   predicted    -0.2561497E-05 ( -43.71%)
   displ. norm   :     0.0534231 α      lambda       -0.3218095E-05
   maximum displ.:     0.0249749 α      in ANC's #12, #13, #6, ...

   *** GEOMETRY OPTIMIZATION CONVERGED AFTER 12 ITERATIONS ***

------------------------------------------------------------------------
 total energy gain   :        -0.0325205 Eh      -20.4069 kcal/mol
 total RMSD          :         0.1446567 a0        0.0765 Å
 total power (kW/mol):        -7.1152094 (step)   -3.0451 (real)
------------------------------------------------------------------------

 ANCopt (total)                0 d,  0 h,  0 min, 28.039 sec
 optimizer setup                ...        0 min,  0.003 sec (  0.011%)
 model hessian                  ...        0 min,  0.152 sec (  0.542%)
 ANC generation                 ...        0 min,  0.069 sec (  0.246%)
 coordinate transformation      ...        0 min,  0.005 sec (  0.018%)
 single point calculation       ...        0 min, 27.767 sec ( 99.030%)
 optimization log               ...        0 min,  0.028 sec (  0.100%)
 hessian update                 ...        0 min,  0.007 sec (  0.025%)
 rational function              ...        0 min,  0.008 sec (  0.029%)

================
 final structure:
================
204
 xtb: 6.7.1pre (5071a88)
C           -9.84519530053338       -8.21658971941973       -0.79237816853271
C           -9.21491652696650       -9.44349141298745       -0.97318874277916
C           -7.84749412081633       -9.56315194512656       -0.89071928325965
C           -7.04602211386561       -8.44538395674997       -0.61396260430470
C           -9.08593727902819       -7.09837335399145       -0.50462992952915
C           -7.68142216069801       -7.20261923116773       -0.39245700836432
C           -6.92505737596220       -6.06014711428360       -0.02298902382742
C           -9.70663301435676       -3.57392743035118       -0.05818284634770
C           -9.04003033445531       -4.79507587917341       -0.05259005337787
C           -7.65180598002548       -4.85220391585392        0.16016517778563
C           -6.97576997122303       -3.66545820677095        0.48171158127183
C           -9.67498709468912       -1.10673922163086       -0.01299019381695
C           -9.04371925531743       -2.38039389340119        0.23371296421230
C           -7.68615689254364       -2.46049602559563        0.65773542589945
C           -6.98474994796358       -1.32389773339180        1.09916530908823
C           -9.78905862974373        1.31450628066953       -0.48312246573074
C           -9.07323731326290        0.08195596478199       -0.32261521415948
C           -7.02292312266474        1.26386151881426       -0.18896849084472
C           -9.10213045167227        2.48855954886830       -0.53719059023784
C           -7.67400984072732        2.47567565486719       -0.31640878971135
C           -6.97307218803814        3.69290179334051       -0.21278915401495
C           -9.78563002627871        6.00881338605492       -0.79118994393029
C           -9.08371217891062        4.84954476904433       -0.62674882007823
C           -7.68400357361660        4.89373066826222       -0.39324124457035
C           -7.00257606158878        6.12208786482855       -0.36344406734541
C           -9.84332438172806        8.45979540624310       -0.90533397744266
C           -9.12909784575434        7.26561872913019       -0.74545028930405
C           -7.72534404126909        7.32612050221631       -0.54398753201755
C           -7.04924818212087        8.57166376243275       -0.52750501622980
C           -9.18510312948839        9.66850734122481       -0.86658409449031
C           -7.81234362228719        9.72934959067217       -0.68446205758047
C           -5.61327884650741       -8.46924059906564       -0.58519365215585
C           -4.84886034399885       -9.64992946023044       -0.85888517071961
C           -3.50578435064078       -9.67577385708968       -0.65079360914484
C           -2.79752876903516       -8.49524798645158       -0.29849937462076
C           -5.52696984160890       -6.10954562752821        0.14246256841934
C           -4.88699261874803       -7.31982427789318       -0.28169646700060
C           -2.72828615104261       -6.03341662322867        1.22695990885007
C           -5.57204734763932       -3.69756767300200        0.65256723769347
C           -4.86226379290010       -4.91990616564422        0.61530307881670
C           -3.47636682885509       -4.87810458546764        0.93451322225611
C           -2.79603024289256       -3.64203066503909        0.83127872450349
C           -5.62396229768935       -1.23238018056719        0.84205479086184
C           -4.90073683531438       -2.45247117144621        0.74801503498100
C           -3.50096941820377       -2.42326339563110        0.74453091960906
C           -2.81762694774061       -1.18446218778761        0.72743573330215
C           -5.65018223795115        1.21233623423680        0.22301370375615
C           -4.95428683421559        0.01943404719598        0.59678198178806
C           -3.54335938077290        0.03282525739298        0.62566267793681
C           -2.82532428443942        1.25630134456183        0.52811432164893
C           -5.58859729082807        3.68434550618658       -0.00194750919386
C           -4.93090345787961        2.44626032586091        0.20898720847310
C           -3.52500738352606        2.46959593425346        0.38206963395963
C           -2.81095758020407        3.70198235337720        0.33175554227659
C           -5.59849421949020        6.13109627680128       -0.16713651155096
C           -4.89297717799881        4.92396066481300        0.00460970706437
C           -3.48590285154239        4.93052151180301        0.16870607153484
C           -2.77689725914366        6.16347884034795        0.16091127319036
C           -5.61588427508065        8.58346147061829       -0.36027142970462
C           -4.90173014494310        7.37419719937566       -0.17026651449997
C           -3.50068486969678        7.38655115922555       -0.00529116221605
C           -2.76808324972502        8.59941666929420       -0.05980279203785
C           -4.86829662666785        9.76743423798690       -0.40309860216667
C           -3.50724477903429        9.78250838223480       -0.27426794848207
C           -1.45727692436154       -8.45712127844913        0.11103150489793
C           -0.68204672203176       -9.66303959351056        0.06481913156083
C            0.66798151900279       -9.66411457691332        0.03639320925810
C            1.44813984325902       -8.46032867760660        0.04813718970671
C           -1.38001916320952       -6.08204115327861        0.90422902419411
C           -0.69169951917059       -7.29899746726494        0.53912911313002
C            0.70559028255704       -7.29952832629823        0.50650338615028
C            1.40963725358085       -6.08131387067961        0.83636581134729
C           -1.39073369239223       -3.63159594048507        0.83800970717163
C           -0.69113171242244       -4.85121927026291        0.78966038226089
C            0.71270647806312       -4.85401211807825        0.75374026280482
C            1.41271826861964       -3.63403480639484        0.76155124689789
C           -1.41053100604879       -1.18059870498245        0.74727110108052
C           -0.69737318324520       -2.40163386408191        0.79641622705247
C            0.70732202844783       -2.40852873325420        0.75811154213768
C            1.41188250890550       -1.18960019316595        0.67727120089809
C           -1.41171753215450        1.25983446536522        0.57749949042505
C           -0.70396367326755        0.04249522958100        0.67566620097208
C            0.70650785864402        0.03184646174779        0.65229090128079
C            1.41555806453910        1.25060840374351        0.56318249185811
C           -1.40411492581918        3.70570034954546        0.40731086253034
C           -0.70017291310278        2.48277481961752        0.50654415634747
C            0.71109068978018        2.47081844672606        0.51365791030598
C            1.42405809392403        3.69320932054068        0.42900290059740
C           -1.38791551251068        6.14306692757379        0.29198422118474
C           -0.68689984885967        4.93578115301739        0.37219906635356
C            0.73009263788015        4.90518170490001        0.38382604847402
C            1.43563328472724        6.14042809079030        0.27080813465267
C           -1.36621670800788        8.63492496503020        0.08031740838146
C            0.78166420772823        7.35919269711539        0.24050777282263
C            1.48358073255892        8.57863733659798        0.12316087451808
C           -0.58563251130216        9.77814168404828       -0.00156382971104
C            0.78106841043756        9.80556916100415        0.06175412860728
C            2.77260477777931       -8.50670751889646       -0.41285434439684
C            3.45743234702766       -9.69905944636177       -0.76957716950106
C            4.79910566580768       -9.68996041232021       -0.98853329554582
C            5.57646289753220       -8.51756108263434       -0.72833036916910
C            2.77704507803705       -6.03132361145046        1.08519160988630
C            4.87138716698749       -7.34979238564387       -0.46481324911509
C            5.53437543106587       -6.12817527857395       -0.11007341852973
C            2.81750832566895       -3.65302460961088        0.67042535848374
C            3.50667290968931       -4.88446090564453        0.73356884089366
C            4.88339041701425       -4.93448490873566        0.32975117202982
C            5.58565403408214       -3.70421519306887        0.27272609047005
C            2.81925465685465       -1.20717993088726        0.57859071152846
C            3.51850841177577       -2.43233603739867        0.54852521086846
C            4.91743939958162       -2.45681887327764        0.41338053609194
C            5.62637686345801       -1.23878757815633        0.32113255642300
C            2.82566570665599        1.23269921865107        0.49615356024444
C            3.52757964985655        0.00937422703112        0.49276205175726
C            4.93450870732281       -0.01266916663881        0.37260096690753
C            5.64555245208640        1.20549888465524        0.26290003390937
C            2.84097932522090        3.67049075218016        0.36174599580017
C            3.53512606621219        2.44888114479554        0.38808609059726
C            4.94467572131954        2.42630371220952        0.27660796290348
C            5.65011078044606        3.64197497041592        0.14798112783354
C            2.85352191244111        6.11066359218967        0.18351481013677
C            3.55135226793100        4.88553435017083        0.23074421734540
C            4.95646431793185        4.87148995475314        0.12943153672666
C            5.68030810656592        6.08011867332302       -0.01182855269089
C            2.88924802850161        8.52361977884979        0.02383568909949
C            3.58219644630471        7.30916726649991        0.05719320364467
C            4.99800222152148        7.29066388463813       -0.04033236668678
C            5.69296108295794        8.54640296366869       -0.17940434588697
C            4.92010906673232        9.66819432890012       -0.20337212877010
C            7.01374587237734       -8.52276291077028       -0.73537581567486
C            7.77020503814830       -9.67909499092541       -0.92840098918408
C            9.15100191715077       -9.61962197794956       -1.00462610038774
C            9.81118665238393       -8.41413330555353       -0.90249267743556
C            6.95302650454490       -6.10480345411000       -0.29339508582326
C            7.68383808754350       -7.28409241277217       -0.57934973877871
C            9.10009093723863       -7.22826352182788       -0.68980746746979
C            9.77428479915605       -5.98472514999584       -0.59189139944325
C            6.97103815931275       -3.68656900401603        0.03007715801415
C            7.66173641203834       -4.88578245932442       -0.18996631145628
C            9.07462970465008       -4.83522596642831       -0.37074189533823
C            7.03224496528837       -1.24061951864449        0.13456506323990
C            7.69870050645711       -2.46556433953993       -0.00166522441819
C            9.09585385922730       -2.47216924842243       -0.19518664276714
C            9.80739687671083       -1.28719804432303       -0.24936508668717
C            7.05207493249153        1.19160577355473        0.11272372600821
C            7.75210043000846       -0.03069469562473        0.04480027347920
C            9.15763499243167       -0.04029419127930       -0.14356427553478
C            9.83984015786526        1.20283620301568       -0.23700730295222
C            7.04683297573767        3.62316754919438        0.01370811226585
C            7.75034015159913        2.40686932722083       -0.00656641402072
C            9.16049504623654        2.39621481301179       -0.17320813419875
C            7.10195973345279        6.05932596671465       -0.13582782727857
C            7.77257381495749        4.83336590827287       -0.12776186178711
C            9.18333848761647        4.77210389196892       -0.26639415514134
C            9.88939238494005        5.94088703631520       -0.39082840946807
C            7.14832846325852        8.52576160119010       -0.29033392704397
C            7.81910724023268        7.27140496924053       -0.27329874279257
C            9.23275300145893        7.19825238618185       -0.39364070094243
C            9.95351867269488        8.39834210989331       -0.51935092740079
C            7.91258348397773        9.67541618501902       -0.41593250855423
C            9.29966508207395        9.60554561643644       -0.52680784793116
H          -10.91602333795242       -8.12038132605113       -0.86957768735902
H           -9.81624033232180      -10.31381204604723       -1.18880902027620
H           -7.39771677125213      -10.53054893567013       -1.04234703108155
H          -10.74446433709073       -3.55988261497720       -0.35390404253467
H          -10.75463468822493       -1.11066806806623       -0.05396488659568
H          -10.86429740235582        1.29881524010826       -0.51818624050103
H          -10.85016996975472        5.97228699176662       -0.96224302144509
H          -10.91161110144106        8.41954064861148       -1.05707537832234
H           -5.35460805834559      -10.54895527608392       -1.16766366697441
H           -2.97737207954491      -10.60628468027150       -0.75837956400413
H           -1.18635177645808      -10.61442252761835        0.02548054454963
H            1.16671814588270      -10.61712339123766       -0.02371085713928
H            2.91730886646964      -10.62389965584782       -0.86590299538554
H            5.29007636711659      -10.59646988697100       -1.29916232395659
H            7.28912324119049      -10.63944744316622       -1.01927885749391
H            9.71372951068712      -10.52961021445595       -1.15465371111413
H           10.88754566585444       -8.37248126174790       -0.97873535475476
H           10.84565845881606       -5.94985393318969       -0.70959161593302
H           10.87599062099470       -1.32611198039733       -0.39285244070291
H           10.91010233143803        1.20998117822766       -0.37286799636326
H           10.96295336591191        5.90926431279542       -0.49238493888109
H           11.02877976701696        8.35727501377218       -0.60961203739992
H            9.86407115438204       10.52166287018756       -0.62188698928927
H           -9.74253619825005       10.58678823801955       -0.98371019843321
H           -7.34480517452250       10.70041178337744       -0.66425340889525
H           -5.36673579822291       10.71123642501873       -0.55387700868084
H           -3.00448951389290       10.73287664530886       -0.32973408352882
H           -1.10689949252830       10.70681922447078       -0.15155794216242
H            1.32911474204368       10.72676087175711       -0.00770297154882
H            5.30995866493655       10.66905165086524       -0.30474776884799
H            7.44080703444148       10.64508203140780       -0.42913457951976
O            3.57803621389027        9.69523483814289       -0.10776444611217
O           -0.66258793881889        7.38454935122406        0.46830784618975
O           -9.76266264126053        3.65951025866616       -0.68931859261122
O           -7.70662252310929        0.13203398012091       -0.50580398249064
O            9.84878598661028        3.57632969620135       -0.28226743987518
O            9.76382887340713       -3.65174399070276       -0.33240194763894
O            3.50859394839447       -7.35045503377614       -0.61217687275288
O           -3.53108711045531       -7.32778090616933       -0.44920451324482
O           -9.74669892329544       -5.91920193882578       -0.34075466348622
H           -7.51899723486381       -0.51659948573411        1.57656855660894
H            3.28592734525432       -6.88598137402319        1.50592878254458
H           -3.21680060760499       -6.88890053166273        1.67015415705062
 
 Bond Distances (Angstroems)
 ---------------------------
C1-C2=1.3911         C1-C5=1.3819         C1-H162=1.0779       C2-C1=1.3911         C2-C3=1.3751         C2-H163=1.0796       
C3-C2=1.3751         C3-C4=1.4030         C3-H164=1.0776       C4-C3=1.4030         C4-C6=1.4132         C4-C32=1.4332        
C5-C1=1.3819         C5-C6=1.4128         C5-O201=1.3616       C6-C4=1.4132         C6-C5=1.4128         C6-C7=1.4191         
C7-C6=1.4191         C7-C10=1.4216        C7-C36=1.4087        C8-C9=1.3913         C8-C13=1.3961        C8-H165=1.0792       
C9-C8=1.3913         C9-C10=1.4056        C9-O201=1.3587       C10-C7=1.4216        C10-C9=1.4056        C10-C11=1.4031       
C11-C10=1.4031       C11-C14=1.4098       C11-C39=1.4144       C12-C13=1.4428       C12-C17=1.3678       C12-H166=1.0804      
C13-C8=1.3961        C13-C12=1.4428       C13-C14=1.4245       C14-C11=1.4098       C14-C13=1.4245       C14-C15=1.4067       
C15-C14=1.4067       C15-C43=1.3879       C15-H202=1.0794      C16-C17=1.4343       C16-C19=1.3613       C16-H167=1.0759      
C17-C12=1.3678       C17-C16=1.4343       C17-O196=1.3797      C18-C20=1.3815       C18-C47=1.4342       C18-O196=1.3597      
C19-C16=1.3613       C19-C20=1.4451       C19-O195=1.3530      C20-C18=1.3815       C20-C19=1.4451       C20-C21=1.4084       
C21-C20=1.4084       C21-C24=1.4071       C21-C51=1.4005       C22-C23=1.3651       C22-C27=1.4187       C22-H168=1.0788      
C23-C22=1.3651       C23-C24=1.4197       C23-O195=1.3715      C24-C21=1.4071       C24-C23=1.4197       C24-C25=1.4050       
C25-C24=1.4050       C25-C28=1.4159       C25-C55=1.4178       C26-C27=1.4006       C26-C30=1.3769       C26-H169=1.0798      
C27-C22=1.4187       C27-C26=1.4006       C27-C28=1.4194       C28-C25=1.4159       C28-C27=1.4194       C28-C29=1.4173       
C29-C28=1.4173       C29-C31=1.3954       C29-C59=1.4431       C30-C26=1.3769       C30-C31=1.3861       C30-H185=1.0806      
C31-C29=1.3954       C31-C30=1.3861       C31-H186=1.0779      C32-C4=1.4332        C32-C33=1.4329       C32-C37=1.3931       
C33-C32=1.4329       C33-C34=1.3593       C33-H170=1.0767      C34-C33=1.3593       C34-C35=1.4210       C34-H171=1.0755      
C35-C34=1.4210       C35-C65=1.4019       C35-O200=1.3870      C36-C7=1.4087        C36-C37=1.4333       C36-C40=1.4424       
C37-C32=1.3931       C37-C36=1.4333       C37-O200=1.3662      C38-C41=1.4071       C38-C69=1.3872       C38-H204=1.0802      
C39-C11=1.4144       C39-C40=1.4140       C39-C44=1.4178       C40-C36=1.4424       C40-C39=1.4140       C40-C41=1.4228       
C41-C38=1.4071       C41-C40=1.4228       C41-C42=1.4147       C42-C41=1.4147       C42-C45=1.4106       C42-C73=1.4054       
C43-C15=1.3879       C43-C44=1.4215       C43-C48=1.4407       C44-C39=1.4178       C44-C43=1.4215       C44-C45=1.4001       
C45-C42=1.4106       C45-C44=1.4001       C45-C46=1.4149       C46-C45=1.4149       C46-C49=1.4209       C46-C77=1.4072       
C47-C18=1.4342       C47-C48=1.4307       C47-C52=1.4283       C48-C43=1.4407       C48-C47=1.4307       C48-C49=1.4113       
C49-C46=1.4209       C49-C48=1.4113       C49-C50=1.4220       C50-C49=1.4220       C50-C53=1.4082       C50-C81=1.4145       
C51-C21=1.4005       C51-C52=1.4177       C51-C56=1.4215       C52-C47=1.4283       C52-C51=1.4177       C52-C53=1.4167       
C53-C50=1.4082       C53-C52=1.4167       C53-C54=1.4252       C54-C53=1.4252       C54-C57=1.4112       C54-C85=1.4089       
C55-C25=1.4178       C55-C56=1.4087       C55-C60=1.4251       C56-C51=1.4215       C56-C55=1.4087       C56-C57=1.4166       
C57-C54=1.4112       C57-C56=1.4166       C57-C58=1.4223       C58-C57=1.4223       C58-C61=1.4309       C58-C89=1.3953       
C59-C29=1.4431       C59-C60=1.4172       C59-C63=1.4009       C60-C55=1.4251       C60-C59=1.4172       C60-C61=1.4108       
C61-C58=1.4309       C61-C60=1.4108       C61-C62=1.4180       C62-C61=1.4180       C62-C64=1.4114       C62-C93=1.4093       
C63-C59=1.4009       C63-C64=1.3672       C63-H187=1.0779      C64-C62=1.4114       C64-C63=1.3672       C64-H188=1.0766      
C65-C35=1.4019       C65-C66=1.4343       C65-C70=1.4528       C66-C65=1.4343       C66-C67=1.3503       C66-H172=1.0775      
C67-C66=1.3503       C67-C68=1.4345       C67-H173=1.0773      C68-C67=1.4345       C68-C71=1.4522       C68-C98=1.4032       
C69-C38=1.3872       C69-C70=1.4450       C69-C74=1.4151       C70-C65=1.4528       C70-C69=1.4450       C70-C71=1.3977       
C71-C68=1.4522       C71-C70=1.3977       C71-C72=1.4452       C72-C71=1.4452       C72-C75=1.4138       C72-C102=1.3908      
C73-C42=1.4054       C73-C74=1.4069       C73-C78=1.4125       C74-C69=1.4151       C74-C73=1.4069       C74-C75=1.4043       
C75-C72=1.4138       C75-C74=1.4043       C75-C76=1.4066       C76-C75=1.4066       C76-C79=1.4140       C76-C105=1.4079      
C77-C46=1.4072       C77-C78=1.4149       C77-C82=1.4143       C78-C73=1.4125       C78-C77=1.4149       C78-C79=1.4052       
C79-C76=1.4140       C79-C78=1.4052       C79-C80=1.4102       C80-C79=1.4102       C80-C83=1.4107       C80-C109=1.4109      
C81-C50=1.4145       C81-C82=1.4115       C81-C86=1.4167       C82-C77=1.4143       C82-C81=1.4115       C82-C83=1.4107       
C83-C80=1.4107       C83-C82=1.4107       C83-C84=1.4128       C84-C83=1.4128       C84-C87=1.4098       C84-C113=1.4118      
C85-C54=1.4089       C85-C86=1.4145       C85-C90=1.4243       C86-C81=1.4167       C86-C85=1.4145       C86-C87=1.4113       
C87-C84=1.4098       C87-C86=1.4113       C87-C88=1.4176       C88-C87=1.4176       C88-C91=1.3973       C88-C117=1.4187      
C89-C58=1.3953       C89-C90=1.3984       C89-O194=1.4486      C90-C85=1.4243       C90-C89=1.3984       C90-C91=1.4174       
C91-C88=1.3973       C91-C90=1.4174       C91-C92=1.4270       C92-C91=1.4270       C92-C94=1.3835       C92-C121=1.4209      
C93-C62=1.4093       C93-C96=1.3867       C93-O194=1.4863      C94-C92=1.3835       C94-C95=1.4119       C94-O194=1.4623      
C95-C94=1.4119       C95-C97=1.4152       C95-C125=1.4102      C96-C93=1.3867       C96-C97=1.3684       C96-H189=1.0755      
C97-C95=1.4152       C97-C96=1.3684       C97-H190=1.0741      C98-C68=1.4032       C98-C99=1.4205       C98-O199=1.3850      
C99-C98=1.4205       C99-C100=1.3595      C99-H174=1.0753      C100-C99=1.3595      C100-C101=1.4306     C100-H175=1.0767     
C101-C100=1.4306     C101-C103=1.3893     C101-C130=1.4373     C102-C72=1.3908      C102-C106=1.4040     C102-H203=1.0800     
C103-C101=1.3893     C103-C104=1.4345     C103-O199=1.3707     C104-C103=1.4345     C104-C107=1.4290     C104-C134=1.4306     
C105-C76=1.4079      C105-C106=1.4126     C105-C110=1.4129     C106-C102=1.4040     C106-C105=1.4126     C106-C107=1.4356     
C107-C104=1.4290     C107-C106=1.4356     C107-C108=1.4177     C108-C107=1.4177     C108-C111=1.4221     C108-C138=1.4066     
C109-C80=1.4109      C109-C110=1.4110     C109-C114=1.4104     C110-C105=1.4129     C110-C109=1.4110     C110-C111=1.4057     
C111-C108=1.4221     C111-C110=1.4057     C111-C112=1.4123     C112-C111=1.4123     C112-C115=1.4088     C112-C141=1.4182     
C113-C84=1.4118      C113-C114=1.4104     C113-C118=1.4121     C114-C109=1.4104     C114-C113=1.4104     C114-C115=1.4122     
C115-C112=1.4088     C115-C114=1.4122     C115-C116=1.4148     C116-C115=1.4148     C116-C119=1.4078     C116-C145=1.4146     
C117-C88=1.4187      C117-C118=1.4053     C117-C122=1.4135     C118-C113=1.4121     C118-C117=1.4053     C118-C119=1.4141     
C119-C116=1.4078     C119-C118=1.4141     C119-C120=1.4114     C120-C119=1.4114     C120-C123=1.4118     C120-C149=1.4033     
C121-C92=1.4209      C121-C122=1.4107     C121-C126=1.4083     C122-C117=1.4135     C122-C121=1.4107     C122-C123=1.4088     
C123-C120=1.4118     C123-C122=1.4088     C123-C124=1.4159     C124-C123=1.4159     C124-C127=1.3899     C124-C152=1.4272     
C125-C95=1.4102      C125-C126=1.3986     C125-O193=1.3654     C126-C121=1.4083     C126-C125=1.3986     C126-C127=1.4193     
C127-C124=1.3899     C127-C126=1.4193     C127-C128=1.4419     C128-C127=1.4419     C128-C129=1.3625     C128-C156=1.4597     
C129-C128=1.3625     C129-H191=1.0789     C129-O193=1.3457     C130-C101=1.4373     C130-C131=1.3952     C130-C135=1.4169     
C131-C130=1.3952     C131-C132=1.3842     C131-H176=1.0779     C132-C131=1.3842     C132-C133=1.3782     C132-H177=1.0804     
C133-C132=1.3782     C133-C136=1.3990     C133-H178=1.0799     C134-C104=1.4306     C134-C135=1.4165     C134-C139=1.4139     
C135-C130=1.4169     C135-C134=1.4165     C135-C136=1.4217     C136-C133=1.3990     C136-C135=1.4217     C136-C137=1.4179     
C137-C136=1.4179     C137-C140=1.3637     C137-H179=1.0784     C138-C108=1.4066     C138-C139=1.4013     C138-C142=1.4217     
C139-C134=1.4139     C139-C138=1.4013     C139-C140=1.4253     C140-C137=1.3637     C140-C139=1.4253     C140-O198=1.3701     
C141-C112=1.4182     C141-C142=1.4011     C141-C146=1.4107     C142-C138=1.4217     C142-C141=1.4011     C142-C143=1.4105     
C143-C142=1.4105     C143-C144=1.3833     C143-O198=1.3625     C144-C143=1.3833     C144-C147=1.4100     C144-H180=1.0789     
C145-C116=1.4146     C145-C146=1.4102     C145-C150=1.4067     C146-C141=1.4107     C146-C145=1.4102     C146-C147=1.4181     
C147-C144=1.4100     C147-C146=1.4181     C147-C148=1.4211     C148-C147=1.4211     C148-C151=1.3747     C148-H181=1.0789     
C149-C120=1.4033     C149-C150=1.4052     C149-C153=1.4182     C150-C145=1.4067     C150-C149=1.4052     C150-C151=1.4200     
C151-C148=1.3747     C151-C150=1.4200     C151-O197=1.3705     C152-C124=1.4272     C152-C153=1.3974     C152-C157=1.4150     
C153-C149=1.4182     C153-C152=1.3974     C153-C154=1.4189     C154-C153=1.4189     C154-C155=1.3711     C154-O197=1.3686     
C155-C154=1.3711     C155-C158=1.4185     C155-H182=1.0788     C156-C128=1.4597     C156-C157=1.4225     C156-C160=1.3862     
C157-C152=1.4150     C157-C156=1.4225     C157-C158=1.4206     C158-C155=1.4185     C158-C157=1.4206     C158-C159=1.4055     
C159-C158=1.4055     C159-C161=1.3729     C159-H183=1.0798     C160-C156=1.3862     C160-C161=1.3933     C160-H192=1.0784     
C161-C159=1.3729     C161-C160=1.3933     C161-H184=1.0802     H162-C1=1.0779       H163-C2=1.0796       H164-C3=1.0776       
H165-C8=1.0792       H166-C12=1.0804      H167-C16=1.0759      H168-C22=1.0788      H169-C26=1.0798      H170-C33=1.0767      
H171-C34=1.0755      H172-C66=1.0775      H173-C67=1.0773      H174-C99=1.0753      H175-C100=1.0767     H176-C131=1.0779     
H177-C132=1.0804     H178-C133=1.0799     H179-C137=1.0784     H180-C144=1.0789     H181-C148=1.0789     H182-C155=1.0788     
H183-C159=1.0798     H184-C161=1.0802     H185-C30=1.0806      H186-C31=1.0779      H187-C63=1.0779      H188-C64=1.0766      
H189-C96=1.0755      H190-C97=1.0741      H191-C129=1.0789     H192-C160=1.0784     O193-C125=1.3654     O193-C129=1.3457     
O194-C89=1.4486      O194-C93=1.4863      O194-C94=1.4623      O195-C19=1.3530      O195-C23=1.3715      O196-C17=1.3797      
O196-C18=1.3597      O197-C151=1.3705     O197-C154=1.3686     O198-C140=1.3701     O198-C143=1.3625     O199-C98=1.3850      
O199-C103=1.3707     O200-C35=1.3870      O200-C37=1.3662      O201-C5=1.3616       O201-C9=1.3587       H202-C15=1.0794      
H203-C102=1.0800     H204-C38=1.0802      
 C  H  Rav=1.0783 sigma=0.0017  Rmin=1.0741  Rmax=1.0806    34
 C  C  Rav=1.4102 sigma=0.0182  Rmin=1.3503  Rmax=1.4597   215
 O  C  Rav=1.3828 sigma=0.0377  Rmin=1.3457  Rmax=1.4863    19
 
 selected bond angles (degree)
 --------------------
C5-C1-C2=119.46                H162-C1-C2=121.30              H162-C1-C5=119.24              C3-C2-C1=121.30                
H163-C2-C1=118.99              H163-C2-C3=119.72              C4-C3-C2=120.70                H164-C3-C2=119.00              
H164-C3-C4=120.30              C6-C4-C3=118.34                C32-C4-C3=124.18               C32-C4-C6=117.45               
C6-C5-C1=120.20                O201-C5-C1=117.34              O201-C5-C6=122.46              C5-C6-C4=119.96                
C7-C6-C4=120.61                C7-C6-C5=119.41                C10-C7-C6=116.43               C36-C7-C6=122.09               
C36-C7-C10=121.47              C13-C8-C9=121.47               H165-C8-C9=118.25              H165-C8-C13=120.18             
C10-C9-C8=120.63               O201-C9-C8=118.43              O201-C9-C10=120.81             C9-C10-C7=121.33               
C11-C10-C7=120.13              C11-C10-C9=118.44              
 
 selected dihedral angles (degree)
 ---------------------------------
C3-C2-C1-C5=359.03            C3-C2-C1-H162=179.20          H163-C2-C1-C5=179.45          H163-C2-C1-H162=359.62        
C4-C3-C2-C1=  0.31            C4-C3-C2-H163=179.89          H164-C3-C2-C1=180.32          H164-C3-C2-H163=359.91        
C6-C4-C3-C2=  1.42            C6-C4-C3-H164=181.40          C32-C4-C3-C2=183.65           C32-C4-C3-H164=  3.64         
C6-C5-C1-C2=359.86            C6-C5-C1-H162=179.70          O201-C5-C1-C2=179.78          O201-C5-C1-H162=359.61        
C5-C6-C4-C3=357.51            C5-C6-C4-C32=175.43           C7-C6-C4-C3=175.86            C7-C6-C4-C32=353.78           
C4-C6-C5-C1=  1.88            C4-C6-C5-O201=181.97          C7-C6-C5-C1=183.51            C7-C6-C5-O201=  3.60          
C10-C7-C6-C4=179.19           C10-C7-C6-C5=357.55           C36-C7-C6-C4=359.80           C36-C7-C6-C5=178.16           
C10-C9-C8-C13=355.66          C10-C9-C8-H165=172.00         O201-C9-C8-C13=179.75         O201-C9-C8-H165=356.09        
C9-C10-C7-C6=358.28           C9-C10-C7-C36=177.68          C11-C10-C7-C6=182.16          C11-C10-C7-C36=  1.56         
C7-C10-C9-C8=189.30           C7-C10-C9-O201=  5.11         C11-C10-C9-C8=  5.48          C11-C10-C9-O201=181.29        
           -------------------------------------------------
          |                Final Singlepoint                |
           -------------------------------------------------

          ...................................................
          :                      SETUP                      :
          :.................................................:
          :  # basis functions                 714          :
          :  # atomic orbitals                 714          :
          :  # shells                          374          :
          :  # electrons                       732          :
          :  max. iterations                   250          :
          :  Hamiltonian                  GFN2-xTB          :
          :  restarted?                      false          :
          :  GBSA solvation                  false          :
          :  PC potential                    false          :
          :  electronic temp.          300.0000000     K    :
          :  accuracy                    1.0000000          :
          :  -> integral cutoff          0.2500000E+02      :
          :  -> integral neglect         0.1000000E-07      :
          :  -> SCF convergence          0.1000000E-05 Eh   :
          :  -> wf. convergence          0.1000000E-03 e    :
          :  Broyden damping             0.4000000          :
          :  net charge                          0          :
          :  unpaired electrons                  0          :
          ...................................................

 iter      E             dE          RMSdq      gap      omega  full diag
   1   -406.9617802 -0.406962E+03  0.658E-05    0.12       0.0  T
   2   -406.9617801  0.823553E-08  0.155E-04    0.12      45.1  T
   3   -406.9617801  0.495942E-08  0.152E-04    0.12      46.0  T

   *** convergence criteria satisfied after 3 iterations ***

         #    Occupation            Energy/Eh            Energy/eV
      -------------------------------------------------------------
         1        2.0000           -0.7780772             -21.1726
       ...           ...                  ...                  ...
       360        2.0000           -0.3586506              -9.7594
       361        2.0000           -0.3551869              -9.6651
       362        2.0000           -0.3527050              -9.5976
       363        2.0000           -0.3427152              -9.3258
       364        1.9999           -0.3276985              -8.9171
       365        1.9968           -0.3241123              -8.8195
       366        1.8093           -0.3201471              -8.7116 (HOMO)
       367        0.1940           -0.3158903              -8.5958 (LUMO)
       368        0.0000           -0.3042949              -8.2803
       369                         -0.2991161              -8.1394
       370                         -0.2905195              -7.9054
       371                         -0.2873299              -7.8186
       ...                                ...                  ...
       714                          0.7918774              21.5481
      -------------------------------------------------------------
                  HL-Gap            0.0042568 Eh            0.1158 eV
             Fermi-level           -0.3180096 Eh           -8.6535 eV

 SCC (total)                   0 d,  0 h,  0 min,  1.085 sec
 SCC setup                      ...        0 min,  0.004 sec (  0.369%)
 Dispersion                     ...        0 min,  0.011 sec (  1.014%)
 classical contributions        ...        0 min,  0.001 sec (  0.092%)
 integral evaluation            ...        0 min,  0.084 sec (  7.742%)
 iterations                     ...        0 min,  0.541 sec ( 49.862%)
 molecular gradient             ...        0 min,  0.428 sec ( 39.447%)
 printout                       ...        0 min,  0.016 sec (  1.475%)

         :::::::::::::::::::::::::::::::::::::::::::::::::::::
         ::                     SUMMARY                     ::
         :::::::::::::::::::::::::::::::::::::::::::::::::::::
         :: total energy            -399.778772775977 Eh    ::
         :: gradient norm              0.000620048616 Eh/a0 ::
         :: HOMO-LUMO gap              0.115833622254 eV    ::
         ::.................................................::
         :: SCC energy              -406.976594800146 Eh    ::
         :: -> isotropic ES            0.094694091690 Eh    ::
         :: -> anisotropic ES          0.019984707342 Eh    ::
         :: -> anisotropic XC          0.101048845861 Eh    ::
         :: -> dispersion             -0.484719645663 Eh    ::
         :: repulsion energy           7.197822024169 Eh    ::
         :: add. restraining           0.000000000000 Eh    ::
         :: total charge              -0.000000000000 e     ::
         :::::::::::::::::::::::::::::::::::::::::::::::::::::

           -------------------------------------------------
          |                Property Printout                |
           -------------------------------------------------

    * Orbital Energies and Occupations

         #    Occupation            Energy/Eh            Energy/eV
      -------------------------------------------------------------
         1        2.0000           -0.7780772             -21.1726
       ...           ...                  ...                  ...
       354        2.0000           -0.3789583             -10.3120
       355        2.0000           -0.3751572             -10.2085
       356        2.0000           -0.3735532             -10.1649
       357        2.0000           -0.3701068             -10.0711
       358        2.0000           -0.3655891              -9.9482
       359        2.0000           -0.3648919              -9.9292
       360        2.0000           -0.3586506              -9.7594
       361        2.0000           -0.3551869              -9.6651
       362        2.0000           -0.3527050              -9.5976
       363        2.0000           -0.3427152              -9.3258
       364        1.9999           -0.3276985              -8.9171
       365        1.9968           -0.3241123              -8.8195
       366        1.8093           -0.3201471              -8.7116 (HOMO)
       367        0.1940           -0.3158903              -8.5958 (LUMO)
       368        0.0000           -0.3042949              -8.2803
       369                         -0.2991161              -8.1394
       370                         -0.2905195              -7.9054
       371                         -0.2873299              -7.8186
       372                         -0.2837483              -7.7212
       373                         -0.2759224              -7.5082
       374                         -0.2722542              -7.4084
       375                         -0.2664297              -7.2499
       376                         -0.2658824              -7.2350
       377                         -0.2618742              -7.1260
       ...                                ...                  ...
       714                          0.7918774              21.5481
      -------------------------------------------------------------
                  HL-Gap            0.0042568 Eh            0.1158 eV
             Fermi-level           -0.3180096 Eh           -8.6535 eV

     #   Z          covCN         q      C6AA      α(0)
     1   6 C        2.915    -0.061    29.513     8.908
     2   6 C        2.918    -0.029    28.724     8.789
     3   6 C        2.917    -0.045    29.123     8.850
     4   6 C        2.980     0.003    27.956     8.673
     5   6 C        2.881     0.140    24.937     8.187
     6   6 C        2.995    -0.019    28.464     8.752
     7   6 C        2.995     0.008    27.830     8.654
     8   6 C        2.918    -0.068    29.688     8.935
     9   6 C        2.877     0.138    24.984     8.194
    10   6 C        2.992    -0.020    28.491     8.756
    11   6 C        3.004     0.000    28.014     8.682
    12   6 C        2.903    -0.088    30.213     9.013
    13   6 C        2.968     0.025    27.449     8.594
    14   6 C        2.990    -0.002    28.061     8.690
    15   6 C        2.932    -0.012    28.305     8.725
    16   6 C        2.907    -0.096    30.407     9.042
    17   6 C        2.853     0.138    24.990     8.193
    18   6 C        2.871     0.135    25.048     8.204
    19   6 C        2.870     0.151    24.721     8.150
    20   6 C        2.987    -0.040    28.989     8.832
    21   6 C        3.000     0.004    27.927     8.669
    22   6 C        2.917    -0.066    29.649     8.929
    23   6 C        2.870     0.134    25.073     8.208
    24   6 C        2.996    -0.021    28.529     8.762
    25   6 C        2.991     0.001    27.993     8.679
    26   6 C        2.921    -0.042    29.047     8.838
    27   6 C        2.984     0.012    27.730     8.638
    28   6 C        2.996    -0.003    28.093     8.695
    29   6 C        2.975     0.008    27.836     8.654
    30   6 C        2.913    -0.029    28.733     8.790
    31   6 C        2.921    -0.042    29.035     8.836
    32   6 C        2.972    -0.017    28.425     8.745
    33   6 C        2.918    -0.033    28.830     8.805
    34   6 C        2.903    -0.049    29.217     8.863
    35   6 C        2.852     0.122    25.325     8.248
    36   6 C        2.967    -0.022    28.552     8.765
    37   6 C        2.870     0.137    25.003     8.197
    38   6 C        2.931    -0.016    28.410     8.741
    39   6 C        2.995     0.000    28.008     8.681
    40   6 C        2.978     0.006    27.874     8.660
    41   6 C        2.986     0.004    27.936     8.670
    42   6 C        3.003     0.000    28.011     8.682
    43   6 C        2.982     0.005    27.901     8.665
    44   6 C        3.005    -0.000    28.015     8.682
    45   6 C        2.996    -0.001    28.034     8.685
    46   6 C        2.991    -0.000    28.022     8.683
    47   6 C        2.970    -0.019    28.481     8.754
    48   6 C        2.974     0.008    27.840     8.655
    49   6 C        2.988     0.002    27.970     8.675
    50   6 C        2.989     0.002    27.972     8.676
    51   6 C        2.992    -0.007    28.187     8.709
    52   6 C        2.989     0.001    27.993     8.679
    53   6 C        2.989    -0.001    28.035     8.685
    54   6 C        2.987    -0.002    28.057     8.689
    55   6 C        2.988    -0.002    28.058     8.689
    56   6 C        2.989     0.002    27.975     8.676
    57   6 C        2.992    -0.006    28.164     8.705
    58   6 C        2.980    -0.008    28.208     8.712
    59   6 C        2.977    -0.009    28.227     8.715
    60   6 C        2.989     0.003    27.945     8.671
    61   6 C        2.989    -0.010    28.256     8.720
    62   6 C        2.972    -0.003    28.099     8.695
    63   6 C        2.918    -0.032    28.804     8.801
    64   6 C        2.920    -0.051    29.268     8.872
    65   6 C        2.960    -0.021    28.533     8.762
    66   6 C        2.918    -0.044    29.086     8.844
    67   6 C        2.918    -0.044    29.082     8.843
    68   6 C        2.960    -0.022    28.546     8.764
    69   6 C        2.984     0.004    27.925     8.668
    70   6 C        2.979     0.006    27.892     8.663
    71   6 C        2.979     0.006    27.874     8.660
    72   6 C        2.984     0.005    27.911     8.666
    73   6 C        2.999    -0.002    28.065     8.690
    74   6 C        3.006     0.001    27.991     8.679
    75   6 C        3.006     0.000    28.003     8.680
    76   6 C        2.998    -0.003    28.079     8.692
    77   6 C        2.993    -0.001    28.046     8.687
    78   6 C        2.995    -0.000    28.030     8.685
    79   6 C        2.996    -0.001    28.048     8.688
    80   6 C        2.995    -0.001    28.036     8.686
    81   6 C        2.991    -0.003    28.083     8.693
    82   6 C        2.993     0.001    28.001     8.680
    83   6 C        2.994    -0.001    28.032     8.685
    84   6 C        2.993     0.000    28.008     8.681
    85   6 C        2.993    -0.002    28.057     8.689
    86   6 C        2.990     0.001    27.996     8.679
    87   6 C        2.993    -0.002    28.059     8.689
    88   6 C        2.991     0.002    27.969     8.675
    89   6 C        2.850     0.083    26.150     8.381
    90   6 C        2.983    -0.010    28.270     8.722
    91   6 C        2.991    -0.011    28.291     8.725
    92   6 C        2.982    -0.014    28.353     8.734
    93   6 C        2.828     0.048    26.903     8.499
    94   6 C        2.853     0.077    26.270     8.401
    95   6 C        2.976    -0.017    28.418     8.744
    96   6 C        2.910    -0.047    29.178     8.857
    97   6 C        2.910    -0.073    29.828     8.956
    98   6 C        2.853     0.124    25.269     8.239
    99   6 C        2.903    -0.049    29.223     8.864
   100   6 C        2.919    -0.031    28.779     8.797
   101   6 C        2.972    -0.015    28.372     8.737
   102   6 C        2.931    -0.016    28.417     8.742
   103   6 C        2.867     0.136    25.034     8.202
   104   6 C        2.968    -0.020    28.511     8.758
   105   6 C        3.001     0.000    28.005     8.681
   106   6 C        2.983     0.005    27.911     8.666
   107   6 C        2.974     0.008    27.847     8.656
   108   6 C        2.991    -0.002    28.071     8.691
   109   6 C        2.995    -0.000    28.019     8.683
   110   6 C        2.995    -0.000    28.026     8.684
   111   6 C        2.994    -0.001    28.051     8.688
   112   6 C        2.993     0.000    28.016     8.683
   113   6 C        2.994    -0.003    28.095     8.695
   114   6 C        2.994     0.000    28.014     8.682
   115   6 C        2.994    -0.001    28.040     8.686
   116   6 C        2.994     0.000    28.018     8.683
   117   6 C        2.993    -0.005    28.129     8.700
   118   6 C        2.994    -0.000    28.025     8.684
   119   6 C        2.995     0.000    28.012     8.682
   120   6 C        2.996    -0.002    28.071     8.691
   121   6 C        3.000    -0.011    28.275     8.723
   122   6 C        2.994     0.002    27.965     8.675
   123   6 C        2.995    -0.002    28.055     8.689
   124   6 C        2.991    -0.004    28.107     8.697
   125   6 C        2.889     0.115    25.471     8.274
   126   6 C        2.986    -0.012    28.312     8.728
   127   6 C        3.002     0.007    27.861     8.658
   128   6 C        2.962    -0.014    28.369     8.736
   129   6 C        2.818     0.091    25.976     8.351
   130   6 C        2.978     0.004    27.925     8.668
   131   6 C        2.920    -0.041    29.021     8.834
   132   6 C        2.914    -0.030    28.741     8.791
   133   6 C        2.922    -0.041    29.007     8.832
   134   6 C        2.988    -0.002    28.058     8.689
   135   6 C        2.995    -0.008    28.196     8.710
   136   6 C        2.983     0.015    27.673     8.629
   137   6 C        2.917    -0.075    29.870     8.962
   138   6 C        2.997     0.009    27.812     8.651
   139   6 C        2.993    -0.015    28.380     8.739
   140   6 C        2.868     0.136    25.026     8.200
   141   6 C        2.996     0.001    27.993     8.679
   142   6 C        2.991    -0.020    28.507     8.758
   143   6 C        2.868     0.140    24.946     8.187
   144   6 C        2.915    -0.070    29.752     8.944
   145   6 C        2.995    -0.000    28.020     8.683
   146   6 C        2.996    -0.011    28.268     8.722
   147   6 C        2.976     0.015    27.663     8.627
   148   6 C        2.913    -0.071    29.767     8.947
   149   6 C        2.998     0.006    27.865     8.659
   150   6 C        2.993    -0.018    28.438     8.748
   151   6 C        2.862     0.138    24.981     8.193
   152   6 C        2.991     0.000    28.011     8.682
   153   6 C        2.995    -0.017    28.418     8.745
   154   6 C        2.864     0.139    24.966     8.190
   155   6 C        2.917    -0.071    29.775     8.948
   156   6 C        2.972     0.005    27.912     8.666
   157   6 C        2.994    -0.000    28.019     8.683
   158   6 C        2.982     0.014    27.688     8.631
   159   6 C        2.919    -0.037    28.928     8.820
   160   6 C        2.919    -0.043    29.058     8.840
   161   6 C        2.913    -0.028    28.703     8.785
   162   1 H        0.926     0.050     2.320     2.382
   163   1 H        0.926     0.041     2.431     2.438
   164   1 H        0.926     0.040     2.450     2.448
   165   1 H        0.926     0.051     2.303     2.373
   166   1 H        0.926     0.044     2.391     2.418
   167   1 H        0.926     0.055     2.255     2.348
   168   1 H        0.926     0.048     2.343     2.394
   169   1 H        0.926     0.031     2.573     2.509
   170   1 H        0.926     0.036     2.497     2.471
   171   1 H        0.926     0.044     2.394     2.419
   172   1 H        0.926     0.029     2.599     2.521
   173   1 H        0.926     0.030     2.593     2.518
   174   1 H        0.926     0.044     2.394     2.419
   175   1 H        0.926     0.038     2.480     2.463
   176   1 H        0.926     0.032     2.559     2.502
   177   1 H        0.926     0.031     2.574     2.509
   178   1 H        0.926     0.033     2.538     2.491
   179   1 H        0.926     0.046     2.364     2.404
   180   1 H        0.926     0.049     2.329     2.386
   181   1 H        0.926     0.049     2.335     2.390
   182   1 H        0.926     0.049     2.335     2.390
[...]
     8   6 C        9   6 C                                       1.3912564
     7   6 C       10   6 C                                       1.4215612
     9   6 C       10   6 C                                       1.4055944
    10   6 C       11   6 C                                       1.4031331
     8   6 C       13   6 C                                       1.3961305
    11   6 C       14   6 C                                       1.4098114
    13   6 C       14   6 C                                       1.4244955
    14   6 C       15   6 C                                       1.4066585
    12   6 C       17   6 C                                       1.3678330
    16   6 C       19   6 C                                       1.3613211
    18   6 C       20   6 C                                       1.3815386
    20   6 C       21   6 C                                       1.4084355
    22   6 C       23   6 C                                       1.3651497
    21   6 C       24   6 C                                       1.4071165
    23   6 C       24   6 C                                       1.4197404
    24   6 C       25   6 C                                       1.4050242
    22   6 C       27   6 C                                       1.4186919
    26   6 C       27   6 C                                       1.4006215
    25   6 C       28   6 C                                       1.4158688
    27   6 C       28   6 C                                       1.4194269
    28   6 C       29   6 C                                       1.4173058
    26   6 C       30   6 C                                       1.3768593
    29   6 C       31   6 C                                       1.3954164
    30   6 C       31   6 C                                       1.3861238
     4   6 C       32   6 C                                       1.4332308
    32   6 C       33   6 C                                       1.4329233
    33   6 C       34   6 C                                       1.3593467
    34   6 C       35   6 C                                       1.4210485
     7   6 C       36   6 C                                       1.4087099
    32   6 C       37   6 C                                       1.3931118
    36   6 C       37   6 C                                       1.4332678
    11   6 C       39   6 C                                       1.4144470
    39   6 C       40   6 C                                       1.4139636
    38   6 C       41   6 C                                       1.4070878
    40   6 C       41   6 C                                       1.4227977
    41   6 C       42   6 C                                       1.4147065
    15   6 C       43   6 C                                       1.3878850
    39   6 C       44   6 C                                       1.4177566
    43   6 C       44   6 C                                       1.4214503
    42   6 C       45   6 C                                       1.4106234
    44   6 C       45   6 C                                       1.4000766
    45   6 C       46   6 C                                       1.4148774
    18   6 C       47   6 C                                       1.4341555
    47   6 C       48   6 C                                       1.4307303
    46   6 C       49   6 C                                       1.4208569
    48   6 C       49   6 C                                       1.4112867
    49   6 C       50   6 C                                       1.4219649
    21   6 C       51   6 C                                       1.4004637
    47   6 C       52   6 C                                       1.4283304
    51   6 C       52   6 C                                       1.4177129
    50   6 C       53   6 C                                       1.4081795
    52   6 C       53   6 C                                       1.4167026
    53   6 C       54   6 C                                       1.4251931
    25   6 C       55   6 C                                       1.4177673
    51   6 C       56   6 C                                       1.4214698
    55   6 C       56   6 C                                       1.4086972
    54   6 C       57   6 C                                       1.4111857
    56   6 C       57   6 C                                       1.4166260
    57   6 C       58   6 C                                       1.4222988
    55   6 C       60   6 C                                       1.4250580
    59   6 C       60   6 C                                       1.4171939
    58   6 C       61   6 C                                       1.4308732
    60   6 C       61   6 C                                       1.4107791
    61   6 C       62   6 C                                       1.4179985
    59   6 C       63   6 C                                       1.4008973
    62   6 C       64   6 C                                       1.4114041
    63   6 C       64   6 C                                       1.3672187
    35   6 C       65   6 C                                       1.4019431
    66   6 C       67   6 C                                       1.3503280
    38   6 C       69   6 C                                       1.3872072
    70   6 C       71   6 C                                       1.3976709
    42   6 C       73   6 C                                       1.4053515
    69   6 C       74   6 C                                       1.4151377
    73   6 C       74   6 C                                       1.4068625
    72   6 C       75   6 C                                       1.4137926
    74   6 C       75   6 C                                       1.4043006
    75   6 C       76   6 C                                       1.4065641
    46   6 C       77   6 C                                       1.4072412
    73   6 C       78   6 C                                       1.4125459
    77   6 C       78   6 C                                       1.4148981
    76   6 C       79   6 C                                       1.4140231
    78   6 C       79   6 C                                       1.4052344
    79   6 C       80   6 C                                       1.4102226
    50   6 C       81   6 C                                       1.4144737
    77   6 C       82   6 C                                       1.4143280
    81   6 C       82   6 C                                       1.4115479
    80   6 C       83   6 C                                       1.4107125
    82   6 C       83   6 C                                       1.4107055
    83   6 C       84   6 C                                       1.4128247
    54   6 C       85   6 C                                       1.4088751
    81   6 C       86   6 C                                       1.4166559
    85   6 C       86   6 C                                       1.4145419
    84   6 C       87   6 C                                       1.4098368
    86   6 C       87   6 C                                       1.4113323
    87   6 C       88   6 C                                       1.4176490
    58   6 C       89   6 C                                       1.3953019
    85   6 C       90   6 C                                       1.4243347
    89   6 C       90   6 C                                       1.3983550
    88   6 C       91   6 C                                       1.3973212
    90   6 C       91   6 C                                       1.4173707
    91   6 C       92   6 C                                       1.4270230
    62   6 C       93   6 C                                       1.4092994
    92   6 C       94   6 C                                       1.3834671
    94   6 C       95   6 C                                       1.4119146
    93   6 C       96   6 C                                       1.3867087
    95   6 C       97   6 C                                       1.4151524
    96   6 C       97   6 C                                       1.3684419
    68   6 C       98   6 C                                       1.4031650
    98   6 C       99   6 C                                       1.4205434
    99   6 C      100   6 C                                       1.3594529
   100   6 C      101   6 C                                       1.4305630
    72   6 C      102   6 C                                       1.3907616
   101   6 C      103   6 C                                       1.3893369
   103   6 C      104   6 C                                       1.4344834
    76   6 C      105   6 C                                       1.4078707
   102   6 C      106   6 C                                       1.4040263
   105   6 C      106   6 C                                       1.4125759
   104   6 C      107   6 C                                       1.4290291
   107   6 C      108   6 C                                       1.4177412
    80   6 C      109   6 C                                       1.4109371
   105   6 C      110   6 C                                       1.4129196
   109   6 C      110   6 C                                       1.4109811
   108   6 C      111   6 C                                       1.4220733
   110   6 C      111   6 C                                       1.4056571
   111   6 C      112   6 C                                       1.4123394
    84   6 C      113   6 C                                       1.4118136
   109   6 C      114   6 C                                       1.4103529
   113   6 C      114   6 C                                       1.4103968
   112   6 C      115   6 C                                       1.4087928
   114   6 C      115   6 C                                       1.4122232
   115   6 C      116   6 C                                       1.4147619
    88   6 C      117   6 C                                       1.4186986
   113   6 C      118   6 C                                       1.4121301
   117   6 C      118   6 C                                       1.4052985
   116   6 C      119   6 C                                       1.4077574
   118   6 C      119   6 C                                       1.4141314
   119   6 C      120   6 C                                       1.4113966
    92   6 C      121   6 C                                       1.4208851
   117   6 C      122   6 C                                       1.4135496
   121   6 C      122   6 C                                       1.4107232
   120   6 C      123   6 C                                       1.4118063
   122   6 C      123   6 C                                       1.4088299
   123   6 C      124   6 C                                       1.4158700
    95   6 C      125   6 C                                       1.4102458
   121   6 C      126   6 C                                       1.4083093
   125   6 C      126   6 C                                       1.3986370
   124   6 C      127   6 C                                       1.3898827
   126   6 C      127   6 C                                       1.4192815
   128   6 C      129   6 C                                       1.3624577
   130   6 C      131   6 C                                       1.3952037
   131   6 C      132   6 C                                       1.3841776
   132   6 C      133   6 C                                       1.3782157
   104   6 C      134   6 C                                       1.4306377
   130   6 C      135   6 C                                       1.4169237
   134   6 C      135   6 C                                       1.4165375
   133   6 C      136   6 C                                       1.3989924
   135   6 C      136   6 C                                       1.4216505
   136   6 C      137   6 C                                       1.4179256
   108   6 C      138   6 C                                       1.4065843
   134   6 C      139   6 C                                       1.4138528
   138   6 C      139   6 C                                       1.4012839
   137   6 C      140   6 C                                       1.3637350
   139   6 C      140   6 C                                       1.4253082
   112   6 C      141   6 C                                       1.4181947
   138   6 C      142   6 C                                       1.4217429
   141   6 C      142   6 C                                       1.4011466
   142   6 C      143   6 C                                       1.4105077
   143   6 C      144   6 C                                       1.3832519
   116   6 C      145   6 C                                       1.4145854
   141   6 C      146   6 C                                       1.4107332
   145   6 C      146   6 C                                       1.4102014
   144   6 C      147   6 C                                       1.4100191
   146   6 C      147   6 C                                       1.4181330
   147   6 C      148   6 C                                       1.4210943
   120   6 C      149   6 C                                       1.4032876
   145   6 C      150   6 C                                       1.4066522
   149   6 C      150   6 C                                       1.4052456
   148   6 C      151   6 C                                       1.3746756
   150   6 C      151   6 C                                       1.4200071
   124   6 C      152   6 C                                       1.4272007
   149   6 C      153   6 C                                       1.4182010
   152   6 C      153   6 C                                       1.3974143
   153   6 C      154   6 C                                       1.4188831
   154   6 C      155   6 C                                       1.3711493
   152   6 C      157   6 C                                       1.4150388
   156   6 C      157   6 C                                       1.4225489
   155   6 C      158   6 C                                       1.4185031
   157   6 C      158   6 C                                       1.4206436
   158   6 C      159   6 C                                       1.4055326
   156   6 C      160   6 C                                       1.3862059
   159   6 C      161   6 C                                       1.3729242
   160   6 C      161   6 C                                       1.3932591
     1   6 C      162   1 H                                       1.0779094
     2   6 C      163   1 H                                       1.0796021
     3   6 C      164   1 H                                       1.0775657
     8   6 C      165   1 H                                       1.0792323
    12   6 C      166   1 H                                       1.0804321
    16   6 C      167   1 H                                       1.0759249
    22   6 C      168   1 H                                       1.0788136
    26   6 C      169   1 H                                       1.0797605
    33   6 C      170   1 H                                       1.0767416
    34   6 C      171   1 H                                       1.0754743
    66   6 C      172   1 H                                       1.0774975
    67   6 C      173   1 H                                       1.0773007
    99   6 C      174   1 H                                       1.0753333
   100   6 C      175   1 H                                       1.0767090
   131   6 C      176   1 H                                       1.0779497
   132   6 C      177   1 H                                       1.0803932
   133   6 C      178   1 H                                       1.0798596
   137   6 C      179   1 H                                       1.0783835
   144   6 C      180   1 H                                       1.0788863
   148   6 C      181   1 H                                       1.0788747
   155   6 C      182   1 H                                       1.0788175
   159   6 C      183   1 H                                       1.0798242
   161   6 C      184   1 H                                       1.0802154
    30   6 C      185   1 H                                       1.0805971
    31   6 C      186   1 H                                       1.0779437
    63   6 C      187   1 H                                       1.0779325
    64   6 C      188   1 H                                       1.0765869
    96   6 C      189   1 H                                       1.0754811
    97   6 C      190   1 H                                       1.0741385 (min)
   129   6 C      191   1 H                                       1.0788769
   160   6 C      192   1 H                                       1.0784245
   125   6 C      193   8 O                                       1.3654413
   129   6 C      193   8 O                                       1.3457459
    89   6 C      194   8 O                                       1.4486094
    93   6 C      194   8 O                                       1.4862939 (max)
    94   6 C      194   8 O                                       1.4623271
    19   6 C      195   8 O                                       1.3529862
    23   6 C      195   8 O                                       1.3715215
    17   6 C      196   8 O                                       1.3797472
    18   6 C      196   8 O                                       1.3597292
   151   6 C      197   8 O                                       1.3705144
   154   6 C      197   8 O                                       1.3685571
   140   6 C      198   8 O                                       1.3700713
   143   6 C      198   8 O                                       1.3625034
    98   6 C      199   8 O                                       1.3850378
   103   6 C      199   8 O                                       1.3707378
    35   6 C      200   8 O                                       1.3870110
    37   6 C      200   8 O                                       1.3662366
     5   6 C      201   8 O                                       1.3615824
     9   6 C      201   8 O                                       1.3587049
    15   6 C      202   1 H                                       1.0793816
   102   6 C      203   1 H                                       1.0800097
    38   6 C      204   1 H                                       1.0802409

 * 3 distinct bonds (by element types)

   Z      Z             #   av. dist./Å        max./Å        min./Å
   1 H    6 C          34     1.0782681     1.0805971     1.0741385
   6 C    6 C         199     1.4075175     1.4344834     1.3503280
   6 C    8 O          19     1.3828083     1.4862939     1.3457459


optimized geometry written to: xtbopt.xyz


           -------------------------------------------------
          | TOTAL ENERGY             -399.778772775977 Eh   |
          | GRADIENT NORM               0.000620048616 Eh/α |
          | HOMO-LUMO GAP               0.115833622254 eV   |
           -------------------------------------------------

------------------------------------------------------------------------
 * finished run on 2025/12/08 at 00:52:11.610     
------------------------------------------------------------------------
 total:
 * wall-time:     0 d,  0 h,  0 min, 33.803 sec
 *  cpu-time:     0 d,  0 h,  2 min, 12.766 sec
 * ratio c/w:     3.928 speedup
 SCF:
 * wall-time:     0 d,  0 h,  0 min,  4.473 sec
 *  cpu-time:     0 d,  0 h,  0 min, 17.641 sec
 * ratio c/w:     3.944 speedup
 ANC optimizer:
 * wall-time:     0 d,  0 h,  0 min, 29.136 sec
 *  cpu-time:     0 d,  0 h,  1 min, 54.516 sec
 * ratio c/w:     3.930 speedup

normal termination of xtb
