204
 energy: -399.778772775977 gnorm: 0.000620048616 xtb: 6.7.1pre (5071a88)
C           -9.84519530053338       -8.21658971941973       -0.79237816853271
C           -9.21491652696650       -9.44349141298745       -0.97318874277916
C           -7.84749412081633       -9.56315194512656       -0.89071928325965
C           -7.04602211386561       -8.44538395674997       -0.61396260430470
C           -9.08593727902819       -7.09837335399145       -0.50462992952915
C           -7.68142216069801       -7.20261923116773       -0.39245700836432
C           -6.92505737596220       -6.06014711428360       -0.02298902382742
C           -9.70663301435676       -3.57392743035118       -0.05818284634770
C           -9.04003033445531       -4.79507587917341       -0.05259005337787
C           -7.65180598002548       -4.85220391585392        0.16016517778563
C           -6.97576997122303       -3.66545820677095        0.48171158127183
C           -9.67498709468912       -1.10673922163086       -0.01299019381695
C           -9.04371925531743       -2.38039389340119        0.23371296421230
C           -7.68615689254364       -2.46049602559563        0.65773542589945
C           -6.98474994796358       -1.32389773339180        1.09916530908823
C           -9.78905862974373        1.31450628066953       -0.48312246573074
C           -9.07323731326290        0.08195596478199       -0.32261521415948
C           -7.02292312266474        1.26386151881426       -0.18896849084472
C           -9.10213045167227        2.48855954886830       -0.53719059023784
C           -7.67400984072732        2.47567565486719       -0.31640878971135
C           -6.97307218803814        3.69290179334051       -0.21278915401495
C           -9.78563002627871        6.00881338605492       -0.79118994393029
C           -9.08371217891062        4.84954476904433       -0.62674882007823
C           -7.68400357361660        4.89373066826222       -0.39324124457035
C           -7.00257606158878        6.12208786482855       -0.36344406734541
C           -9.84332438172806        8.45979540624310       -0.90533397744266
C           -9.12909784575434        7.26561872913019       -0.74545028930405
C           -7.72534404126909        7.32612050221631       -0.54398753201755
C           -7.04924818212087        8.57166376243275       -0.52750501622980
C           -9.18510312948839        9.66850734122481       -0.86658409449031
C           -7.81234362228719        9.72934959067217       -0.68446205758047
C           -5.61327884650741       -8.46924059906564       -0.58519365215585
C           -4.84886034399885       -9.64992946023044       -0.85888517071961
C           -3.50578435064078       -9.67577385708968       -0.65079360914484
C           -2.79752876903516       -8.49524798645158       -0.29849937462076
C           -5.52696984160890       -6.10954562752821        0.14246256841934
C           -4.88699261874803       -7.31982427789318       -0.28169646700060
C           -2.72828615104261       -6.03341662322867        1.22695990885007
C           -5.57204734763932       -3.69756767300200        0.65256723769347
C           -4.86226379290010       -4.91990616564422        0.61530307881670
C           -3.47636682885509       -4.87810458546764        0.93451322225611
C           -2.79603024289256       -3.64203066503909        0.83127872450349
C           -5.62396229768935       -1.23238018056719        0.84205479086184
C           -4.90073683531438       -2.45247117144621        0.74801503498100
C           -3.50096941820377       -2.42326339563110        0.74453091960906
C           -2.81762694774061       -1.18446218778761        0.72743573330215
C           -5.65018223795115        1.21233623423680        0.22301370375615
C           -4.95428683421559        0.01943404719598        0.59678198178806
C           -3.54335938077290        0.03282525739298        0.62566267793681
C           -2.82532428443942        1.25630134456183        0.52811432164893
C           -5.58859729082807        3.68434550618658       -0.00194750919386
C           -4.93090345787961        2.44626032586091        0.20898720847310
C           -3.52500738352606        2.46959593425346        0.38206963395963
C           -2.81095758020407        3.70198235337720        0.33175554227659
C           -5.59849421949020        6.13109627680128       -0.16713651155096
C           -4.89297717799881        4.92396066481300        0.00460970706437
C           -3.48590285154239        4.93052151180301        0.16870607153484
C           -2.77689725914366        6.16347884034795        0.16091127319036
C           -5.61588427508065        8.58346147061829       -0.36027142970462
C           -4.90173014494310        7.37419719937566       -0.17026651449997
C           -3.50068486969678        7.38655115922555       -0.00529116221605
C           -2.76808324972502        8.59941666929420       -0.05980279203785
C           -4.86829662666785        9.76743423798690       -0.40309860216667
C           -3.50724477903429        9.78250838223480       -0.27426794848207
C           -1.45727692436154       -8.45712127844913        0.11103150489793
C           -0.68204672203176       -9.66303959351056        0.06481913156083
C            0.66798151900279       -9.66411457691332        0.03639320925810
C            1.44813984325902       -8.46032867760660        0.04813718970671
C           -1.38001916320952       -6.08204115327861        0.90422902419411
C           -0.69169951917059       -7.29899746726494        0.53912911313002
C            0.70559028255704       -7.29952832629823        0.50650338615028
C            1.40963725358085       -6.08131387067961        0.83636581134729
C           -1.39073369239223       -3.63159594048507        0.83800970717163
C           -0.69113171242244       -4.85121927026291        0.78966038226089
C            0.71270647806312       -4.85401211807825        0.75374026280482
C            1.41271826861964       -3.63403480639484        0.76155124689789
C           -1.41053100604879       -1.18059870498245        0.74727110108052
C           -0.69737318324520       -2.40163386408191        0.79641622705247
C            0.70732202844783       -2.40852873325420        0.75811154213768
C            1.41188250890550       -1.18960019316595        0.67727120089809
C           -1.41171753215450        1.25983446536522        0.57749949042505
C           -0.70396367326755        0.04249522958100        0.67566620097208
C            0.70650785864402        0.03184646174779        0.65229090128079
C            1.41555806453910        1.25060840374351        0.56318249185811
C           -1.40411492581918        3.70570034954546        0.40731086253034
C           -0.70017291310278        2.48277481961752        0.50654415634747
C            0.71109068978018        2.47081844672606        0.51365791030598
C            1.42405809392403        3.69320932054068        0.42900290059740
C           -1.38791551251068        6.14306692757379        0.29198422118474
C           -0.68689984885967        4.93578115301739        0.37219906635356
C            0.73009263788015        4.90518170490001        0.38382604847402
C            1.43563328472724        6.14042809079030        0.27080813465267
C           -1.36621670800788        8.63492496503020        0.08031740838146
C            0.78166420772823        7.35919269711539        0.24050777282263
C            1.48358073255892        8.57863733659798        0.12316087451808
C           -0.58563251130216        9.77814168404828       -0.00156382971104
C            0.78106841043756        9.80556916100415        0.06175412860728
C            2.77260477777931       -8.50670751889646       -0.41285434439684
C            3.45743234702766       -9.69905944636177       -0.76957716950106
C            4.79910566580768       -9.68996041232021       -0.98853329554582
C            5.57646289753220       -8.51756108263434       -0.72833036916910
C            2.77704507803705       -6.03132361145046        1.08519160988630
C            4.87138716698749       -7.34979238564387       -0.46481324911509
C            5.53437543106587       -6.12817527857395       -0.11007341852973
C            2.81750832566895       -3.65302460961088        0.67042535848374
C            3.50667290968931       -4.88446090564453        0.73356884089366
C            4.88339041701425       -4.93448490873566        0.32975117202982
C            5.58565403408214       -3.70421519306887        0.27272609047005
C            2.81925465685465       -1.20717993088726        0.57859071152846
C            3.51850841177577       -2.43233603739867        0.54852521086846
C            4.91743939958162       -2.45681887327764        0.41338053609194
C            5.62637686345801       -1.23878757815633        0.32113255642300
C            2.82566570665599        1.23269921865107        0.49615356024444
C            3.52757964985655        0.00937422703112        0.49276205175726
C            4.93450870732281       -0.01266916663881        0.37260096690753
C            5.64555245208640        1.20549888465524        0.26290003390937
C            2.84097932522090        3.67049075218016        0.36174599580017
C            3.53512606621219        2.44888114479554        0.38808609059726
C            4.94467572131954        2.42630371220952        0.27660796290348
C            5.65011078044606        3.64197497041592        0.14798112783354
C            2.85352191244111        6.11066359218967        0.18351481013677
C            3.55135226793100        4.88553435017083        0.23074421734540
C            4.95646431793185        4.87148995475314        0.12943153672666
C            5.68030810656592        6.08011867332302       -0.01182855269089
C            2.88924802850161        8.52361977884979        0.02383568909949
C            3.58219644630471        7.30916726649991        0.05719320364467
C            4.99800222152148        7.29066388463813       -0.04033236668678
C            5.69296108295794        8.54640296366869       -0.17940434588697
C            4.92010906673232        9.66819432890012       -0.20337212877010
C            7.01374587237734       -8.52276291077028       -0.73537581567486
C            7.77020503814830       -9.67909499092541       -0.92840098918408
C            9.15100191715077       -9.61962197794956       -1.00462610038774
C            9.81118665238393       -8.41413330555353       -0.90249267743556
C            6.95302650454490       -6.10480345411000       -0.29339508582326
C            7.68383808754350       -7.28409241277217       -0.57934973877871
C            9.10009093723863       -7.22826352182788       -0.68980746746979
C            9.77428479915605       -5.98472514999584       -0.59189139944325
C            6.97103815931275       -3.68656900401603        0.03007715801415
C            7.66173641203834       -4.88578245932442       -0.18996631145628
C            9.07462970465008       -4.83522596642831       -0.37074189533823
C            7.03224496528837       -1.24061951864449        0.13456506323990
C            7.69870050645711       -2.46556433953993       -0.00166522441819
C            9.09585385922730       -2.47216924842243       -0.19518664276714
C            9.80739687671083       -1.28719804432303       -0.24936508668717
C            7.05207493249153        1.19160577355473        0.11272372600821
C            7.75210043000846       -0.03069469562473        0.04480027347920
C            9.15763499243167       -0.04029419127930       -0.14356427553478
C            9.83984015786526        1.20283620301568       -0.23700730295222
C            7.04683297573767        3.62316754919438        0.01370811226585
C            7.75034015159913        2.40686932722083       -0.00656641402072
C            9.16049504623654        2.39621481301179       -0.17320813419875
C            7.10195973345279        6.05932596671465       -0.13582782727857
C            7.77257381495749        4.83336590827287       -0.12776186178711
C            9.18333848761647        4.77210389196892       -0.26639415514134
C            9.88939238494005        5.94088703631520       -0.39082840946807
C            7.14832846325852        8.52576160119010       -0.29033392704397
C            7.81910724023268        7.27140496924053       -0.27329874279257
C            9.23275300145893        7.19825238618185       -0.39364070094243
C            9.95351867269488        8.39834210989331       -0.51935092740079
C            7.91258348397773        9.67541618501902       -0.41593250855423
C            9.29966508207395        9.60554561643644       -0.52680784793116
H          -10.91602333795242       -8.12038132605113       -0.86957768735902
H           -9.81624033232180      -10.31381204604723       -1.18880902027620
H           -7.39771677125213      -10.53054893567013       -1.04234703108155
H          -10.74446433709073       -3.55988261497720       -0.35390404253467
H          -10.75463468822493       -1.11066806806623       -0.05396488659568
H          -10.86429740235582        1.29881524010826       -0.51818624050103
H          -10.85016996975472        5.97228699176662       -0.96224302144509
H          -10.91161110144106        8.41954064861148       -1.05707537832234
H           -5.35460805834559      -10.54895527608392       -1.16766366697441
H           -2.97737207954491      -10.60628468027150       -0.75837956400413
H           -1.18635177645808      -10.61442252761835        0.02548054454963
H            1.16671814588270      -10.61712339123766       -0.02371085713928
H            2.91730886646964      -10.62389965584782       -0.86590299538554
H            5.29007636711659      -10.59646988697100       -1.29916232395659
H            7.28912324119049      -10.63944744316622       -1.01927885749391
H            9.71372951068712      -10.52961021445595       -1.15465371111413
H           10.88754566585444       -8.37248126174790       -0.97873535475476
H           10.84565845881606       -5.94985393318969       -0.70959161593302
H           10.87599062099470       -1.32611198039733       -0.39285244070291
H           10.91010233143803        1.20998117822766       -0.37286799636326
H           10.96295336591191        5.90926431279542       -0.49238493888109
H           11.02877976701696        8.35727501377218       -0.60961203739992
H            9.86407115438204       10.52166287018756       -0.62188698928927
H           -9.74253619825005       10.58678823801955       -0.98371019843321
H           -7.34480517452250       10.70041178337744       -0.66425340889525
H           -5.36673579822291       10.71123642501873       -0.55387700868084
H           -3.00448951389290       10.73287664530886       -0.32973408352882
H           -1.10689949252830       10.70681922447078       -0.15155794216242
H            1.32911474204368       10.72676087175711       -0.00770297154882
H            5.30995866493655       10.66905165086524       -0.30474776884799
H            7.44080703444148       10.64508203140780       -0.42913457951976
O            3.57803621389027        9.69523483814289       -0.10776444611217
O           -0.66258793881889        7.38454935122406        0.46830784618975
O           -9.76266264126053        3.65951025866616       -0.68931859261122
O           -7.70662252310929        0.13203398012091       -0.50580398249064
O            9.84878598661028        3.57632969620135       -0.28226743987518
O            9.76382887340713       -3.65174399070276       -0.33240194763894
O            3.50859394839447       -7.35045503377614       -0.61217687275288
O           -3.53108711045531       -7.32778090616933       -0.44920451324482
O           -9.74669892329544       -5.91920193882578       -0.34075466348622
H           -7.51899723486381       -0.51659948573411        1.57656855660894
H            3.28592734525432       -6.88598137402319        1.50592878254458
H           -3.21680060760499       -6.88890053166273        1.67015415705062
