204
 energy: -399.746252357580 gnorm: 0.083897569541 xtb: 6.7.1pre (5071a88)
C           -9.91807100000000       -8.25549000000000       -0.82287600000000
C           -9.29020100000000       -9.49740200000000       -1.01716100000000
C           -7.91471200000000       -9.63564700000000       -0.92262300000000
C           -7.10109900000000       -8.52021500000000       -0.61795400000000
C           -9.13775400000000       -7.15639500000000       -0.51429500000000
C           -7.72934500000000       -7.26371000000000       -0.38236800000000
C           -6.96714600000000       -6.12208400000000        0.00593200000000
C           -9.75491100000000       -3.60250200000000       -0.06154200000000
C           -9.07596000000000       -4.82572600000000       -0.04216100000000
C           -7.69214800000000       -4.90215800000000        0.19341000000000
C           -7.01532300000000       -3.70972200000000        0.52218300000000
C           -9.72882800000000       -1.10932100000000       -0.01009400000000
C           -9.08739000000000       -2.40137800000000        0.24127800000000
C           -7.72833900000000       -2.49373300000000        0.68145800000000
C           -7.01810000000000       -1.34320000000000        1.09697500000000
C           -9.86862200000000        1.33941200000000       -0.52128100000000
C           -9.15753500000000        0.09495100000000       -0.33703600000000
C           -7.07705600000000        1.29809900000000       -0.19852100000000
C           -9.16233000000000        2.49989500000000       -0.55543900000000
C           -7.72806600000000        2.50270400000000       -0.32336200000000
C           -7.02410300000000        3.72550100000000       -0.21592200000000
C           -9.86099600000000        6.03896400000000       -0.80111500000000
C           -9.14067100000000        4.89266300000000       -0.63545100000000
C           -7.73381800000000        4.92744500000000       -0.39886100000000
C           -7.05522200000000        6.16788500000000       -0.36877000000000
C           -9.92951600000000        8.50961100000000       -0.92058100000000
C           -9.20664600000000        7.31302800000000       -0.75589000000000
C           -7.79055300000000        7.37774000000000       -0.55083500000000
C           -7.11310600000000        8.63357800000000       -0.53242900000000
C           -9.26754200000000        9.73094000000000       -0.88550500000000
C           -7.88534400000000        9.79746700000000       -0.69785500000000
C           -5.65731100000000       -8.55699900000000       -0.58025300000000
C           -4.88165100000000       -9.74448200000000       -0.85638300000000
C           -3.53147200000000       -9.77579100000000       -0.66823800000000
C           -2.81410000000000       -8.59046700000000       -0.29832800000000
C           -5.55945100000000       -6.17387300000000        0.16883400000000
C           -4.93991900000000       -7.40485100000000       -0.27101300000000
C           -2.73443400000000       -6.07275400000000        1.25185600000000
C           -5.60097100000000       -3.73638900000000        0.68585200000000
C           -4.88180800000000       -4.96750200000000        0.64542300000000
C           -3.49308100000000       -4.91094600000000        0.98238700000000
C           -2.81127300000000       -3.66153300000000        0.90495100000000
C           -5.65871200000000       -1.25114400000000        0.86744100000000
C           -4.92460500000000       -2.48029600000000        0.78632800000000
C           -3.52280700000000       -2.43981700000000        0.81186600000000
C           -2.83717300000000       -1.18540200000000        0.78560600000000
C           -5.69131000000000        1.21856300000000        0.22769600000000
C           -4.99205100000000        0.02228300000000        0.61384000000000
C           -3.56887200000000        0.04129400000000        0.66458500000000
C           -2.84746900000000        1.27443800000000        0.55567500000000
C           -5.63209700000000        3.71816200000000        0.00191200000000
C           -4.96547500000000        2.47044000000000        0.21332100000000
C           -3.55184000000000        2.49304800000000        0.39013200000000
C           -2.82983500000000        3.73969100000000        0.33310000000000
C           -5.64075400000000        6.18267900000000       -0.17338000000000
C           -4.93050100000000        4.96701700000000        0.00432500000000
C           -3.51045700000000        4.97292200000000        0.16535200000000
C           -2.79733900000000        6.22186200000000        0.13736000000000
C           -5.66787600000000        8.64984800000000       -0.35887600000000
C           -4.94026400000000        7.43891700000000       -0.17918500000000
C           -3.52357300000000        7.45405400000000       -0.02483700000000
C           -2.79764800000000        8.67890900000000       -0.07228000000000
C           -4.92142400000000        9.84936200000000       -0.38404700000000
C           -3.55472600000000        9.87360100000000       -0.25722200000000
C           -1.47210500000000       -8.52388300000000        0.11939100000000
C           -0.68273300000000       -9.74253200000000        0.04878000000000
C            0.67210200000000       -9.74292600000000        0.02016900000000
C            1.46543600000000       -8.52438200000000        0.05054200000000
C           -1.38307800000000       -6.11830900000000        0.95636200000000
C           -0.69672100000000       -7.35080700000000        0.56905700000000
C            0.71253600000000       -7.34948800000000        0.53254400000000
C            1.41469300000000       -6.11401400000000        0.87772900000000
C           -1.39760500000000       -3.64853000000000        0.91219800000000
C           -0.69152900000000       -4.87276900000000        0.87012400000000
C            0.71515200000000       -4.87424200000000        0.82906900000000
C            1.42012500000000       -3.64772400000000        0.82463400000000
C           -1.42402800000000       -1.17887000000000        0.80642800000000
C           -0.70127400000000       -2.40878500000000        0.86542200000000
C            0.70911200000000       -2.41399700000000        0.82029400000000
C            1.41972100000000       -1.18678700000000        0.72466000000000
C           -1.42168500000000        1.27701900000000        0.61062600000000
C           -0.71198200000000        0.05335600000000        0.71849000000000
C            0.71054200000000        0.04218100000000        0.69263300000000
C            1.42428500000000        1.26714400000000        0.58169500000000
C           -1.41207200000000        3.73799800000000        0.41133800000000
C           -0.70375500000000        2.50757600000000        0.52064500000000
C            0.71597000000000        2.49629600000000        0.52500300000000
C            1.43480300000000        3.72598200000000        0.41927600000000
C           -1.40862700000000        6.16494700000000        0.25147000000000
C           -0.68357500000000        4.97301300000000        0.35223000000000
C            0.73939600000000        4.94553100000000        0.35831600000000
C            1.45558100000000        6.18061900000000        0.23735600000000
C           -1.39781600000000        8.76728400000000        0.04170900000000
C            0.83397200000000        7.41499700000000        0.17966700000000
C            1.50375000000000        8.65700300000000        0.09947900000000
C           -0.56883800000000        9.87427900000000        0.00899300000000
C            0.80598300000000        9.89288000000000        0.06321900000000
C            2.78813900000000       -8.59641100000000       -0.42347400000000
C            3.48629000000000       -9.79431200000000       -0.78859400000000
C            4.83420800000000       -9.77779500000000       -0.98738300000000
C            5.61984300000000       -8.59243800000000       -0.73445900000000
C            2.78719300000000       -6.06280100000000        1.08761600000000
C            4.92014800000000       -7.42275700000000       -0.47552900000000
C            5.56184400000000       -6.17611200000000       -0.11291500000000
C            2.83313800000000       -3.66660400000000        0.71764700000000
C            3.52212700000000       -4.90763500000000        0.75551900000000
C            4.90426100000000       -4.96917500000000        0.32908500000000
C            5.61654800000000       -3.72871300000000        0.27680600000000
C            2.83494000000000       -1.20568500000000        0.61786700000000
C            3.54005100000000       -2.44026800000000        0.58457100000000
C            4.94214400000000       -2.46972700000000        0.42548100000000
C            5.65657400000000       -1.24174400000000        0.32514600000000
C            2.84365600000000        1.24792800000000        0.51263200000000
C            3.54699200000000        0.01655100000000        0.50922600000000
C            4.96435600000000       -0.00840100000000        0.38336500000000
C            5.67962200000000        1.21810100000000        0.26299800000000
C            2.86304700000000        3.69851000000000        0.35791000000000
C            3.55845900000000        2.47076900000000        0.38697100000000
C            4.97803000000000        2.44757000000000        0.27918900000000
C            5.69033300000000        3.66975100000000        0.14457800000000
C            2.88244200000000        6.14894100000000        0.17186200000000
C            3.58093200000000        4.91958100000000        0.22254700000000
C            4.99541900000000        4.90756200000000        0.12644500000000
C            5.72262200000000        6.12566900000000       -0.01252800000000
C            2.91673900000000        8.56624400000000        0.02243400000000
C            3.61537700000000        7.35624400000000        0.05430500000000
C            5.03917800000000        7.34151300000000       -0.03954900000000
C            5.73956400000000        8.60158900000000       -0.17117900000000
C            4.97381400000000        9.73096700000000       -0.18445800000000
C            7.06854700000000       -8.58579100000000       -0.74751200000000
C            7.83500900000000       -9.74455000000000       -0.96149500000000
C            9.22530400000000       -9.67426100000000       -1.04428500000000
C            9.88703600000000       -8.45680300000000       -0.92763600000000
C            6.99479100000000       -6.14797300000000       -0.29371000000000
C            7.73790800000000       -7.33413800000000       -0.58441000000000
C            9.16731300000000       -7.26905200000000       -0.70157500000000
C            9.83846100000000       -6.00865600000000       -0.59955400000000
C            7.01021900000000       -3.71199400000000        0.03373800000000
C            7.70037100000000       -4.91324500000000       -0.18941800000000
C            9.12022700000000       -4.87159400000000       -0.37356500000000
C            7.07214300000000       -1.24664100000000        0.13474700000000
C            7.73862700000000       -2.47954000000000        0.00220400000000
C            9.13594000000000       -2.47677600000000       -0.19246200000000
C            9.86674200000000       -1.29690900000000       -0.25545800000000
C            7.09447200000000        1.20342200000000        0.11111800000000
C            7.79691800000000       -0.02816500000000        0.04208600000000
C            9.21438700000000       -0.03933800000000       -0.14924300000000
C            9.90457200000000        1.21726100000000       -0.24401900000000
C            7.09583300000000        3.64977500000000        0.01152300000000
C            7.79478600000000        2.42786700000000       -0.00898900000000
C            9.21040400000000        2.40518500000000       -0.17673000000000
C            7.15763300000000        6.10185100000000       -0.13595300000000
C            7.82417700000000        4.86706500000000       -0.12908700000000
C            9.24067200000000        4.81342400000000       -0.26954800000000
C            9.96897400000000        5.96817600000000       -0.39648000000000
C            7.21422600000000        8.58689500000000       -0.28742700000000
C            7.88667800000000        7.31934400000000       -0.27333700000000
C            9.31278000000000        7.24248000000000       -0.39853500000000
C           10.04079300000000        8.44804700000000       -0.52784100000000
C            7.98545900000000        9.74039100000000       -0.41657800000000
C            9.38378300000000        9.66590900000000       -0.53393200000000
H          -10.99319200000000       -8.14284600000000       -0.91105800000000
H           -9.90023700000000      -10.36394300000000       -1.25414700000000
H           -7.47023700000000      -10.60976400000000       -1.08935700000000
H          -10.79030900000000       -3.59181400000000       -0.38799300000000
H          -10.81587500000000       -1.11070600000000       -0.03282700000000
H          -10.95190900000000        1.33955400000000       -0.55145700000000
H          -10.93133200000000        5.98726100000000       -0.97355800000000
H          -11.00403000000000        8.46675000000000       -1.07502300000000
H           -5.38802500000000      -10.65507200000000       -1.15337700000000
H           -3.00465800000000      -10.71305300000000       -0.78592500000000
H           -1.18423100000000      -10.70085700000000       -0.01258700000000
H            1.16842200000000      -10.70208900000000       -0.06180000000000
H            2.95032700000000      -10.72863500000000       -0.88585600000000
H            5.32963000000000      -10.69652100000000       -1.27622200000000
H            7.35364000000000      -10.70989600000000       -1.06582700000000
H            9.79613100000000      -10.58378000000000       -1.20963500000000
H           10.96966500000000       -8.41060000000000       -1.00758000000000
H           10.91588200000000       -5.95880400000000       -0.71926100000000
H           10.94055500000000       -1.34689500000000       -0.40539500000000
H           10.98084900000000        1.23302800000000       -0.38359500000000
H           11.04827200000000        5.92177800000000       -0.50076600000000
H           11.12229300000000        8.40651900000000       -0.62291900000000
H            9.95360400000000       10.58523000000000       -0.63305700000000
H           -9.83009700000000       10.65220800000000       -1.00960100000000
H           -7.41611700000000       10.77440800000000       -0.68277200000000
H           -5.42673400000000       10.79887100000000       -0.52018100000000
H           -3.05474600000000       10.83304600000000       -0.30175000000000
H           -1.08878800000000       10.82007700000000       -0.09455400000000
H            1.35316000000000       10.82319700000000        0.01333600000000
H            5.34661400000000       10.74210000000000       -0.27302900000000
H            7.51689300000000       10.71908000000000       -0.43022900000000
O            3.61767300000000        9.74076400000000       -0.08906800000000
O           -0.65185100000000        7.43351300000000        0.32550900000000
O           -9.81850900000000        3.68736600000000       -0.70575900000000
O           -7.77838000000000        0.16879400000000       -0.54822300000000
O            9.90196300000000        3.59654200000000       -0.28350600000000
O            9.80660300000000       -3.66984700000000       -0.32356600000000
O            3.54529400000000       -7.44432400000000       -0.65847800000000
O           -3.57301900000000       -7.43030900000000       -0.46997800000000
O           -9.78940500000000       -5.95393700000000       -0.34577700000000
H           -7.56732700000000       -0.50303900000000        1.49327200000000
H            3.31193500000000       -6.94901900000000        1.40869200000000
H           -3.24026300000000       -6.96232900000000        1.59424600000000
204
 energy: -399.763866089870 gnorm: 0.048106651941 xtb: 6.7.1pre (5071a88)
C           -9.89708651305353       -8.24628997730201       -0.81844429461203
C           -9.27382690905830       -9.48008677700057       -1.01112654910182
C           -7.90584992921399       -9.61371633979289       -0.91622659880675
C           -7.09187200650260       -8.50504396857353       -0.61210794868151
C           -9.12376965723888       -7.14300463937578       -0.50956040695433
C           -7.71782559129786       -7.25295867715998       -0.37997195901583
C           -6.95686922537929       -6.11134970321789        0.00354086463118
C           -9.73615872240004       -3.59693222337949       -0.06484128262544
C           -9.06571511182831       -4.82212804930036       -0.04467742896144
C           -7.68113267749301       -4.89357968342286        0.18733404214628
C           -7.00459189411212       -3.70136226419858        0.50957840099446
C           -9.70933344299036       -1.11020787893158       -0.01367824349413
C           -9.07408360903425       -2.39833867801783        0.23252209532541
C           -7.71693518788441       -2.48817453674230        0.66384107051961
C           -7.01125811798279       -1.33948576785562        1.07886809253844
C           -9.84361664627136        1.33393186416266       -0.50419310487513
C           -9.13148413139485        0.08981696723890       -0.33278696702608
C           -7.06147636291035        1.28854248598402       -0.19019984298770
C           -9.14493083203157        2.50196598911074       -0.54615079802497
C           -7.71254830386014        2.49888226072546       -0.31761300014978
C           -7.01091872623455        3.72248876293044       -0.21249674319793
C           -9.83811172477934        6.03714701964833       -0.79861857393825
C           -9.12477021596091        4.88501670686251       -0.63384386861772
C           -7.72098886647010        4.92534593323517       -0.39636890261556
C           -7.04294355827660        6.16206349538317       -0.36738702805373
C           -9.90594972082213        8.49727084490188       -0.91661755197549
C           -9.18577265608498        7.30430875363250       -0.75272943829812
C           -7.77606622421972        7.36773972082592       -0.54914926448975
C           -7.10206352444367        8.61928275680827       -0.53124755160245
C           -9.24936424682226        9.71127094651754       -0.88169801083028
C           -7.87467989223933        9.77668632176355       -0.69566336355461
C           -5.65247174213038       -8.53773049892438       -0.57249404907344
C           -4.87836260109828       -9.72061335832286       -0.84654686915248
C           -3.53153702502390       -9.75123265144668       -0.65253580580844
C           -2.81210257206863       -8.56751696575484       -0.29385361689315
C           -5.55348783411432       -6.16102467125878        0.16716380500769
C           -4.92852710984418       -7.38667474931604       -0.26319509524950
C           -2.73460492898199       -6.06749177346073        1.22852843943876
C           -5.59450406922671       -3.72842154272355        0.67946741736624
C           -4.88068165775662       -4.95859902510264        0.63950510354763
C           -3.49076253783913       -4.90584757668473        0.96308880876513
C           -2.80888652095826       -3.65873101528096        0.89221983388575
C           -5.65037200293735       -1.24624611270735        0.84718450181909
C           -4.91973793196466       -2.47470136032047        0.77661387538777
C           -3.51751544699711       -2.43602420485146        0.80119027076018
C           -2.83346907073243       -1.18450902108156        0.77955029756633
C           -5.67928794144519        1.21988252831700        0.22832881184592
C           -4.98188533307190        0.02401599577395        0.60897950605448
C           -3.56305520011368        0.04042253669323        0.65915057198484
C           -2.84308498158877        1.27162936162740        0.55324174337022
C           -5.62117877286403        3.71237416963512        0.00141519934682
C           -4.95750372157628        2.46684976295287        0.21376003953042
C           -3.54626723452069        2.48985279765974        0.39011745326374
C           -2.82751306633795        3.73313526233173        0.33217001938836
C           -5.63226139880505        6.17318533604226       -0.17303118282604
C           -4.92348757205575        4.95935409333658        0.00314896874267
C           -3.50763652970620        4.96499758363036        0.16324479847305
C           -2.79542673694361        6.20920516851020        0.13375197806406
C           -5.66117778724422        8.63405187821575       -0.35845351431772
C           -4.93457435542428        7.42515088144689       -0.17959852620627
C           -3.52235203357220        7.43939166314771       -0.02733480252574
C           -2.79562832154165        8.66129352970837       -0.07446798604676
C           -4.91579678702541        9.82732472336510       -0.38314070615217
C           -3.55262408938433        9.84940701702751       -0.25810634621140
C           -1.46951943808083       -8.50729705462447        0.11544647618457
C           -0.68042037344191       -9.71514251614524        0.04975758355184
C            0.67042752062624       -9.71542223786635        0.02077076836019
C            1.46327676255274       -8.50784145245382        0.04700240459903
C           -1.38196940531314       -6.11429747377232        0.93163920549380
C           -0.69366843390120       -7.34200663039708        0.55492357557823
C            0.70951501775364       -7.34088638498721        0.51842558875399
C            1.41340004197626       -6.11072845045145        0.85395004208213
C           -1.39678505945733       -3.64753143622170        0.90687624735122
C           -0.69122071496078       -4.87116261342043        0.85424710560849
C            0.71517850432267       -4.87286406653638        0.81268580695327
C            1.41996487455282       -3.64732476593930        0.81777636585855
C           -1.42104906834409       -1.17977849476327        0.80323333888947
C           -0.70099779883535       -2.40872659027663        0.86206720718403
C            0.70938645878612       -2.41460993200759        0.81752953220890
C            1.41792813799774       -1.18804838712596        0.72225651425226
C           -1.42031866698536        1.27375170167909        0.60668162047911
C           -0.71055222785461        0.05105179238106        0.71679219617189
C            0.70918074192399        0.04001670234923        0.68924236280652
C            1.42160096001118        1.26461866740238        0.58120116622542
C           -1.41252467290118        3.73178270974360        0.40706892261195
C           -0.70460636659359        2.50334801284412        0.51883372522451
C            0.71400550284575        2.49209432028820        0.52082771506399
C            1.43234071358603        3.72005125921801        0.41744937837414
C           -1.40403593605605        6.16544507395412        0.24612705329812
C           -0.68696196909823        4.96621184630500        0.34528805649547
C            0.73664662306843        4.93771799195922        0.35345673991500
C            1.45207385948538        6.17376135268793        0.23575782694792
C           -1.39392842640987        8.73447330854641        0.04331545858504
C            0.81636697523558        7.40287750425142        0.18400276907116
C            1.50152155526301        8.63554742650074        0.09586534180280
C           -0.57487826745344        9.84939322612186        0.00480056585577
C            0.79712863068032        9.86492297742740        0.05760725586346
C            2.78766814725785       -8.57364349357019       -0.41796369637123
C            3.48758781808086       -9.76973353492098       -0.77258532105950
C            4.83239795018234       -9.75411156780397       -0.97798036900476
C            5.61673456744046       -8.57413289318988       -0.72819695508449
C            2.78638341029239       -6.05954953296447        1.06580110999942
C            4.91122221599971       -7.40543022668739       -0.46919343356478
C            5.55875329468589       -6.16562484538143       -0.11386255998770
C            2.83079129663374       -3.66520605927551        0.70677207432054
C            3.51979136255780       -4.90498068860793        0.73693086016714
C            4.90268037398407       -4.96294342170449        0.32564583714510
C            5.60789702835926       -3.72437800474635        0.27421579301260
C            2.83151330512022       -1.20645695671167        0.61325767776603
C            3.53514090168526       -2.43911271417970        0.57891321913112
C            4.93667451061911       -2.46816128045354        0.42291170178304
C            5.64837638245623       -1.24179684071249        0.32516374066611
C            2.83910665131057        1.24533419767957        0.50848069942734
C            3.54235834677606        0.01525160584087        0.50963368684430
C            4.95640638433997       -0.00957827133925        0.38017421810722
C            5.67088351976246        1.21489408539126        0.26326211095120
C            2.85841080311119        3.69387429868072        0.35473870477155
C            3.55331146856342        2.46691041682841        0.38758161543692
C            4.97034168128727        2.44324775941108        0.27661838916950
C            5.68131698562143        3.66376185656073        0.14522329837100
C            2.87889189292470        6.14201661120904        0.17051249504277
C            3.57666305522683        4.91291023170674        0.22234786676413
C            4.98891610994548        4.89997150128346        0.12624978630216
C            5.71693506005998        6.11490133538029       -0.01204634909656
C            2.91624221790939        8.56023505267926        0.02048429030746
C            3.61213492382133        7.34637702984515        0.05244346479527
C            5.03530681596731        7.32960060753270       -0.03913732144963
C            5.73768911959753        8.58720167009866       -0.17049410248019
C            4.96865647254602        9.71311194936989       -0.18360080682437
C            7.06125972913312       -8.57025457801268       -0.74355932261293
C            7.82799280594434       -9.72256881063002       -0.95658372964449
C            9.21036535808067       -9.65420675528961       -1.03931681146722
C            9.86566304124437       -8.44329560709127       -0.92423405293008
C            6.98517916067268       -6.14001538454340       -0.29452804225524
C            7.72535502899239       -7.32238236974935       -0.58322923008347
C            9.14758166023201       -7.26001130765057       -0.69932945354741
C            9.81649911986116       -6.00596901588073       -0.59711109444752
C            6.99840553136720       -3.70745386406950        0.03134228189566
C            7.68909165631479       -4.90980996953274       -0.18974599011403
C            9.10603793722063       -4.86342989397439       -0.37113691443025
C            7.06023798086566       -1.24519572512979        0.13384236823274
C            7.72557602585800       -2.47700692514479        0.00036399947472
C            9.12295896525950       -2.47847024885660       -0.19340015098338
C            9.84360498979262       -1.29433668951778       -0.25367174288606
C            7.08290040826464        1.19965972859278        0.11048862428106
C            7.78371535604338       -0.02942418721108        0.04187463357435
C            9.19517266189352       -0.04035707492924       -0.14837388230211
C            9.88038965700069        1.21146710597318       -0.24239001746546
C            7.08401794719102        3.64389423148714        0.01189394023993
C            7.78264234227939        2.42165640518145       -0.00897423767712
C            9.19597992618802        2.40384851151981       -0.17607746968998
C            7.14672690429702        6.09271523951266       -0.13473256467770
C            7.81208676363326        4.85975991680608       -0.12802310444390
C            9.22590470258198        4.80231197966051       -0.26793755987204
C            9.94530968099908        5.96381106832312       -0.39430649473713
C            7.20461791546940        8.56866637064859       -0.28581258589076
C            7.87340216695780        7.30678252297258       -0.27166577929205
C            9.29252586797184        7.23145839968134       -0.39617045936234
C           10.01791590653143        8.43310510776505       -0.52503590365157
C            7.97526310723033        9.71765140592321       -0.41480317650911
C            9.36579167723240        9.64433884821391       -0.53118943438401
H          -10.96837150655279       -8.13972869100892       -0.90787624517831
H           -9.88236441460701      -10.34377504928587       -1.24784526546206
H           -7.46574437124603      -10.58568474477378       -1.08299502471372
H          -10.77115510468126       -3.58779778777354       -0.37835299374011
H          -10.79323912751382       -1.11528392610493       -0.03644288776149
H          -10.92234805835331        1.33096993892656       -0.54877611352177
H          -10.90492037689067        5.99121399909688       -0.97024632810144
H          -10.97690735643046        8.45775360440874       -1.07058033361360
H           -5.38354549885778      -10.62610095281611       -1.15000368829272
H           -3.00849518534568      -10.68673602930141       -0.77569202372372
H           -1.18135960751705      -10.67062043282199       -0.00764914701152
H            1.16621834484211      -10.67183519653132       -0.05723386856379
H            2.95491027493396      -10.70210540350374       -0.87616897534699
H            5.32538563943933      -10.66827351559152       -1.27424549394079
H            7.35283041522898      -10.68699459275986       -1.06137138773550
H            9.78019326724346      -10.56068694310004       -1.20485981129950
H           10.94455105947152       -8.40022707834458       -1.00419621255383