      -----------------------------------------------------------      
     |                   =====================                   |     
     |                           x T B                           |     
     |                   =====================                   |     
     |                         S. Grimme                         |     
     |          Mulliken Center for Theoretical Chemistry        |     
     |                    University of Bonn                     |     
      -----------------------------------------------------------      

   * xtb version 6.7.1pre (5071a88) compiled by 'Marcel@Raven' on 2024-07-23

   xtb is free software: you can redistribute it and/or modify it under
   the terms of the GNU Lesser General Public License as published by
   the Free Software Foundation, either version 3 of the License, or
   (at your option) any later version.
   
   xtb is distributed in the hope that it will be useful,
   but WITHOUT ANY WARRANTY; without even the implied warranty of
   MERCHANTABILITY or FITNESS FOR A PARTICULAR PURPOSE.  See the
   GNU Lesser General Public License for more details.
   
   Cite this work as:
   * C. Bannwarth, E. Caldeweyher, S. Ehlert, A. Hansen, P. Pracht,
     J. Seibert, S. Spicher, S. Grimme, WIREs Comput. Mol. Sci., 2020, 11,
     e01493. DOI: 10.1002/wcms.1493
   
   for GFN2-xTB:
   * C. Bannwarth, S. Ehlert and S. Grimme., J. Chem. Theory Comput., 2019,
     15, 1652-1671. DOI: 10.1021/acs.jctc.8b01176
   for GFN1-xTB:
   * S. Grimme, C. Bannwarth, P. Shushkov, J. Chem. Theory Comput., 2017,
     13, 1989-2009. DOI: 10.1021/acs.jctc.7b00118
   for GFN0-xTB:
   * P. Pracht, E. Caldeweyher, S. Ehlert, S. Grimme, ChemRxiv, 2019, preprint.
     DOI: 10.26434/chemrxiv.8326202.v1
   for GFN-FF:
   * S. Spicher and S. Grimme, Angew. Chem. Int. Ed., 2020, 59, 15665-15673.
     DOI: 10.1002/anie.202004239
   
   for ALPB and GBSA implicit solvation:
   * S. Ehlert, M. Stahn, S. Spicher, S. Grimme, J. Chem. Theory Comput.,
     2021, 17, 4250-4261. DOI: 10.1021/acs.jctc.1c00471
   
   for ddCOSMO and CPCM-X implicit solvation:
   * M. Stahn, S. Ehlert, S. Grimme, J. Phys. Chem. A,
     2023, XX, XXXX-XXXX. DOI: 10.1021/acs.jpca.3c04382
   
   for DFT-D4:
   * E. Caldeweyher, C. Bannwarth and S. Grimme, J. Chem. Phys., 2017,
     147, 034112. DOI: 10.1063/1.4993215
   * E. Caldeweyher, S. Ehlert, A. Hansen, H. Neugebauer, S. Spicher,
     C. Bannwarth and S. Grimme, J. Chem. Phys., 2019, 150, 154122.
     DOI: 10.1063/1.5090222
   * E. Caldeweyher, J.-M. Mewes, S. Ehlert and S. Grimme, Phys. Chem. Chem. Phys.
     2020, 22, 8499-8512. DOI: 10.1039/D0CP00502A
   
   for sTDA-xTB:
   * S. Grimme and C. Bannwarth, J. Chem. Phys., 2016, 145, 054103.
     DOI: 10.1063/1.4959605
   
   in the mass-spec context:
   * V. Asgeirsson, C. Bauer and S. Grimme, Chem. Sci., 2017, 8, 4879.
     DOI: 10.1039/c7sc00601b
   * J. Koopman and S. Grimme, ACS Omega 2019, 4, 12, 15120-15133.
     DOI: 10.1021/acsomega.9b02011
   
   for metadynamics refer to:
   * S. Grimme, J. Chem. Theory Comput., 2019, 155, 2847-2862
     DOI: 10.1021/acs.jctc.9b00143
   
   for SPH calculations refer to:
   * S. Spicher and S. Grimme, J. Chem. Theory Comput., 2021, 17, 1701-1714
     DOI: 10.1021/acs.jctc.0c01306
   
   for ONIOM refer to:
   * C. Plett, A. Katbashev, S. Ehlert, S. Grimme, M. Bursch,
     Phys. Chem. Chem. Phys., 2023, 25, 17860-17868. DOI: 10.1039/D3CP02178E
   
   for DIPRO refer to:
   * J. Kohn, N. Gildemeister, S. Grimme, D. Fazzi, A. Hansen,
     J. Chem. Phys., 2023, just accepted.
   
   for PTB refer to:
   * S. Grimme, M. Mueller, A. Hansen, J. Chem. Phys., 2023, 158, 124111.
     DOI: 10.1063/5.0137838
   
   with help from (in alphabetical order)
   P. Atkinson, C. Bannwarth, F. Bohle, G. Brandenburg, E. Caldeweyher
   M. Checinski, S. Dohm, S. Ehlert, S. Ehrlich, I. Gerasimov, C. Hölzer
   A. Katbashev, J. Kohn, J. Koopman, C. Lavigne, S. Lehtola, F. März, M. Müller,
   F. Musil, H. Neugebauer, J. Pisarek, C. Plett, P. Pracht, F. Pultar,
   J. Seibert, P. Shushkov, S. Spicher, M. Stahn, M. Steiner, T. Strunk,
   J. Stückrath, T. Rose, and J. Unsleber
   
 * started run on 2025/12/08 at 00:43:29.835     
   ID    Z sym.   atoms
    1    6 C      1-167
    2    1 H      168-202
    3   15 P      203-205

           -------------------------------------------------
          |                Calculation Setup                |
           -------------------------------------------------

          program call               : xtb "C:\Users\LENOVO GAMING\Documents\GitHub\molecular-conductivity-sim\dataset\2nm-3Pdoped-1.5percent.xyz" --opt --parallel 4
          coordinate file            : C:\Users\LENOVO GAMING\Documents\GitHub\molecular-conductivity-sim\dataset\2nm-3Pdoped-1.5percent.xyz
          omp threads                :                     4


           -------------------------------------------------
          |                 G F N 2 - x T B                 |
           -------------------------------------------------

        Reference                      10.1021/acs.jctc.8b01176
      * Hamiltonian:
        H0-scaling (s, p, d)           1.850000    2.230000    2.230000
        zeta-weighting                 0.500000
      * Dispersion:
        s8                             2.700000
        a1                             0.520000
        a2                             5.000000
        s9                             5.000000
      * Repulsion:
        kExp                           1.500000    1.000000
        rExp                           1.000000
      * Coulomb:
        alpha                          2.000000
        third order                    shell-resolved
        anisotropic                    true
        a3                             3.000000
        a5                             4.000000
        cn-shift                       1.200000
        cn-exp                         4.000000
        max-rad                        5.000000


          ...................................................
          :                      SETUP                      :
          :.................................................:
          :  # basis functions                 733          :
          :  # atomic orbitals                 730          :
          :  # shells                          378          :
          :  # electrons                       718          :
          :  max. iterations                   250          :
          :  Hamiltonian                  GFN2-xTB          :
          :  restarted?                      false          :
          :  GBSA solvation                  false          :
          :  PC potential                    false          :
          :  electronic temp.          300.0000000     K    :
          :  accuracy                    1.0000000          :
          :  -> integral cutoff          0.2500000E+02      :
          :  -> integral neglect         0.1000000E-07      :
          :  -> SCF convergence          0.1000000E-05 Eh   :
          :  -> wf. convergence          0.1000000E-03 e    :
          :  Broyden damping             0.4000000          :
          :  net charge                          0          :
          :  unpaired electrons                  0          :
          ...................................................

 iter      E             dE          RMSdq      gap      omega  full diag
   1   -391.2860280 -0.391286E+03  0.498E+00    0.11       0.0  T
   2   -390.8610622  0.424966E+00  0.331E+00    0.57       1.0  T
   3   -366.5708941  0.242902E+02  0.453E+00    0.04       1.0  T
   4   -291.4538189  0.751171E+02  0.710E+00    0.02       1.0  T
   5   -388.3612000 -0.969074E+02  0.224E+00    0.09       1.0  T
   6   -391.0864117 -0.272521E+01  0.948E-01    0.15       1.0  T
   7   -391.1777083 -0.912967E-01  0.106E+00    0.05       1.0  T
   8   -391.4076700 -0.229962E+00  0.503E-01    0.03       1.0  T
   9   -391.3543156  0.533544E-01  0.525E-01    0.10       1.0  T
  10   -391.2905632  0.637525E-01  0.104E+00    0.23       1.0  T
  11   -391.3012486 -0.106854E-01  0.962E-01    0.20       1.0  T
  12   -391.3445785 -0.433299E-01  0.772E-01    0.13       1.0  T
  13   -391.4390402 -0.944617E-01  0.270E-01    0.05       1.0  T
  14   -391.4457063 -0.666615E-02  0.222E-01    0.03       1.0  T
  15   -391.4560430 -0.103367E-01  0.551E-02    0.02       1.0  T
  16   -391.4562244 -0.181401E-03  0.437E-02    0.02       1.0  T
  17   -391.4562488 -0.243941E-04  0.417E-02    0.02       1.0  T
  18   -391.4565445 -0.295638E-03  0.316E-03    0.02       2.2  T
  19   -391.4565285  0.159620E-04  0.120E-02    0.02       1.0  T
  20   -391.4565457 -0.171505E-04  0.427E-03    0.02       1.6  T
  21   -391.4565452  0.465542E-06  0.428E-03    0.02       1.6  T
  22   -391.4565471 -0.191302E-05  0.143E-03    0.02       4.9  T
  23   -391.4565472 -0.712204E-07  0.527E-04    0.02      13.3  T
  24   -391.4565473 -0.126344E-06  0.304E-04    0.02      23.0  T

   *** convergence criteria satisfied after 24 iterations ***

         #    Occupation            Energy/Eh            Energy/eV
      -------------------------------------------------------------
         1        2.0000           -0.6698635             -18.2279
       ...           ...                  ...                  ...
       353        2.0000           -0.3704902             -10.0816
       354        2.0000           -0.3659394              -9.9577
       355        2.0000           -0.3616766              -9.8417
       356        2.0000           -0.3586455              -9.7592
       357        2.0000           -0.3558241              -9.6825
       358        2.0000           -0.3399721              -9.2511
       359        1.2086           -0.3268948              -8.8953 (HOMO)
       360        0.7914           -0.3260901              -8.8734 (LUMO)
       361        0.0000           -0.3139689              -8.5435
       362                         -0.2943959              -8.0109
       363                         -0.2915332              -7.9330
       364                         -0.2885839              -7.8528
       ...                                ...                  ...
       730                          0.9181577              24.9843
      -------------------------------------------------------------
                  HL-Gap            0.0008047 Eh            0.0219 eV
             Fermi-level           -0.3264924 Eh           -8.8843 eV

 SCC (total)                   0 d,  0 h,  0 min,  5.134 sec
 SCC setup                      ...        0 min,  0.004 sec (  0.078%)
 Dispersion                     ...        0 min,  0.016 sec (  0.312%)
 classical contributions        ...        0 min,  0.002 sec (  0.039%)
 integral evaluation            ...        0 min,  0.104 sec (  2.026%)
 iterations                     ...        0 min,  4.551 sec ( 88.644%)
 molecular gradient             ...        0 min,  0.436 sec (  8.492%)
 printout                       ...        0 min,  0.021 sec (  0.409%)

         :::::::::::::::::::::::::::::::::::::::::::::::::::::
         ::                     SUMMARY                     ::
         :::::::::::::::::::::::::::::::::::::::::::::::::::::
         :: total energy            -384.442168949214 Eh    ::
         :: gradient norm              0.050144033149 Eh/a0 ::
         :: HOMO-LUMO gap              0.021896488457 eV    ::
         ::.................................................::
         :: SCC energy              -391.472908399751 Eh    ::
         :: -> isotropic ES            0.001882890278 Eh    ::
         :: -> anisotropic ES          0.014554842424 Eh    ::
         :: -> anisotropic XC          0.140252717268 Eh    ::
         :: -> dispersion             -0.497291717891 Eh    ::
         :: repulsion energy           7.030739450537 Eh    ::
         :: add. restraining           0.000000000000 Eh    ::
         :: total charge               0.000000000001 e     ::
         :::::::::::::::::::::::::::::::::::::::::::::::::::::

      ----------------------------------------------------------- 
     |                   =====================                   |
     |                        A N C O P T                        |
     |                   =====================                   |
     |               Approximate Normal Coordinate               |
     |                Rational Function Optimizer                |
      ----------------------------------------------------------- 
      ----------------------------------------------------------- 
     |                   =====================                   |
     |                        A N C O P T                        |
     |                   =====================                   |
     |               Approximate Normal Coordinate               |
     |                Rational Function Optimizer                |
      ----------------------------------------------------------- 

          ...................................................
          :                      SETUP                      :
          :.................................................:
          :   optimization level            normal          :
          :   max. optcycles                   615          :
          :   ANC micro-cycles                  20          :
          :   degrees of freedom               609          :
          :.................................................:
          :   RF solver                   davidson          :
          :   write xtbopt.log                true          :
          :   linear?                        false          :
          :   energy convergence         0.5000000E-05 Eh   :
          :   grad. convergence          0.1000000E-02 Eh/α :
          :   maxmium RF displ.          1.0000000          :
          :   Hlow (freq-cutoff)         0.1000000E-01      :
          :   Hmax (freq-cutoff)         5.0000000          :
          :   S6 in model hess.         20.0000000          :
          ...................................................

generating ANC from exact Hessian ...
Using Lindh-Hessian (1995)
 Shifting diagonal of input Hessian by   9.942885524080446E-003
 Lowest  eigenvalues of input Hessian
    0.000000    0.000000    0.000000    0.000000    0.000000    0.000000
    0.010000    0.010076    0.010151    0.010196    0.010210    0.010628
    0.010690    0.010773    0.010817    0.010917    0.011547    0.011608
 Highest eigenvalues
    2.102128    2.113080    2.115539    2.132071    2.143865    2.154575
 

........................................................................
.............................. CYCLE    1 ..............................
........................................................................

 iter      E             dE          RMSdq      gap      omega  full diag
   1   -391.4565472 -0.391457E+03  0.584E-04    0.02       0.0  T
   2   -391.4564745  0.727669E-04  0.178E-02    0.02       1.0  T
   3   -391.4565471 -0.726496E-04  0.956E-04    0.02       7.3  T
   4   -391.4565473 -0.174270E-06  0.382E-04    0.02      18.3  T
   5   -391.4565473  0.102214E-07  0.427E-04    0.02      16.3  T
     SCC iter.                  ...        0 min,  0.907 sec
     gradient                   ...        0 min,  0.459 sec
 * total energy  :  -384.4421689 Eh     change        0.2667531E-07 Eh
   gradient norm :     0.0501450 Eh/α   predicted     0.0000000E+00 (-100.00%)
   displ. norm   :     0.5760422 α      lambda       -0.1985196E-01
   maximum displ.:     0.3413503 α      in ANC's #46, #45, #54, ...

........................................................................
.............................. CYCLE    2 ..............................
........................................................................

 iter      E             dE          RMSdq      gap      omega  full diag
   1   -391.6395247 -0.391640E+03  0.106E-01    0.02       0.0  T
   2   -391.5569432  0.825815E-01  0.610E-01    0.09       1.0  T
   3   -391.6393068 -0.823636E-01  0.754E-02    0.02       1.0  T
   4   -391.6363030  0.300383E-02  0.120E-01    0.03       1.0  T
   5   -391.6381268 -0.182378E-02  0.828E-02    0.03       1.0  T
   6   -391.6396983 -0.157151E-02  0.501E-03    0.02       1.4  T
   7   -391.6396544  0.438784E-04  0.147E-02    0.02       1.0  T
   8   -391.6397045 -0.501567E-04  0.185E-03    0.02       3.8  T
   9   -391.6397014  0.309723E-05  0.416E-03    0.02       1.7  T
  10   -391.6397035 -0.202412E-05  0.278E-03    0.02       2.5  T
  11   -391.6397052 -0.172342E-05  0.453E-04    0.02      15.4  T
  12   -391.6397051  0.946791E-07  0.785E-04    0.02       8.9  T
  13   -391.6397052 -0.122707E-06  0.267E-04    0.02      26.2  T
     SCC iter.                  ...        0 min,  2.356 sec
     gradient                   ...        0 min,  0.437 sec
 * total energy  :  -384.4576280 Eh     change       -0.1545909E-01 Eh
   gradient norm :     0.0239991 Eh/α   predicted    -0.1321980E-01 ( -14.49%)
   displ. norm   :     0.6417080 α      lambda       -0.1190829E-01
   maximum displ.:     0.4109872 α      in ANC's #46, #45, #54, ...

........................................................................
.............................. CYCLE    3 ..............................
........................................................................

 iter      E             dE          RMSdq      gap      omega  full diag
   1   -391.8120964 -0.391812E+03  0.815E-02    0.02       0.0  T
   2   -391.7438387  0.682578E-01  0.558E-01    0.08       1.0  T
   3   -391.8096684 -0.658298E-01  0.121E-01    0.02       1.0  T
   4   -391.8119049 -0.223646E-02  0.357E-02    0.02       1.0  T
   5   -391.8115574  0.347512E-03  0.541E-02    0.02       1.0  T
   6   -391.8121956 -0.638191E-03  0.111E-02    0.02       1.0  T
   7   -391.8122225 -0.268688E-04  0.167E-03    0.02       4.2  T
   8   -391.8122207  0.173541E-05  0.321E-03    0.02       2.2  T
   9   -391.8122214 -0.626274E-06  0.276E-03    0.02       2.5  T
  10   -391.8122218 -0.466253E-06  0.229E-03    0.02       3.1  T
  11   -391.8122228 -0.103125E-05  0.711E-04    0.02       9.8  T
  12   -391.8122229 -0.834521E-07  0.396E-04    0.02      17.6  T
  13   -391.8122229 -0.103332E-07  0.326E-04    0.02      21.4  T
     SCC iter.                  ...        0 min,  2.386 sec
     gradient                   ...        0 min,  0.459 sec
 * total energy  :  -384.4662166 Eh     change       -0.8588604E-02 Eh
   gradient norm :     0.0107018 Eh/α   predicted    -0.8406377E-02 (  -2.12%)
   displ. norm   :     0.4981432 α      lambda       -0.4380974E-02
   maximum displ.:     0.3248137 α      in ANC's #46, #45, #42, ...

........................................................................
.............................. CYCLE    4 ..............................
........................................................................

 iter      E             dE          RMSdq      gap      omega  full diag
   1   -391.9142555 -0.391914E+03  0.652E-02    0.02       0.0  T
   2   -391.8873858  0.268697E-01  0.352E-01    0.05       1.0  T
   3   -391.9142930 -0.269071E-01  0.382E-02    0.02       1.0  T
   4   -391.9135016  0.791348E-03  0.575E-02    0.02       1.0  T
   5   -391.9142665 -0.764872E-03  0.120E-02    0.02       1.0  T
   6   -391.9142962 -0.297047E-04  0.327E-03    0.02       2.1  T
   7   -391.9142977 -0.152096E-05  0.271E-03    0.02       2.6  T
   8   -391.9142971  0.571665E-06  0.306E-03    0.02       2.3  T
   9   -391.9142992 -0.204260E-05  0.538E-04    0.02      13.0  T
  10   -391.9142992 -0.511541E-07  0.159E-04    0.02      44.0  T
  11   -391.9142992  0.234843E-08  0.177E-04    0.02      39.4  T
     SCC iter.                  ...        0 min,  2.033 sec
     gradient                   ...        0 min,  0.490 sec
 * total energy  :  -384.4690655 Eh     change       -0.2848915E-02 Eh
   gradient norm :     0.0059524 Eh/α   predicted    -0.2734050E-02 (  -4.03%)
   displ. norm   :     0.2323981 α      lambda       -0.7314918E-03
   maximum displ.:     0.1381717 α      in ANC's #46, #45, #42, ...

........................................................................
.............................. CYCLE    5 ..............................
........................................................................

 iter      E             dE          RMSdq      gap      omega  full diag
   1   -391.9527349 -0.391953E+03  0.339E-02    0.02       0.0  T
   2   -391.9494903  0.324455E-02  0.123E-01    0.02       1.0  T
   3   -391.9520106 -0.252025E-02  0.590E-02    0.02       1.0  T
   4   -391.9525061 -0.495510E-03  0.306E-02    0.02       1.0  T
   5   -391.9527215 -0.215466E-03  0.921E-03    0.02       1.0  T
   6   -391.9527406 -0.190434E-04  0.121E-03    0.02       5.8  T
   7   -391.9527408 -0.220371E-06  0.104E-03    0.02       6.7  T
   8   -391.9527407  0.925552E-07  0.118E-03    0.02       5.9  T
   9   -391.9527410 -0.312100E-06  0.148E-04    0.02      47.2  T
  10   -391.9527410 -0.321171E-08  0.978E-05    0.02      71.4  T
     SCC iter.                  ...        0 min,  1.907 sec
     gradient                   ...        0 min,  0.464 sec
 * total energy  :  -384.4694803 Eh     change       -0.4147338E-03 Eh
   gradient norm :     0.0032484 Eh/α   predicted    -0.3855005E-03 (  -7.05%)
   displ. norm   :     0.0679590 α      lambda       -0.6403673E-04
   maximum displ.:     0.0229126 α      in ANC's #15, #31, #10, ...

........................................................................
.............................. CYCLE    6 ..............................
........................................................................

 iter      E             dE          RMSdq      gap      omega  full diag
   1   -391.9547460 -0.391955E+03  0.124E-02    0.02       0.0  T
   2   -391.9547234  0.226441E-04  0.125E-02    0.02       1.0  T
   3   -391.9503528  0.437061E-02  0.139E-01    0.03       1.0  T
   4   -391.9547397 -0.438688E-02  0.526E-03    0.02       1.3  T
   5   -391.9547459 -0.620657E-05  0.144E-03    0.02       4.9  T
   6   -391.9547461 -0.227171E-06  0.109E-03    0.02       6.4  T
   7   -391.9547464 -0.290610E-06  0.255E-04    0.02      27.4  T
   8   -391.9547464 -0.140444E-07  0.776E-05    0.02      90.0  T
     SCC iter.                  ...        0 min,  1.505 sec
     gradient                   ...        0 min,  0.452 sec
 * total energy  :  -384.4695258 Eh     change       -0.4555606E-04 Eh
   gradient norm :     0.0015861 Eh/α   predicted    -0.3216907E-04 ( -29.39%)
   displ. norm   :     0.1400305 α      lambda       -0.4980924E-04
   maximum displ.:     0.0571975 α      in ANC's #15, #10, #6, ...

........................................................................
.............................. CYCLE    7 ..............................
........................................................................

 iter      E             dE          RMSdq      gap      omega  full diag
   1   -391.9532087 -0.391953E+03  0.242E-02    0.02       0.0  T
   2   -391.9532082  0.518750E-06  0.142E-02    0.02       1.0  T
   3   -391.9498818  0.332642E-02  0.121E-01    0.02       1.0  T
   4   -391.9531989 -0.331710E-02  0.663E-03    0.02       1.1  T
   5   -391.9532085 -0.957069E-05  0.165E-03    0.02       4.2  T
   6   -391.9532088 -0.351157E-06  0.110E-03    0.02       6.3  T
   7   -391.9532091 -0.283330E-06  0.186E-04    0.02      37.5  T
   8   -391.9532091 -0.337923E-08  0.120E-04    0.02      58.1  T
     SCC iter.                  ...        0 min,  1.551 sec
     gradient                   ...        0 min,  0.480 sec
 * total energy  :  -384.4695657 Eh     change       -0.3987347E-04 Eh
   gradient norm :     0.0020479 Eh/α   predicted    -0.2513312E-04 ( -36.97%)
   displ. norm   :     0.0551789 α      lambda       -0.2194850E-04
   maximum displ.:     0.0228798 α      in ANC's #6, #15, #10, ...

........................................................................
.............................. CYCLE    8 ..............................
........................................................................

 iter      E             dE          RMSdq      gap      omega  full diag
   1   -391.9518002 -0.391952E+03  0.898E-03    0.02       0.0  T
   2   -391.9517852  0.150276E-04  0.956E-03    0.02       1.0  T
   3   -391.9494953  0.228989E-02  0.101E-01    0.02       1.0  T
   4   -391.9517959 -0.230061E-02  0.423E-03    0.02       1.6  T
   5   -391.9517999 -0.399753E-05  0.124E-03    0.02       5.6  T
   6   -391.9518003 -0.365513E-06  0.230E-04    0.02      30.3  T
   7   -391.9518003 -0.152122E-07  0.871E-05    0.02      80.1  T
     SCC iter.                  ...        0 min,  1.354 sec
     gradient                   ...        0 min,  0.449 sec
 * total energy  :  -384.4695849 Eh     change       -0.1923790E-04 Eh
   gradient norm :     0.0018179 Eh/α   predicted    -0.1103634E-04 ( -42.63%)
   displ. norm   :     0.2738351 α      lambda       -0.5922900E-04
   maximum displ.:     0.1152126 α      in ANC's #6, #15, #13, ...

........................................................................
.............................. CYCLE    9 ..............................
........................................................................

 iter      E             dE          RMSdq      gap      omega  full diag
   1   -391.9490551 -0.391949E+03  0.429E-02    0.02       0.0  T
   2   -391.9483895  0.665611E-03  0.589E-02    0.02       1.0  T
   3   -391.9170293  0.313602E-01  0.377E-01    0.05       1.0  T
   4   -391.9490114 -0.319821E-01  0.136E-02    0.02       1.0  T
   5   -391.9490548 -0.434311E-04  0.297E-03    0.02       2.4  T
   6   -391.9490543  0.504205E-06  0.347E-03    0.02       2.0  T
   7   -391.9490570 -0.272315E-05  0.940E-04    0.02       7.4  T
   8   -391.9490571 -0.124550E-06  0.547E-04    0.02      12.8  T
   9   -391.9490572 -0.559733E-07  0.257E-04    0.02      27.2  T
     SCC iter.                  ...        0 min,  1.665 sec
     gradient                   ...        0 min,  0.444 sec
 * total energy  :  -384.4696281 Eh     change       -0.4320637E-04 Eh
   gradient norm :     0.0017322 Eh/α   predicted    -0.3060408E-04 ( -29.17%)
   displ. norm   :     0.0624779 α      lambda       -0.1339220E-04
   maximum displ.:     0.0295085 α      in ANC's #6, #13, #7, ...

........................................................................
.............................. CYCLE   10 ..............................
........................................................................

 iter      E             dE          RMSdq      gap      omega  full diag
   1   -391.9508229 -0.391951E+03  0.846E-03    0.02       0.0  T
   2   -391.9507171  0.105746E-03  0.221E-02    0.02       1.0  T
   3   -391.9504492  0.267881E-03  0.409E-02    0.02       1.0  T
   4   -391.9508219 -0.372699E-03  0.214E-03    0.02       3.3  T
   5   -391.9508226 -0.684041E-06  0.135E-03    0.02       5.2  T
   6   -391.9508230 -0.418394E-06  0.242E-04    0.02      28.9  T
   7   -391.9508230  0.872546E-09  0.265E-04    0.02      26.4  T
     SCC iter.                  ...        0 min,  1.340 sec
     gradient                   ...        0 min,  0.481 sec
 * total energy  :  -384.4696450 Eh     change       -0.1685727E-04 Eh
   gradient norm :     0.0010258 Eh/α   predicted    -0.6710098E-05 ( -60.19%)
   displ. norm   :     0.1686681 α      lambda       -0.2706459E-04
   maximum displ.:     0.0804066 α      in ANC's #6, #13, #7, ...

........................................................................
.............................. CYCLE   11 ..............................
........................................................................

 iter      E             dE          RMSdq      gap      omega  full diag
   1   -391.9530790 -0.391953E+03  0.217E-02    0.02       0.0  T
   2   -391.9525216  0.557384E-03  0.514E-02    0.02       1.0  T
   3   -391.9505913  0.193029E-02  0.105E-01    0.02       1.0  T
   4   -391.9530706 -0.247924E-02  0.634E-03    0.02       1.1  T
   5   -391.9530778 -0.726082E-05  0.311E-03    0.02       2.2  T
   6   -391.9530795 -0.162815E-05  0.172E-03    0.02       4.1  T
   7   -391.9530801 -0.650242E-06  0.602E-04    0.02      11.6  T
   8   -391.9530802 -0.787408E-07  0.103E-04    0.02      67.7  T
     SCC iter.                  ...        0 min,  1.491 sec
     gradient                   ...        0 min,  0.482 sec
 * total energy  :  -384.4696700 Eh     change       -0.2502588E-04 Eh
   gradient norm :     0.0009351 Eh/α   predicted    -0.1370669E-04 ( -45.23%)
   displ. norm   :     0.1654306 α      lambda        0.9789735E-05
   maximum displ.:     0.0787506 α      in ANC's #6, #13, #7, ...

........................................................................
.............................. CYCLE   12 ..............................
........................................................................

 iter      E             dE          RMSdq      gap      omega  full diag
   1   -391.9550471 -0.391955E+03  0.214E-02    0.02       0.0  T
   2   -391.9544854  0.561716E-03  0.515E-02    0.02       1.0  T
   3   -391.9527560  0.172937E-02  0.101E-01    0.02       1.0  T
   4   -391.9550404 -0.228438E-02  0.571E-03    0.02       1.2  T
   5   -391.9550459 -0.552041E-05  0.310E-03    0.02       2.3  T
   6   -391.9550475 -0.157426E-05  0.178E-03    0.02       3.9  T
   7   -391.9550482 -0.697280E-06  0.574E-04    0.02      12.2  T
   8   -391.9550482 -0.715888E-07  0.998E-05    0.02      70.0  T
     SCC iter.                  ...        0 min,  1.493 sec
     gradient                   ...        0 min,  0.447 sec
 * total energy  :  -384.4696628 Eh     change        0.7239373E-05 Eh
   gradient norm :     0.0023940 Eh/α   predicted     0.4951134E-05 ( -31.61%)
   displ. norm   :     0.0410405 α      lambda       -0.1888060E-04
   maximum displ.:     0.0147087 α      in ANC's #6, #13, #7, ...

........................................................................
.............................. CYCLE   13 ..............................
........................................................................

 iter      E             dE          RMSdq      gap      omega  full diag
   1   -391.9538761 -0.391954E+03  0.707E-03    0.02       0.0  T
   2   -391.9538501  0.260838E-04  0.115E-02    0.02       1.0  T
   3   -391.9532794  0.570681E-03  0.514E-02    0.02       1.0  T
   4   -391.9538749 -0.595516E-03  0.239E-03    0.02       2.9  T
   5   -391.9538760 -0.115344E-05  0.975E-04    0.02       7.2  T
   6   -391.9538762 -0.198445E-06  0.388E-04    0.02      18.0  T
   7   -391.9538763 -0.266010E-07  0.232E-04    0.02      30.1  T
     SCC iter.                  ...        0 min,  1.287 sec
     gradient                   ...        0 min,  0.443 sec
 * total energy  :  -384.4696766 Eh     change       -0.1377154E-04 Eh
   gradient norm :     0.0013875 Eh/α   predicted    -0.9459280E-05 ( -31.31%)
   displ. norm   :     0.0478413 α      lambda       -0.1333886E-04
   maximum displ.:     0.0162897 α      in ANC's #46, #15, #29, ...

........................................................................
.............................. CYCLE   14 ..............................
........................................................................

 iter      E             dE          RMSdq      gap      omega  full diag
   1   -391.9522809 -0.391952E+03  0.906E-03    0.02       0.0  T
   2   -391.9522388  0.420985E-04  0.147E-02    0.02       1.0  T
   3   -391.9514530  0.785800E-03  0.605E-02    0.02       1.0  T
   4   -391.9522801 -0.827113E-03  0.168E-03    0.02       4.2  T
   5   -391.9522809 -0.798119E-06  0.778E-04    0.02       9.0  T
   6   -391.9522810 -0.138488E-06  0.322E-04    0.02      21.7  T
     SCC iter.                  ...        0 min,  1.109 sec
     gradient                   ...        0 min,  0.477 sec
 * total energy  :  -384.4696864 Eh     change       -0.9796656E-05 Eh
   gradient norm :     0.0005093 Eh/α   predicted    -0.6676958E-05 ( -31.84%)
   displ. norm   :     0.0616876 α      lambda       -0.5321454E-05
   maximum displ.:     0.0317043 α      in ANC's #6, #3, #7, ...

........................................................................
.............................. CYCLE   15 ..............................
........................................................................

 iter      E             dE          RMSdq      gap      omega  full diag
   1   -391.9523229 -0.391952E+03  0.678E-03    0.02       0.0  T
   2   -391.9522595  0.633959E-04  0.172E-02    0.02       1.0  T
   3   -391.9520725  0.187064E-03  0.334E-02    0.02       1.0  T
   4   -391.9523211 -0.248631E-03  0.283E-03    0.02       2.5  T
   5   -391.9523230 -0.186548E-05  0.510E-04    0.02      13.7  T
   6   -391.9523229  0.338113E-07  0.697E-04    0.02      10.0  T
   7   -391.9523230 -0.971023E-07  0.277E-04    0.02      25.2  T
     SCC iter.                  ...        0 min,  1.321 sec
     gradient                   ...        0 min,  0.442 sec
 * total energy  :  -384.4696937 Eh     change       -0.7362635E-05 Eh
   gradient norm :     0.0005472 Eh/α   predicted    -0.2666513E-05 ( -63.78%)
   displ. norm   :     0.2276183 α      lambda       -0.1873152E-04
   maximum displ.:     0.1129027 α      in ANC's #6, #3, #7, ...

........................................................................
.............................. CYCLE   16 ..............................
........................................................................

 iter      E             dE          RMSdq      gap      omega  full diag
   1   -391.9520136 -0.391952E+03  0.245E-02    0.02       0.0  T
   2   -391.9510776  0.935957E-03  0.657E-02    0.02       1.0  T
   3   -391.9490179  0.205970E-02  0.116E-01    0.02       1.0  T
   4   -391.9519900 -0.297207E-02  0.103E-02    0.02       1.0  T
   5   -391.9520145 -0.245316E-04  0.134E-03    0.02       5.2  T
   6   -391.9520143  0.205239E-06  0.171E-03    0.02       4.1  T
   7   -391.9520150 -0.655532E-06  0.348E-04    0.02      20.1  T
   8   -391.9520150 -0.222282E-07  0.110E-04    0.02      63.4  T
     SCC iter.                  ...        0 min,  1.438 sec
     gradient                   ...        0 min,  0.442 sec
 * total energy  :  -384.4697143 Eh     change       -0.2062183E-04 Eh
   gradient norm :     0.0006114 Eh/α   predicted    -0.9584057E-05 ( -53.52%)
   displ. norm   :     0.2676303 α      lambda       -0.1513349E-04
   maximum displ.:     0.1333746 α      in ANC's #6, #3, #7, ...

........................................................................
.............................. CYCLE   17 ..............................
........................................................................

 iter      E             dE          RMSdq      gap      omega  full diag
   1   -391.9521353 -0.391952E+03  0.280E-02    0.02       0.0  T
   2   -391.9501816  0.195365E-02  0.938E-02    0.03       1.0  T
   3   -391.9490540  0.112759E-02  0.118E-01    0.02       1.0  T
   4   -391.9521092 -0.305522E-02  0.110E-02    0.02       1.0  T
   5   -391.9521376 -0.283284E-04  0.122E-03    0.02       5.7  T
   6   -391.9521370  0.510495E-06  0.205E-03    0.02       3.4  T
   7   -391.9521380 -0.959639E-06  0.464E-04    0.02      15.0  T
   8   -391.9521381 -0.406022E-07  0.161E-04    0.02      43.3  T
     SCC iter.                  ...        0 min,  1.463 sec
     gradient                   ...        0 min,  0.429 sec
 * total energy  :  -384.4697298 Eh     change       -0.1548639E-04 Eh
   gradient norm :     0.0005908 Eh/α   predicted    -0.7810821E-05 ( -49.56%)
   displ. norm   :     0.2101319 α      lambda       -0.1016130E-04
   maximum displ.:     0.1032543 α      in ANC's #6, #3, #7, ...

........................................................................
.............................. CYCLE   18 ..............................
........................................................................

 iter      E             dE          RMSdq      gap      omega  full diag
   1   -391.9526065 -0.391953E+03  0.218E-02    0.02       0.0  T
   2   -391.9514320  0.117445E-02  0.726E-02    0.02       1.0  T
   3   -391.9503616  0.107042E-02  0.100E-01    0.02       1.0  T
   4   -391.9525756 -0.221398E-02  0.118E-02    0.02       1.0  T
   5   -391.9526076 -0.320334E-04  0.129E-03    0.02       5.4  T
   6   -391.9526077 -0.534923E-07  0.126E-03    0.02       5.5  T
   7   -391.9526080 -0.369089E-06  0.129E-04    0.02      54.0  T
   8   -391.9526080  0.151539E-08  0.139E-04    0.02      50.1  T
     SCC iter.                  ...        0 min,  1.438 sec
     gradient                   ...        0 min,  0.450 sec
 * total energy  :  -384.4697418 Eh     change       -0.1201178E-04 Eh
   gradient norm :     0.0004823 Eh/α   predicted    -0.5181412E-05 ( -56.86%)
   displ. norm   :     0.2602471 α      lambda       -0.1505101E-04
   maximum displ.:     0.1207077 α      in ANC's #6, #3, #2, ...

........................................................................
.............................. CYCLE   19 ..............................
........................................................................

 iter      E             dE          RMSdq      gap      omega  full diag
   1   -391.9531010 -0.391953E+03  0.274E-02    0.02       0.0  T
   2   -391.9512395  0.186152E-02  0.911E-02    0.03       1.0  T
   3   -391.9491926  0.204687E-02  0.132E-01    0.03       1.0  T
   4   -391.9530465 -0.385390E-02  0.156E-02    0.02       1.0  T
   5   -391.9531030 -0.565094E-04  0.141E-03    0.02       5.0  T
   6   -391.9531034 -0.320569E-06  0.939E-04    0.02       7.4  T
   7   -391.9531035 -0.185416E-06  0.301E-04    0.02      23.2  T
     SCC iter.                  ...        0 min,  1.307 sec
     gradient                   ...        0 min,  0.433 sec
 * total energy  :  -384.4697584 Eh     change       -0.1661407E-04 Eh
   gradient norm :     0.0004076 Eh/α   predicted    -0.7755763E-05 ( -53.32%)
   displ. norm   :     0.1732848 α      lambda       -0.1150462E-04
   maximum displ.:     0.0628957 α      in ANC's #6, #2, #5, ...

........................................................................
.............................. CYCLE   20 ..............................
........................................................................

 iter      E             dE          RMSdq      gap      omega  full diag
   1   -391.9536552 -0.391954E+03  0.194E-02    0.02       0.0  T
   2   -391.9532433  0.411915E-03  0.434E-02    0.02       1.0  T
   3   -391.9499246  0.331863E-02  0.129E-01    0.03       1.0  T
   4   -391.9536265 -0.370189E-02  0.111E-02    0.02       1.0  T
   5   -391.9536556 -0.290795E-04  0.107E-03    0.02       6.5  T
   6   -391.9536558 -0.225498E-06  0.529E-04    0.02      13.2  T
   7   -391.9536559 -0.597482E-07  0.230E-04    0.02      30.3  T
     SCC iter.                  ...        0 min,  1.250 sec
     gradient                   ...        0 min,  0.461 sec
 * total energy  :  -384.4697706 Eh     change       -0.1216244E-04 Eh
   gradient norm :     0.0004272 Eh/α   predicted    -0.5830928E-05 ( -52.06%)
   displ. norm   :     0.0863261 α      lambda       -0.6362288E-05
   maximum displ.:     0.0448502 α      in ANC's #10, #2, #21, ...
 * RMSD in coord.:     0.1897083 α      energy gain  -0.2760166E-01 Eh

generating ANC from exact Hessian ...
Using Lindh-Hessian (1995)
 Shifting diagonal of input Hessian by   9.938125704438945E-003
 Lowest  eigenvalues of input Hessian
    0.000000    0.000000    0.000000    0.000000    0.000000    0.000000
    0.010000    0.010080    0.010163    0.010216    0.010230    0.010697
    0.010765    0.010847    0.010902    0.011004    0.011723    0.011768
 Highest eigenvalues
    2.189462    2.198803    2.203674    2.215516    2.235202    2.242797
 

........................................................................
.............................. CYCLE   21 ..............................
........................................................................

 iter      E             dE          RMSdq      gap      omega  full diag
   1   -391.9533850 -0.391953E+03  0.106E-02    0.02       0.0  T
   2   -391.9533846  0.459813E-06  0.626E-03    0.02       1.1  T
   3   -391.9514997  0.188491E-02  0.907E-02    0.02       1.0  T
   4   -391.9533819 -0.188224E-02  0.369E-03    0.02       1.9  T
   5   -391.9533850 -0.307150E-05  0.806E-04    0.02       8.7  T
   6   -391.9533851 -0.961253E-07  0.516E-04    0.02      13.5  T
   7   -391.9533851 -0.642451E-07  0.126E-04    0.02      55.4  T
     SCC iter.                  ...        0 min,  1.267 sec
     gradient                   ...        0 min,  0.473 sec
 * total energy  :  -384.4697777 Eh     change       -0.7138163E-05 Eh
   gradient norm :     0.0003461 Eh/α   predicted     0.0000000E+00 (-100.00%)
   displ. norm   :     0.0189960 α      lambda       -0.1316605E-06
   maximum displ.:     0.0110749 α      in ANC's #10, #2, #5, ...

........................................................................
.............................. CYCLE   22 ..............................
........................................................................

 iter      E             dE          RMSdq      gap      omega  full diag
   1   -391.9530938 -0.391953E+03  0.252E-03    0.02       0.0  T
   2   -391.9530928  0.958897E-06  0.252E-03    0.02       2.8  T
   3   -391.9528962  0.196620E-03  0.294E-02    0.02       1.0  T
   4   -391.9530932 -0.196950E-03  0.164E-03    0.02       4.3  T
   5   -391.9530938 -0.589404E-06  0.456E-04    0.02      15.3  T
   6   -391.9530938 -0.465217E-07  0.151E-04    0.02      46.2  T
     SCC iter.                  ...        0 min,  1.101 sec
     gradient                   ...        0 min,  0.442 sec
 * total energy  :  -384.4697806 Eh     change       -0.2844789E-05 Eh
   gradient norm :     0.0001936 Eh/α   predicted    -0.1105478E-05 ( -61.14%)
   displ. norm   :     0.0741242 α      lambda       -0.6648446E-05
   maximum displ.:     0.0404482 α      in ANC's #10, #2, #5, ...

   *** GEOMETRY OPTIMIZATION CONVERGED AFTER 22 ITERATIONS ***

------------------------------------------------------------------------
 total energy gain   :        -0.0276116 Eh      -17.3266 kcal/mol
 total RMSD          :         0.1895497 a0        0.1003 Å
 total power (kW/mol):        -3.2951982 (step)   -1.5556 (real)
------------------------------------------------------------------------

 ANCopt (total)                0 d,  0 h,  0 min, 46.603 sec
 optimizer setup                ...        0 min,  0.003 sec (  0.006%)
 model hessian                  ...        0 min,  0.443 sec (  0.951%)
 ANC generation                 ...        0 min,  0.187 sec (  0.401%)
 coordinate transformation      ...        0 min,  0.007 sec (  0.015%)
 single point calculation       ...        0 min, 45.875 sec ( 98.438%)
 optimization log               ...        0 min,  0.056 sec (  0.120%)
 hessian update                 ...        0 min,  0.012 sec (  0.026%)
 rational function              ...        0 min,  0.011 sec (  0.024%)

================
 final structure:
================
205
 xtb: 6.7.1pre (5071a88)
C          -11.15510927807631        6.81012961117814       -0.12146980769266
C          -10.73485517306931        7.90947528936126        0.60993622231115
C           -9.39389647667623        8.07209437472893        0.85946875165974
C           -8.44870348223346        7.12260706163276        0.44670340041418
C          -10.25359801090471        5.82785469304497       -0.48747398164849
C           -8.88621831470688        5.91973861028516       -0.15461403735184
C           -7.95600162147533        4.82477539430986       -0.32855248566711
C          -10.16033998426334        1.94365105381865       -1.23961134758067
C           -9.72821368622558        3.22459079123411       -1.07519357667228
C           -8.39022080303879        3.51520652669037       -0.66454309133143
C           -7.49519512247647        2.41858564340173       -0.54859820271791
C           -9.76673889289782       -0.46563079256981       -1.13530666281685
C           -9.31134750108863        0.83566887505051       -1.02023546253830
C           -7.94640578347998        1.08558976736268       -0.71128489597299
C           -7.05947967226787       -0.00711678658597       -0.56701462361747
C           -9.36172491784745       -2.86366207073951       -1.02481646241745
C           -8.90616248626107       -1.54985706518547       -0.94294783053897
C           -7.52875917113152       -1.33428455109732       -0.66223033670669
C           -6.65681598050150       -2.44282121221510       -0.48467530909512
C           -8.53203527006638       -3.95140153848914       -0.79855065854096
C           -7.14204803127538       -3.77443490720104       -0.51546462238268
C           -6.25951859923397       -4.87184657091868       -0.27371049252871
C           -8.52148044837321       -7.88236502007845       -0.21354366368260
C           -8.08955454109656       -6.57814114957725       -0.38724902624383
C           -6.72040886523675       -6.21924357950345       -0.17876415426875
C           -5.81975158004199       -7.26619907187441        0.14071815789413
C           -8.13828330947231      -10.21027556708447        0.39533983171827
C           -7.66006877222004       -8.90715710982203        0.17645532540741
C           -6.28277505762994       -8.60030014690273        0.33307622939432
C           -5.40028615829787       -9.64780839534652        0.68554464626882
C           -7.27014201170509      -11.20360057538744        0.76757363022765
C           -5.91797026826590      -10.92438948947494        0.90547982616419
C           -7.03557725979228        7.37200756792039        0.58064621377432
C           -6.54161305173675        8.64184139030876        0.90377751190772
C           -5.19852646251628        8.89601537326242        0.95212361527073
C           -4.25453075647190        7.88935443571173        0.71269848766417
C           -6.59153317686439        5.03707773759200       -0.02867525228630
C           -6.11751117996319        6.33681693575458        0.32668649526872
C           -4.72463705391121        6.58742678144254        0.43709047263529
C           -3.79626299368439        5.52159763816662        0.28308300321486
C           -6.12229404896806        2.65001734059732       -0.28565751772580
C           -5.66374147030468        3.96645265441480       -0.08473684506268
C           -4.27273318853942        4.20869246343377        0.08365666093238
C           -3.35925162371603        3.13157605614769        0.04056277175900
C           -5.68192431216091        0.23324962797947       -0.34225249845044
C           -5.21588701919630        1.55912280057061       -0.23354053477016
C           -3.83229686032484        1.80312962884776       -0.08066587488230
C           -2.92846547460354        0.71932179311484       -0.06298878486846
C           -5.27198176540903       -2.19352841588124       -0.28655187783832
C           -4.79106798671109       -0.86042038792533       -0.24487740373916
C           -3.40590289827830       -0.61051600332821       -0.11753348819267
C           -2.50199621364530       -1.69616500446328       -0.05523860408762
C           -4.86995641519718       -4.61059083672805       -0.10406059055499
C           -4.37909198496193       -3.27804795380738       -0.14423760065529
C           -2.98533222709796       -3.02223220169794       -0.03979414492503
C           -2.07161102931440       -4.09762811284001        0.07869090059373
C           -4.42877253276775       -6.99629908295423        0.26296816242679
C           -3.95601341989807       -5.67799989361846        0.11131843922170
C           -2.55460631958601       -5.42119576011427        0.18311690859959
C           -1.63957257901901       -6.48154792618423        0.36368453795690
C           -3.98946660294109       -9.36657827369336        0.77662057842408
C           -3.51724633341624       -8.05797615000034        0.53549177319182
C           -2.12110289608757       -7.80317120852736        0.56167863649246
C           -1.20896549936247       -8.85627952078371        0.79468791569148
C           -3.06482620863265      -10.36746368584238        1.08548149984747
C           -1.71846903266822      -10.12380688844939        1.09028372907824
C           -2.83995530715296        8.15308938448232        0.72995670459819
C           -2.32736114342806        9.44533388116578        0.90439309656298
C           -0.98172573852303        9.69193711374906        0.89456836270955
C           -0.04528178579238        8.66467000484767        0.71900752851019
C           -2.40650168520213        5.76987944456511        0.36342296179338
C           -1.92464012373861        7.09489849480186        0.55060268184313
C           -0.52729929555303        7.34825466386156        0.55747435447313
C            0.39016082521145        6.27267910320375        0.40103882389565
C           -1.96950027031169        3.37876386856480        0.12273954927297
C           -1.49175083764994        4.70128703563302        0.25202191275896
C           -0.09319380565931        4.95293245837103        0.27450961927787
C            0.81402708645564        3.87588894603597        0.16071933529453
C           -1.53602589549093        0.97022767647787        0.00138567175873
C           -1.05862356401280        2.29598869105602        0.06822209930453
C            0.33363726893099        2.54638610055229        0.07954412046576
C            1.24050924826804        1.46855081015520        0.00292685345767
C           -1.10797662854050       -1.44237527111607       -0.01288324108692
C           -0.62775669923728       -0.11217568029931       -0.01044559869918
C            0.76278480236874        0.13883635239596       -0.02123997338016
C            1.67425331416611       -0.94145747571303       -0.05571459108480
C           -0.67849669917459       -3.84554850031657        0.10279413042659
C           -0.19720433409007       -2.51741937080056        0.02651695042975
C            1.19631200182908       -2.26597164387683       -0.00467900538770
C            2.11308806793184       -3.34329052046999        0.02811867923039
C           -0.24350166374697       -6.23095141031640        0.37026226186329
C            0.23734959551744       -4.91622908036909        0.21400774952183
C            1.63748258252249       -4.66522037841757        0.17303288489175
C            2.55704009299146       -5.72742091204095        0.28655910289401
C            0.20636302232778       -8.61177886768925        0.73267987384296
C            0.68120313862491       -7.30003020432065        0.53086187033166
C            2.07835250253239       -7.05030022126018        0.48834370404063
C            2.99458789666744       -8.11177502959653        0.64588742364434
C            1.14111884160395       -9.64830150632308        0.84320966354724
C            2.48710080881578       -9.40700146980035        0.80191882658950
C            1.37131542943618        8.92022151323992        0.68901340467971
C            1.89588505944472       10.21076215527446        0.82730191431783
C            3.24374830002239       10.45043232288851        0.77405522853029
C            4.16814032691688        9.41963170335693        0.57913941837258
C            1.78411242109398        6.52291683706961        0.37761994651865
C            2.27617134646422        7.85190447798228        0.50625405391350
C            3.67428096275584        8.10151819458906        0.45096187018260
C            4.57499641376924        7.01776365022554        0.26085078390906
C            2.20514483054858        4.12557721431952        0.12876655556395
C            2.68762198390784        5.45038240516390        0.22203254856284
C            4.08637034248056        5.70008943788898        0.15731908403672
C            4.98417358328222        4.62198694744507       -0.02032671807982
C            2.63353760263389        1.71925334828493       -0.05135459214515
C            3.11053522163484        3.04473247009685       -0.00391266789204
C            4.50125016281639        3.29460256682865       -0.09181969187675
C            5.39883450702200        2.21930673922144       -0.25980999013265
C            3.06698136234567       -0.69155572169793       -0.13909294400494
C            3.54086752344205        0.63908955383400       -0.15807239070032
C            4.92613355337410        0.88841934681240       -0.28183870838662
C            5.82892022484905       -0.19268905055373       -0.43096723501912
C            3.50158516357432       -3.09459413699917       -0.07275355983906
C            3.97796515311530       -1.76745083759200       -0.19445287145088
C            5.36382158062920       -1.51989174561962       -0.36343575516949
C            6.28460250494013       -2.60087086248892       -0.42841663136616
C            3.94973491456936       -5.47679509508554        0.20047354600334
C            4.42064679230634       -4.16538677154859       -0.01914909483116
C            5.81391667994371       -3.91811790388272       -0.17994912340725
C            6.72786523984563       -4.97869215300276       -0.05565535656609
C            4.40905956587450       -7.84808153383326        0.62395343210618
C            4.87679066000124       -6.54177706620001        0.36243019066582
C            6.27014282234292       -6.28621440024857        0.27397161036944
C            7.19328313884832       -7.32935315253070        0.50250641853898
C            5.35254286092100       -8.85378981151134        0.85803498276796
C            6.69782730949779       -8.60000835105402        0.80661178244205
C            5.58993209008338        9.67390528152507        0.50197715467187
C            6.13193797007284       10.95402834800823        0.62123122775503
C            7.50049200312242       11.17627889089401        0.53130224049578
C            8.36414366796231       10.13259448765341        0.31818525092842
C            5.97102264036045        7.26367566272406        0.17408664915453
C            6.46905779583135        8.58667175626403        0.28995233841302
C            7.87250630514069        8.81831090822901        0.19265248585271
C            8.73708922103354        7.74391662215957       -0.02997371311301
C            6.37446231927515        4.86939754163309       -0.12907449149958
C            6.86034631462804        6.19078987685062       -0.03381526342391
C            8.26629549440028        6.43587997105964       -0.15013154054231
C            9.13158754981952        5.36302550555706       -0.38977497963529
C            6.78609911768987        2.47210736640666       -0.40993748830518
C            7.26731531851949        3.79351689852798       -0.34428726230908
C            8.66432261156950        4.05279116275486       -0.49939443216893
C            9.52251206498582        2.98050023319889       -0.77635972298198
C            7.20962411668195        0.05925979849601       -0.65130314116738
C            7.67425280255801        1.39605903195684       -0.64126523860142
C            9.04989444960017        1.67862748867164       -0.86550988759108
C            9.88749287363810        0.60203894328221       -1.22994992069575
C            7.65029201019452       -2.36478625705403       -0.72025881377794
C            8.09543682606066       -1.01756720643242       -0.89738176027955
C            9.43161299482683       -0.68413150780408       -1.26555301905433
C            8.11172585589751       -4.74289539541428       -0.27204835203016
C            8.55469075876666       -3.47252064351626       -0.70567968082657
C            9.93084756176947       -3.34296005659400       -1.05643138830618
C           10.82203422154217       -4.35021346151389       -0.83002468801501
C            8.60996341048531       -7.07142794212808        0.39515001518317
C            9.03972135077268       -5.79959925484657       -0.05469180097177
C           10.42211869438497       -5.58063271884915       -0.26930637859070
C           11.35270261152607       -6.58371962850998        0.02626931836107
C            9.57151163528252       -8.03294962806295        0.69992252213930
C           10.92558390668163       -7.78980797323261        0.52788685467722
H          -12.19404164838450        6.70336222118118       -0.40327355027481
H          -11.44848077453135        8.64566567499683        0.94862610922571
H           -9.07327408295462        8.94995778455533        1.39605380618772
H          -11.94895078146615        4.13952177265231       -0.83168709061252
H          -11.17918565018179        1.75770090681556       -1.55468888135042
H          -10.80391588327081       -0.65309695551367       -1.37236062801512
H          -10.40419591531167       -3.04656172764478       -1.25064912835449
H           -9.56745638825797       -8.10732483360140       -0.37696067518236
H           -9.19245692498112      -10.40614541502717        0.26793269508828
H           -7.22045289625800        9.45865679252675        1.08596186366343
H           -4.88034414178683        9.89861410569096        1.18558165041799
H           -2.99326710666143       10.28198613381273        1.03749537783204
H           -0.65464574454278       10.71032695740201        1.02481924500192
H            1.24016701194747       11.05274629124699        0.97633630087269
H            3.58049803405832       11.46830182825758        0.88379969828590
H            5.49386353658651       11.80647825044913        0.78661123853363
H            7.87957533038785       12.18328527888902        0.62900392507764
H            9.42850587977460       10.30044229566940        0.24401563028451
H            9.79832746475542        7.93131410849155       -0.11153037961254
H           10.18965291910050        5.55589583433876       -0.49501337626176
H           10.57390169452144        3.17465578008650       -0.93337713778376
H           10.91200964851540        0.81348586156130       -1.50826916938093
H           11.64657596768712       -1.65251110112677       -1.25364522864932
H           11.86233043900691       -4.21494322803552       -1.09715193391993
H           12.40238684252477       -6.39216595585420       -0.14112676452970
H           11.64079365937317       -8.55988126120541        0.77757425527058
H           -7.62818908744555      -12.20674554397508        0.94679391344591
H           -5.26716340441873      -11.73504207147282        1.18774347119396
H           -3.39840492012384      -11.36492656209322        1.31813875291878
H           -1.05561130073352      -10.93728246407233        1.33406062273826
H            0.81343376331204      -10.66902949767490        0.95108112173079
H            3.15529774067547      -10.24849316331333        0.88188549100670
H            5.03532831623758       -9.85647301433302        1.09263372354598
H            7.37579934246755       -9.41725979088976        0.99052999989867
H            9.27670657708963       -8.99526164829945        1.08546869108299
P           10.50643922495195       -1.92583556557882       -2.01981022527417
P          -10.85098022548929        4.53996636220662       -1.60465424349689
P           -9.38282909615930       -5.49056033134640       -0.88786367791606
 
 Bond Distances (Angstroems)
 ---------------------------
C1-C2=1.3857         C1-C5=1.3826         C1-H168=1.0818       C2-C1=1.3857         C2-C3=1.3736         C2-H169=1.0798       
C3-C2=1.3736         C3-C4=1.4019         C3-H170=1.0777       C4-C3=1.4019         C4-C6=1.4142         C4-C33=1.4412        
C5-C1=1.3826         C5-C6=1.4103         C5-P204=1.8065       C6-C4=1.4142         C6-C5=1.4103         C6-C7=1.4472         
C7-C6=1.4472         C7-C10=1.4200        C7-C37=1.4131        C8-C9=1.3618         C8-C13=1.4130        C8-H172=1.0825       
C9-C8=1.3618         C9-C10=1.4294        C9-P204=1.8086       C10-C7=1.4200        C10-C9=1.4294        C10-C11=1.4202       
C11-C10=1.4202       C11-C14=1.4167       C11-C41=1.4169       C12-C13=1.3835       C12-C17=1.3975       C12-H173=1.0803      
C13-C8=1.4130        C13-C12=1.3835       C13-C14=1.4216       C14-C11=1.4167       C14-C13=1.4216       C14-C15=1.4147       
C15-C14=1.4147       C15-C18=1.4109       C15-C45=1.4163       C16-C17=1.3930       C16-C20=1.3866       C16-H174=1.0822      
C17-C12=1.3975       C17-C16=1.3930       C17-C18=1.4222       C18-C15=1.4109       C18-C17=1.4222       C18-C19=1.4215       
C19-C18=1.4215       C19-C21=1.4176       C19-C49=1.4210       C20-C16=1.3866       C20-C21=1.4295       C20-P205=1.7609      
C21-C19=1.4176       C21-C20=1.4295       C21-C22=1.4289       C22-C21=1.4289       C22-C25=1.4272       C22-C53=1.4241       
C23-C24=1.3848       C23-C28=1.3944       C23-H175=1.0823      C24-C23=1.3848       C24-C25=1.4307       C24-P205=1.7624      
C25-C22=1.4272       C25-C24=1.4307       C25-C26=1.4175       C26-C25=1.4175       C26-C29=1.4252       C26-C57=1.4222       
C27-C28=1.4052       C27-C31=1.3707       C27-H176=1.0798      C28-C23=1.3944       C28-C27=1.4052       C28-C29=1.4197       
C29-C26=1.4252       C29-C28=1.4197       C29-C30=1.4143       C30-C29=1.4143       C30-C32=1.3950       C30-C61=1.4415       
C31-C27=1.3707       C31-C32=1.3876       C31-H194=1.0801      C32-C30=1.3950       C32-C31=1.3876       C32-H195=1.0772      
C33-C4=1.4412        C33-C34=1.4003       C33-C38=1.4068       C34-C33=1.4003       C34-C35=1.3678       C34-H177=1.0776      
C35-C34=1.3678       C35-C36=1.4006       C35-H178=1.0775      C36-C35=1.4006       C36-C39=1.4114       C36-C67=1.4391       
C37-C7=1.4131        C37-C38=1.4284       C37-C42=1.4178       C38-C33=1.4068       C38-C37=1.4284       C38-C39=1.4195       
C39-C36=1.4114       C39-C38=1.4195       C39-C40=1.4218       C40-C39=1.4218       C40-C43=1.4109       C40-C71=1.4140       
C41-C11=1.4169       C41-C42=1.4084       C41-C46=1.4193       C42-C37=1.4178       C42-C41=1.4084       C42-C43=1.4219       
C43-C40=1.4109       C43-C42=1.4219       C43-C44=1.4130       C44-C43=1.4130       C44-C47=1.4154       C44-C75=1.4140       
C45-C15=1.4163       C45-C46=1.4096       C45-C50=1.4139       C46-C41=1.4193       C46-C45=1.4096       C46-C47=1.4132       
C47-C44=1.4154       C47-C46=1.4132       C47-C48=1.4113       C48-C47=1.4113       C48-C51=1.4140       C48-C79=1.4163       
C49-C19=1.4210       C49-C50=1.4178       C49-C54=1.4120       C50-C45=1.4139       C50-C49=1.4178       C50-C51=1.4133       
C51-C48=1.4140       C51-C50=1.4133       C51-C52=1.4141       C52-C51=1.4141       C52-C55=1.4115       C52-C83=1.4176       
C53-C22=1.4241       C53-C54=1.4206       C53-C58=1.4216       C54-C49=1.4120       C54-C53=1.4206       C54-C55=1.4209       
C55-C52=1.4115       C55-C54=1.4209       C55-C56=1.4161       C56-C55=1.4161       C56-C59=1.4128       C56-C87=1.4159       
C57-C26=1.4222       C57-C58=1.4087       C57-C62=1.4256       C58-C53=1.4216       C58-C57=1.4087       C58-C59=1.4266       
C59-C56=1.4128       C59-C58=1.4266       C59-C60=1.4122       C60-C59=1.4122       C60-C63=1.4205       C60-C91=1.4184       
C61-C30=1.4415       C61-C62=1.4119       C61-C65=1.3972       C62-C57=1.4256       C62-C61=1.4119       C62-C63=1.4194       
C63-C60=1.4205       C63-C62=1.4194       C63-C64=1.4126       C64-C63=1.4126       C64-C66=1.3977       C64-C95=1.4376       
C65-C61=1.3972       C65-C66=1.3682       C65-H196=1.0772      C66-C64=1.3977       C66-C65=1.3682       C66-H197=1.0773      
C67-C36=1.4391       C67-C68=1.4011       C67-C72=1.4106       C68-C67=1.4011       C68-C69=1.3681       C68-H179=1.0776      
C69-C68=1.3681       C69-C70=1.4011       C69-H180=1.0775      C70-C69=1.4011       C70-C73=1.4112       C70-C101=1.4398      
C71-C40=1.4140       C71-C72=1.4223       C71-C76=1.4111       C72-C67=1.4106       C72-C71=1.4223       C72-C73=1.4201       
C73-C70=1.4112       C73-C72=1.4201       C73-C74=1.4223       C74-C73=1.4223       C74-C77=1.4112       C74-C105=1.4164      
C75-C44=1.4140       C75-C76=1.4121       C75-C80=1.4160       C76-C71=1.4111       C76-C75=1.4121       C76-C77=1.4212       
C77-C74=1.4112       C77-C76=1.4212       C77-C78=1.4128       C78-C77=1.4128       C78-C81=1.4160       C78-C109=1.4137      
C79-C48=1.4163       C79-C80=1.4107       C79-C84=1.4130       C80-C75=1.4160       C80-C79=1.4107       C80-C81=1.4146       
C81-C78=1.4160       C81-C80=1.4146       C81-C82=1.4107       C82-C81=1.4107       C82-C85=1.4131       C82-C113=1.4164      
C83-C52=1.4176       C83-C84=1.4142       C83-C88=1.4095       C84-C79=1.4130       C84-C83=1.4142       C84-C85=1.4131       
C85-C82=1.4131       C85-C84=1.4131       C85-C86=1.4139       C86-C85=1.4139       C86-C89=1.4090       C86-C117=1.4174      
C87-C56=1.4159       C87-C88=1.4147       C87-C92=1.4133       C88-C83=1.4095       C88-C87=1.4147       C88-C89=1.4164       
C89-C86=1.4090       C89-C88=1.4164       C89-C90=1.4150       C90-C89=1.4150       C90-C93=1.4123       C90-C121=1.4142      
C91-C60=1.4184       C91-C92=1.4086       C91-C96=1.4226       C92-C87=1.4133       C92-C91=1.4086       C92-C93=1.4230       
C93-C90=1.4123       C93-C92=1.4230       C93-C94=1.4095       C94-C93=1.4095       C94-C97=1.4212       C94-C125=1.4177      
C95-C64=1.4376       C95-C96=1.4096       C95-C99=1.4001       C96-C91=1.4226       C96-C95=1.4096       C96-C97=1.4199       
C97-C94=1.4212       C97-C96=1.4199       C97-C98=1.4110       C98-C97=1.4110       C98-C100=1.3998      C98-C129=1.4390      
C99-C95=1.4001       C99-C100=1.3681      C99-H198=1.0775      C100-C98=1.3998      C100-C99=1.3681      C100-H199=1.0775     
C101-C70=1.4398      C101-C102=1.3999     C101-C106=1.4119     C102-C101=1.3999     C102-C103=1.3700     C102-H181=1.0776     
C103-C102=1.3700     C103-C104=1.3982     C103-H182=1.0777     C104-C103=1.3982     C104-C107=1.4134     C104-C135=1.4464     
C105-C74=1.4164      C105-C106=1.4230     C105-C110=1.4110     C106-C101=1.4119     C106-C105=1.4230     C106-C107=1.4213     
C107-C104=1.4134     C107-C106=1.4213     C107-C108=1.4220     C108-C107=1.4220     C108-C111=1.4092     C108-C139=1.4202     
C109-C78=1.4137      C109-C110=1.4130     C109-C114=1.4162     C110-C105=1.4110     C110-C109=1.4130     C110-C111=1.4223     
C111-C108=1.4092     C111-C110=1.4223     C111-C112=1.4142     C112-C111=1.4142     C112-C115=1.4143     C112-C143=1.4163     
C113-C82=1.4164      C113-C114=1.4095     C113-C118=1.4147     C114-C109=1.4162     C114-C113=1.4095     C114-C115=1.4157     
C115-C112=1.4143     C115-C114=1.4157     C115-C116=1.4107     C116-C115=1.4107     C116-C119=1.4125     C116-C147=1.4181     
C117-C86=1.4174      C117-C118=1.4126     C117-C122=1.4109     C118-C113=1.4147     C118-C117=1.4126     C118-C119=1.4130     
C119-C116=1.4125     C119-C118=1.4130     C119-C120=1.4164     C120-C119=1.4164     C120-C123=1.4080     C120-C151=1.4207     
C121-C90=1.4142      C121-C122=1.4153     C121-C126=1.4121     C122-C117=1.4109     C122-C121=1.4153     C122-C123=1.4179     
C123-C120=1.4080     C123-C122=1.4179     C123-C124=1.4215     C124-C123=1.4215     C124-C127=1.4207     C124-C155=1.4163     
C125-C94=1.4177      C125-C126=1.4106     C125-C130=1.4212     C126-C121=1.4121     C126-C125=1.4106     C126-C127=1.4241     
C127-C124=1.4207     C127-C126=1.4241     C127-C128=1.4055     C128-C127=1.4055     C128-C131=1.4240     C128-C158=1.4204     
C129-C98=1.4390      C129-C130=1.4119     C129-C133=1.3987     C130-C125=1.4212     C130-C129=1.4119     C130-C131=1.4194     
C131-C128=1.4240     C131-C130=1.4194     C131-C132=1.4116     C132-C131=1.4116     C132-C134=1.3973     C132-C162=1.4440     
C133-C129=1.3987     C133-C134=1.3700     C133-H200=1.0775     C134-C132=1.3973     C134-C133=1.3700     C134-H201=1.0777     
C135-C104=1.4464     C135-C136=1.3952     C135-C140=1.4142     C136-C135=1.3952     C136-C137=1.3894     C136-H183=1.0776     
C137-C136=1.3894     C137-C138=1.3713     C137-H184=1.0804     C138-C137=1.3713     C138-C141=1.4088     C138-H185=1.0801     
C139-C108=1.4202     C139-C140=1.4184     C139-C144=1.4090     C140-C135=1.4142     C140-C139=1.4184     C140-C141=1.4258     
C141-C138=1.4088     C141-C140=1.4258     C141-C142=1.3969     C142-C141=1.3969     C142-C145=1.3954     C142-H186=1.0807     
C143-C112=1.4163     C143-C144=1.4111     C143-C148=1.4146     C144-C139=1.4090     C144-C143=1.4111     C144-C145=1.4319     
C145-C142=1.3954     C145-C144=1.4319     C145-C146=1.3990     C146-C145=1.3990     C146-C149=1.3954     C146-H187=1.0806     
C147-C116=1.4181     C147-C148=1.4078     C147-C152=1.4143     C148-C143=1.4146     C148-C147=1.4078     C148-C149=1.4293     
C149-C146=1.3954     C149-C148=1.4293     C149-C150=1.4011     C150-C149=1.4011     C150-C153=1.3879     C150-H188=1.0806     
C151-C120=1.4207     C151-C152=1.4153     C151-C156=1.4159     C152-C147=1.4143     C152-C151=1.4153     C152-C153=1.4222     
C153-C150=1.3879     C153-C152=1.4222     C153-C154=1.4119     C154-C153=1.4119     C154-C157=1.3650     C154-H189=1.0825     
C155-C124=1.4163     C155-C156=1.4299     C155-C159=1.4301     C156-C151=1.4159     C156-C155=1.4299     C156-C157=1.4255     
C157-C154=1.3650     C157-C156=1.4255     C157-P203=1.8072     C158-C128=1.4204     C158-C159=1.4135     C158-C163=1.4230     
C159-C155=1.4301     C159-C158=1.4135     C159-C160=1.4261     C160-C159=1.4261     C160-C161=1.3638     C160-P203=1.8077     
C161-C160=1.3638     C161-C164=1.4101     C161-H191=1.0825     C162-C132=1.4440     C162-C163=1.4158     C162-C166=1.3936     
C163-C158=1.4230     C163-C162=1.4158     C163-C164=1.4160     C164-C161=1.4101     C164-C163=1.4160     C164-C165=1.3998     
C165-C164=1.3998     C165-C167=1.3743     C165-H192=1.0801     C166-C162=1.3936     C166-C167=1.3864     C166-H202=1.0778     
C167-C165=1.3743     C167-C166=1.3864     C167-H193=1.0802     H168-C1=1.0818       H169-C2=1.0798       H170-C3=1.0777       
H171-P204=1.4012     H172-C8=1.0825       H173-C12=1.0803      H174-C16=1.0822      H175-C23=1.0823      H176-C27=1.0798      
H177-C34=1.0776      H178-C35=1.0775      H179-C68=1.0776      H180-C69=1.0775      H181-C102=1.0776     H182-C103=1.0777     
H183-C136=1.0776     H184-C137=1.0804     H185-C138=1.0801     H186-C142=1.0807     H187-C146=1.0806     H188-C150=1.0806     
H189-C154=1.0825     H190-P203=1.4006     H191-C161=1.0825     H192-C165=1.0801     H193-C167=1.0802     H194-C31=1.0801      
H195-C32=1.0772      H196-C65=1.0772      H197-C66=1.0773      H198-C99=1.0775      H199-C100=1.0775     H200-C133=1.0775     
H201-C134=1.0777     H202-C166=1.0778     P203-C157=1.8072     P203-C160=1.8077     P203-H190=1.4006     P204-C5=1.8065       
P204-C9=1.8086       P204-H171=1.4012     P205-C20=1.7609      P205-C24=1.7624      
 C  H  Rav=1.0793 sigma=0.0019  Rmin=1.0772  Rmax=1.0825    33
 C  C  Rav=1.4116 sigma=0.0151  Rmin=1.3618  Rmax=1.4472   231
 P  H  Rav=1.4009 sigma=0.0003  Rmin=1.4006  Rmax=1.4012     2
 P  C  Rav=1.7922 sigma=0.0216  Rmin=1.7609  Rmax=1.8086     6
 
 selected bond angles (degree)
 --------------------
C5-C1-C2=120.37                H168-C1-C2=120.47              H168-C1-C5=119.15              C3-C2-C1=119.07                
H169-C2-C1=120.40              H169-C2-C3=120.50              C4-C3-C2=121.64                H170-C3-C2=118.51              
H170-C3-C4=119.85              C6-C4-C3=119.52                C33-C4-C3=121.10               C33-C4-C6=119.34               
C6-C5-C1=121.56                P204-C5-C1=117.04              P204-C5-C6=120.86              C5-C6-C4=117.11                
C7-C6-C4=119.72                C7-C6-C5=123.06                C10-C7-C6=121.98               C37-C7-C6=118.78               
C37-C7-C10=118.95              C13-C8-C9=121.88               H172-C8-C9=119.69              H172-C8-C13=118.42             
C10-C9-C8=121.53               P204-C9-C8=116.86              P204-C9-C10=121.15             C9-C10-C7=122.80               
C11-C10-C7=120.00              C11-C10-C9=117.15              
 
 selected dihedral angles (degree)
 ---------------------------------
C3-C2-C1-C5=  5.95            C3-C2-C1-H168=185.22          H169-C2-C1-C5=183.81          H169-C2-C1-H168=  3.09        
C4-C3-C2-C1=356.98            C4-C3-C2-H169=179.12          H170-C3-C2-C1=177.66          H170-C3-C2-H169=359.80        
C6-C4-C3-C2=355.29            C6-C4-C3-H170=174.60          C33-C4-C3-C2=173.03           C33-C4-C3-H170=352.34         
C6-C5-C1-C2=358.86            C6-C5-C1-H168=179.58          P204-C5-C1-C2=187.18          P204-C5-C1-H168=  7.90        
C5-C6-C4-C3=  9.20            C5-C6-C4-C33=191.42           C7-C6-C4-C3=192.81            C7-C6-C4-C33= 15.03           
C4-C6-C5-C1=353.58            C4-C6-C5-P204=164.95          C7-C6-C5-C1=169.83            C7-C6-C5-P204=341.20          
C10-C7-C6-C4=166.76           C10-C7-C6-C5=350.60           C37-C7-C6-C4=352.99           C37-C7-C6-C5=176.83           
C10-C9-C8-C13=359.70          C10-C9-C8-H172=180.19         P204-C9-C8-C13=171.97         P204-C9-C8-H172=352.47        
C9-C10-C7-C6= 10.88           C9-C10-C7-C37=184.64          C11-C10-C7-C6=193.39          C11-C10-C7-C37=  7.15         
C7-C10-C9-C8=187.84           C7-C10-C9-P204= 15.90         C11-C10-C9-C8=  5.40          C11-C10-C9-P204=193.45        
           -------------------------------------------------
          |                Final Singlepoint                |
           -------------------------------------------------

          ...................................................
          :                      SETUP                      :
          :.................................................:
          :  # basis functions                 733          :
          :  # atomic orbitals                 730          :
          :  # shells                          378          :
          :  # electrons                       718          :
          :  max. iterations                   250          :
          :  Hamiltonian                  GFN2-xTB          :
          :  restarted?                      false          :
          :  GBSA solvation                  false          :
          :  PC potential                    false          :
          :  electronic temp.          300.0000000     K    :
          :  accuracy                    1.0000000          :
          :  -> integral cutoff          0.2500000E+02      :
          :  -> integral neglect         0.1000000E-07      :
          :  -> SCF convergence          0.1000000E-05 Eh   :
          :  -> wf. convergence          0.1000000E-03 e    :
          :  Broyden damping             0.4000000          :
          :  net charge                          0          :
          :  unpaired electrons                  0          :
          ...................................................

 iter      E             dE          RMSdq      gap      omega  full diag
   1   -391.9530938 -0.391953E+03  0.336E-05    0.02       0.0  T
   2   -391.9530937  0.731368E-07  0.568E-04    0.02      12.3  T
   3   -391.9530938 -0.718267E-07  0.791E-05    0.02      88.3  T

   *** convergence criteria satisfied after 3 iterations ***

         #    Occupation            Energy/Eh            Energy/eV
      -------------------------------------------------------------
         1        2.0000           -0.6730505             -18.3146
       ...           ...                  ...                  ...
       353        2.0000           -0.3719147             -10.1203
       354        2.0000           -0.3669920              -9.9864
       355        2.0000           -0.3624240              -9.8621
       356        2.0000           -0.3592936              -9.7769
       357        2.0000           -0.3563582              -9.6970
       358        2.0000           -0.3399626              -9.2509
       359        1.2053           -0.3269065              -8.8956 (HOMO)
       360        0.7947           -0.3261149              -8.8740 (LUMO)
       361        0.0000           -0.3142047              -8.5499
       362                         -0.2941841              -8.0052
       363                         -0.2910759              -7.9206
       364                         -0.2880440              -7.8381
       ...                                ...                  ...
       730                          0.9303395              25.3158
      -------------------------------------------------------------
                  HL-Gap            0.0007916 Eh            0.0215 eV
             Fermi-level           -0.3265107 Eh           -8.8848 eV

 SCC (total)                   0 d,  0 h,  0 min,  1.121 sec
 SCC setup                      ...        0 min,  0.005 sec (  0.446%)
 Dispersion                     ...        0 min,  0.010 sec (  0.892%)
 classical contributions        ...        0 min,  0.001 sec (  0.089%)
 integral evaluation            ...        0 min,  0.087 sec (  7.761%)
 iterations                     ...        0 min,  0.559 sec ( 49.866%)
 molecular gradient             ...        0 min,  0.439 sec ( 39.161%)
 printout                       ...        0 min,  0.020 sec (  1.784%)

         :::::::::::::::::::::::::::::::::::::::::::::::::::::
         ::                     SUMMARY                     ::
         :::::::::::::::::::::::::::::::::::::::::::::::::::::
         :: total energy            -384.469780596795 Eh    ::
         :: gradient norm              0.000193472668 Eh/a0 ::
         :: HOMO-LUMO gap              0.021540184763 eV    ::
         ::.................................................::
         :: SCC energy              -391.969726566139 Eh    ::
         :: -> isotropic ES            0.002786154651 Eh    ::
         :: -> anisotropic ES          0.013611356053 Eh    ::
         :: -> anisotropic XC          0.130823385095 Eh    ::
         :: -> dispersion             -0.504318449054 Eh    ::
         :: repulsion energy           7.499945969344 Eh    ::
         :: add. restraining           0.000000000000 Eh    ::
         :: total charge              -0.000000000000 e     ::
         :::::::::::::::::::::::::::::::::::::::::::::::::::::

           -------------------------------------------------
          |                Property Printout                |
           -------------------------------------------------

    * Orbital Energies and Occupations

         #    Occupation            Energy/Eh            Energy/eV
      -------------------------------------------------------------
         1        2.0000           -0.6730505             -18.3146
       ...           ...                  ...                  ...
       347        2.0000           -0.3842355             -10.4556
       348        2.0000           -0.3835501             -10.4369
       349        2.0000           -0.3829754             -10.4213
       350        2.0000           -0.3818584             -10.3909
       351        2.0000           -0.3792647             -10.3203
       352        2.0000           -0.3771498             -10.2628
       353        2.0000           -0.3719147             -10.1203
       354        2.0000           -0.3669920              -9.9864
       355        2.0000           -0.3624240              -9.8621
       356        2.0000           -0.3592936              -9.7769
       357        2.0000           -0.3563582              -9.6970
       358        2.0000           -0.3399626              -9.2509
       359        1.2053           -0.3269065              -8.8956 (HOMO)
       360        0.7947           -0.3261149              -8.8740 (LUMO)
[...]
    18   6 C       19   6 C                                       1.4215008
    16   6 C       20   6 C                                       1.3866357
    19   6 C       21   6 C                                       1.4176013
    20   6 C       21   6 C                                       1.4295173
    21   6 C       22   6 C                                       1.4288513
    23   6 C       24   6 C                                       1.3848227
    22   6 C       25   6 C                                       1.4272049
    24   6 C       25   6 C                                       1.4306759
    25   6 C       26   6 C                                       1.4175220
    23   6 C       28   6 C                                       1.3943918
    27   6 C       28   6 C                                       1.4052465
    26   6 C       29   6 C                                       1.4252082
    28   6 C       29   6 C                                       1.4197287
    29   6 C       30   6 C                                       1.4143177
    27   6 C       31   6 C                                       1.3707378
    30   6 C       32   6 C                                       1.3950011
    31   6 C       32   6 C                                       1.3875683
    33   6 C       34   6 C                                       1.4003188
    34   6 C       35   6 C                                       1.3677806
    35   6 C       36   6 C                                       1.4006495
     7   6 C       37   6 C                                       1.4130722
    33   6 C       38   6 C                                       1.4067554
    37   6 C       38   6 C                                       1.4283911
    36   6 C       39   6 C                                       1.4113737
    38   6 C       39   6 C                                       1.4195397
    39   6 C       40   6 C                                       1.4218259
    11   6 C       41   6 C                                       1.4168826
    37   6 C       42   6 C                                       1.4178077
    41   6 C       42   6 C                                       1.4084182
    40   6 C       43   6 C                                       1.4108562
    42   6 C       43   6 C                                       1.4219497
    43   6 C       44   6 C                                       1.4129706
    15   6 C       45   6 C                                       1.4163168
    41   6 C       46   6 C                                       1.4192749
    45   6 C       46   6 C                                       1.4095918
    44   6 C       47   6 C                                       1.4153581
    46   6 C       47   6 C                                       1.4132346
    47   6 C       48   6 C                                       1.4113339
    19   6 C       49   6 C                                       1.4209736
    45   6 C       50   6 C                                       1.4139383
    49   6 C       50   6 C                                       1.4178125
    48   6 C       51   6 C                                       1.4139981
    50   6 C       51   6 C                                       1.4132768
    51   6 C       52   6 C                                       1.4140587
    22   6 C       53   6 C                                       1.4240502
    49   6 C       54   6 C                                       1.4119804
    53   6 C       54   6 C                                       1.4206453
    52   6 C       55   6 C                                       1.4114910
    54   6 C       55   6 C                                       1.4208859
    55   6 C       56   6 C                                       1.4161221
    26   6 C       57   6 C                                       1.4221864
    53   6 C       58   6 C                                       1.4216337
    57   6 C       58   6 C                                       1.4086916
    56   6 C       59   6 C                                       1.4128060
    58   6 C       59   6 C                                       1.4265503
    59   6 C       60   6 C                                       1.4121751
    57   6 C       62   6 C                                       1.4255903
    61   6 C       62   6 C                                       1.4119401
    60   6 C       63   6 C                                       1.4204794
    62   6 C       63   6 C                                       1.4194464
    63   6 C       64   6 C                                       1.4125599
    61   6 C       65   6 C                                       1.3971853
    64   6 C       66   6 C                                       1.3977112
    65   6 C       66   6 C                                       1.3682360
    67   6 C       68   6 C                                       1.4010985
    68   6 C       69   6 C                                       1.3680807
    69   6 C       70   6 C                                       1.4010806
    40   6 C       71   6 C                                       1.4140492
    67   6 C       72   6 C                                       1.4105808
    71   6 C       72   6 C                                       1.4222878
    70   6 C       73   6 C                                       1.4111639
    72   6 C       73   6 C                                       1.4201403
    73   6 C       74   6 C                                       1.4223461
    44   6 C       75   6 C                                       1.4139533
    71   6 C       76   6 C                                       1.4110526
    75   6 C       76   6 C                                       1.4121000
    74   6 C       77   6 C                                       1.4111601
    76   6 C       77   6 C                                       1.4211943
    77   6 C       78   6 C                                       1.4128061
    48   6 C       79   6 C                                       1.4163284
    75   6 C       80   6 C                                       1.4160053
    79   6 C       80   6 C                                       1.4106817
    78   6 C       81   6 C                                       1.4159597
    80   6 C       81   6 C                                       1.4146440
    81   6 C       82   6 C                                       1.4106794
    52   6 C       83   6 C                                       1.4175663
    79   6 C       84   6 C                                       1.4130429
    83   6 C       84   6 C                                       1.4142307
    82   6 C       85   6 C                                       1.4131333
    84   6 C       85   6 C                                       1.4130568
    85   6 C       86   6 C                                       1.4138594
    56   6 C       87   6 C                                       1.4159424
    83   6 C       88   6 C                                       1.4095314
    87   6 C       88   6 C                                       1.4147042
    86   6 C       89   6 C                                       1.4090318
    88   6 C       89   6 C                                       1.4163641
    89   6 C       90   6 C                                       1.4149807
    60   6 C       91   6 C                                       1.4183992
    87   6 C       92   6 C                                       1.4133295
    91   6 C       92   6 C                                       1.4085910
    90   6 C       93   6 C                                       1.4123384
    92   6 C       93   6 C                                       1.4230450
    93   6 C       94   6 C                                       1.4095193
    91   6 C       96   6 C                                       1.4226036
    95   6 C       96   6 C                                       1.4095703
    94   6 C       97   6 C                                       1.4212209
    96   6 C       97   6 C                                       1.4199294
    97   6 C       98   6 C                                       1.4110409
    95   6 C       99   6 C                                       1.4001303
    98   6 C      100   6 C                                       1.3998217
    99   6 C      100   6 C                                       1.3680638
   101   6 C      102   6 C                                       1.3999259
   102   6 C      103   6 C                                       1.3700411
   103   6 C      104   6 C                                       1.3982285
    74   6 C      105   6 C                                       1.4164282
   101   6 C      106   6 C                                       1.4119019
   105   6 C      106   6 C                                       1.4229818
   104   6 C      107   6 C                                       1.4134179
   106   6 C      107   6 C                                       1.4212935
   107   6 C      108   6 C                                       1.4219546
    78   6 C      109   6 C                                       1.4137094
   105   6 C      110   6 C                                       1.4109810
   109   6 C      110   6 C                                       1.4130081
   108   6 C      111   6 C                                       1.4091629
   110   6 C      111   6 C                                       1.4223357
   111   6 C      112   6 C                                       1.4141832
    82   6 C      113   6 C                                       1.4164486
   109   6 C      114   6 C                                       1.4161784
   113   6 C      114   6 C                                       1.4094938
   112   6 C      115   6 C                                       1.4143111
   114   6 C      115   6 C                                       1.4157158
   115   6 C      116   6 C                                       1.4107232
    86   6 C      117   6 C                                       1.4174254
   113   6 C      118   6 C                                       1.4147051
   117   6 C      118   6 C                                       1.4126378
   116   6 C      119   6 C                                       1.4125130
   118   6 C      119   6 C                                       1.4129564
   119   6 C      120   6 C                                       1.4163541
    90   6 C      121   6 C                                       1.4141958
   117   6 C      122   6 C                                       1.4108532
   121   6 C      122   6 C                                       1.4152944
   120   6 C      123   6 C                                       1.4079576
   122   6 C      123   6 C                                       1.4178995
   123   6 C      124   6 C                                       1.4214698
    94   6 C      125   6 C                                       1.4176824
   121   6 C      126   6 C                                       1.4121420
   125   6 C      126   6 C                                       1.4105971
   124   6 C      127   6 C                                       1.4207116
   126   6 C      127   6 C                                       1.4241488
   127   6 C      128   6 C                                       1.4055494
   125   6 C      130   6 C                                       1.4212140
   129   6 C      130   6 C                                       1.4119485
   128   6 C      131   6 C                                       1.4240009
   130   6 C      131   6 C                                       1.4193547
   131   6 C      132   6 C                                       1.4115789
   129   6 C      133   6 C                                       1.3987153
   132   6 C      134   6 C                                       1.3973266
   133   6 C      134   6 C                                       1.3699781
   135   6 C      136   6 C                                       1.3952445
   136   6 C      137   6 C                                       1.3893966
   137   6 C      138   6 C                                       1.3713462
   108   6 C      139   6 C                                       1.4201726
   135   6 C      140   6 C                                       1.4141760
   139   6 C      140   6 C                                       1.4183733
   138   6 C      141   6 C                                       1.4088320
   140   6 C      141   6 C                                       1.4257602
   141   6 C      142   6 C                                       1.3969214
   112   6 C      143   6 C                                       1.4163125
   139   6 C      144   6 C                                       1.4089727
   143   6 C      144   6 C                                       1.4111115
   142   6 C      145   6 C                                       1.3953655
   144   6 C      145   6 C                                       1.4318841
   145   6 C      146   6 C                                       1.3989912
   116   6 C      147   6 C                                       1.4180797
   143   6 C      148   6 C                                       1.4145750
   147   6 C      148   6 C                                       1.4078361
   146   6 C      149   6 C                                       1.3953735
   148   6 C      149   6 C                                       1.4293044
   149   6 C      150   6 C                                       1.4010736
   120   6 C      151   6 C                                       1.4206934
   147   6 C      152   6 C                                       1.4142878
   151   6 C      152   6 C                                       1.4152785
   150   6 C      153   6 C                                       1.3878718
   152   6 C      153   6 C                                       1.4221536
   153   6 C      154   6 C                                       1.4118891
   124   6 C      155   6 C                                       1.4163389
   151   6 C      156   6 C                                       1.4159010
   155   6 C      156   6 C                                       1.4298692
   154   6 C      157   6 C                                       1.3650380
   156   6 C      157   6 C                                       1.4255162
   128   6 C      158   6 C                                       1.4203861
   155   6 C      159   6 C                                       1.4301138
   158   6 C      159   6 C                                       1.4135439
   159   6 C      160   6 C                                       1.4260507
   160   6 C      161   6 C                                       1.3638304
   158   6 C      163   6 C                                       1.4230400
   162   6 C      163   6 C                                       1.4158383
   161   6 C      164   6 C                                       1.4100601
   163   6 C      164   6 C                                       1.4159903
   164   6 C      165   6 C                                       1.3998340
   162   6 C      166   6 C                                       1.3935514
   165   6 C      167   6 C                                       1.3742998
   166   6 C      167   6 C                                       1.3864437
     1   6 C      168   1 H                                       1.0817547
     2   6 C      169   1 H                                       1.0797911
     3   6 C      170   1 H                                       1.0776672
     8   6 C      172   1 H                                       1.0825424
    12   6 C      173   1 H                                       1.0803122
    16   6 C      174   1 H                                       1.0822193
    23   6 C      175   1 H                                       1.0823021
    27   6 C      176   1 H                                       1.0797591
    34   6 C      177   1 H                                       1.0775910
    35   6 C      178   1 H                                       1.0774725
    68   6 C      179   1 H                                       1.0775594
    69   6 C      180   1 H                                       1.0775271
   102   6 C      181   1 H                                       1.0775504
   103   6 C      182   1 H                                       1.0777304
   136   6 C      183   1 H                                       1.0775716
   137   6 C      184   1 H                                       1.0804221
   138   6 C      185   1 H                                       1.0800653
   142   6 C      186   1 H                                       1.0807387
   146   6 C      187   1 H                                       1.0806371
   150   6 C      188   1 H                                       1.0806346
   154   6 C      189   1 H                                       1.0825000
   161   6 C      191   1 H                                       1.0825301
   165   6 C      192   1 H                                       1.0800701
   167   6 C      193   1 H                                       1.0802231
    31   6 C      194   1 H                                       1.0801008
    32   6 C      195   1 H                                       1.0772094
    65   6 C      196   1 H                                       1.0771892 (min)
    66   6 C      197   1 H                                       1.0772884
    99   6 C      198   1 H                                       1.0774505
   100   6 C      199   1 H                                       1.0774926
   133   6 C      200   1 H                                       1.0775136
   134   6 C      201   1 H                                       1.0776698
   166   6 C      202   1 H                                       1.0777757
   157   6 C      203  15 P                                       1.8072036
   160   6 C      203  15 P                                       1.8076634
   190   1 H      203  15 P                                       1.4005810
     5   6 C      204  15 P                                       1.8065476
     9   6 C      204  15 P                                       1.8086312 (max)
   171   1 H      204  15 P                                       1.4012044
    20   6 C      205  15 P                                       1.7609195
    24   6 C      205  15 P                                       1.7623867

 * 4 distinct bonds (by element types)

   Z      Z             #   av. dist./Å        max./Å        min./Å
   1 H    6 C          33     1.0792988     1.0825424     1.0771892
   6 C    6 C         222     1.4103536     1.4318841     1.3618272
   1 H   15 P           2     1.4008927     1.4012044     1.4005810
   6 C   15 P           6     1.7922253     1.8086312     1.7609195


optimized geometry written to: xtbopt.xyz


           -------------------------------------------------
          | TOTAL ENERGY             -384.469780596795 Eh   |
          | GRADIENT NORM               0.000193472668 Eh/α |
          | HOMO-LUMO GAP               0.021540184763 eV   |
           -------------------------------------------------

------------------------------------------------------------------------
 * finished run on 2025/12/08 at 00:44:22.892     
------------------------------------------------------------------------
 total:
 * wall-time:     0 d,  0 h,  0 min, 53.054 sec
 *  cpu-time:     0 d,  0 h,  3 min, 28.000 sec
 * ratio c/w:     3.921 speedup
 SCF:
 * wall-time:     0 d,  0 h,  0 min,  5.140 sec
 *  cpu-time:     0 d,  0 h,  0 min, 20.125 sec
 * ratio c/w:     3.915 speedup
 ANC optimizer:
 * wall-time:     0 d,  0 h,  0 min, 47.734 sec
 *  cpu-time:     0 d,  0 h,  3 min,  7.203 sec
 * ratio c/w:     3.922 speedup

normal termination of xtb
