      -----------------------------------------------------------      
     |                   =====================                   |     
     |                           x T B                           |     
     |                   =====================                   |     
     |                         S. Grimme                         |     
     |          Mulliken Center for Theoretical Chemistry        |     
     |                    University of Bonn                     |     
      -----------------------------------------------------------      

   * xtb version 6.7.1pre (5071a88) compiled by 'Marcel@Raven' on 2024-07-23

   xtb is free software: you can redistribute it and/or modify it under
   the terms of the GNU Lesser General Public License as published by
   the Free Software Foundation, either version 3 of the License, or
   (at your option) any later version.
   
   xtb is distributed in the hope that it will be useful,
   but WITHOUT ANY WARRANTY; without even the implied warranty of
   MERCHANTABILITY or FITNESS FOR A PARTICULAR PURPOSE.  See the
   GNU Lesser General Public License for more details.
   
   Cite this work as:
   * C. Bannwarth, E. Caldeweyher, S. Ehlert, A. Hansen, P. Pracht,
     J. Seibert, S. Spicher, S. Grimme, WIREs Comput. Mol. Sci., 2020, 11,
     e01493. DOI: 10.1002/wcms.1493
   
   for GFN2-xTB:
   * C. Bannwarth, S. Ehlert and S. Grimme., J. Chem. Theory Comput., 2019,
     15, 1652-1671. DOI: 10.1021/acs.jctc.8b01176
   for GFN1-xTB:
   * S. Grimme, C. Bannwarth, P. Shushkov, J. Chem. Theory Comput., 2017,
     13, 1989-2009. DOI: 10.1021/acs.jctc.7b00118
   for GFN0-xTB:
   * P. Pracht, E. Caldeweyher, S. Ehlert, S. Grimme, ChemRxiv, 2019, preprint.
     DOI: 10.26434/chemrxiv.8326202.v1
   for GFN-FF:
   * S. Spicher and S. Grimme, Angew. Chem. Int. Ed., 2020, 59, 15665-15673.
     DOI: 10.1002/anie.202004239
   
   for ALPB and GBSA implicit solvation:
   * S. Ehlert, M. Stahn, S. Spicher, S. Grimme, J. Chem. Theory Comput.,
     2021, 17, 4250-4261. DOI: 10.1021/acs.jctc.1c00471
   
   for ddCOSMO and CPCM-X implicit solvation:
   * M. Stahn, S. Ehlert, S. Grimme, J. Phys. Chem. A,
     2023, XX, XXXX-XXXX. DOI: 10.1021/acs.jpca.3c04382
   
   for DFT-D4:
   * E. Caldeweyher, C. Bannwarth and S. Grimme, J. Chem. Phys., 2017,
     147, 034112. DOI: 10.1063/1.4993215
   * E. Caldeweyher, S. Ehlert, A. Hansen, H. Neugebauer, S. Spicher,
     C. Bannwarth and S. Grimme, J. Chem. Phys., 2019, 150, 154122.
     DOI: 10.1063/1.5090222
   * E. Caldeweyher, J.-M. Mewes, S. Ehlert and S. Grimme, Phys. Chem. Chem. Phys.
     2020, 22, 8499-8512. DOI: 10.1039/D0CP00502A
   
   for sTDA-xTB:
   * S. Grimme and C. Bannwarth, J. Chem. Phys., 2016, 145, 054103.
     DOI: 10.1063/1.4959605
   
   in the mass-spec context:
   * V. Asgeirsson, C. Bauer and S. Grimme, Chem. Sci., 2017, 8, 4879.
     DOI: 10.1039/c7sc00601b
   * J. Koopman and S. Grimme, ACS Omega 2019, 4, 12, 15120-15133.
     DOI: 10.1021/acsomega.9b02011
   
   for metadynamics refer to:
   * S. Grimme, J. Chem. Theory Comput., 2019, 155, 2847-2862
     DOI: 10.1021/acs.jctc.9b00143
   
   for SPH calculations refer to:
   * S. Spicher and S. Grimme, J. Chem. Theory Comput., 2021, 17, 1701-1714
     DOI: 10.1021/acs.jctc.0c01306
   
   for ONIOM refer to:
   * C. Plett, A. Katbashev, S. Ehlert, S. Grimme, M. Bursch,
     Phys. Chem. Chem. Phys., 2023, 25, 17860-17868. DOI: 10.1039/D3CP02178E
   
   for DIPRO refer to:
   * J. Kohn, N. Gildemeister, S. Grimme, D. Fazzi, A. Hansen,
     J. Chem. Phys., 2023, just accepted.
   
   for PTB refer to:
   * S. Grimme, M. Mueller, A. Hansen, J. Chem. Phys., 2023, 158, 124111.
     DOI: 10.1063/5.0137838
   
   with help from (in alphabetical order)
   P. Atkinson, C. Bannwarth, F. Bohle, G. Brandenburg, E. Caldeweyher
   M. Checinski, S. Dohm, S. Ehlert, S. Ehrlich, I. Gerasimov, C. Hölzer
   A. Katbashev, J. Kohn, J. Koopman, C. Lavigne, S. Lehtola, F. März, M. Müller,
   F. Musil, H. Neugebauer, J. Pisarek, C. Plett, P. Pracht, F. Pultar,
   J. Seibert, P. Shushkov, S. Spicher, M. Stahn, M. Steiner, T. Strunk,
   J. Stückrath, T. Rose, and J. Unsleber
   
 * started run on 2025/12/08 at 00:44:22.928     
   ID    Z sym.   atoms
    1    6 C      1-167
    2    1 H      168-202
    3   15 P      203-205

           -------------------------------------------------
          |                Calculation Setup                |
           -------------------------------------------------

          program call               : xtb "C:\Users\LENOVO GAMING\Documents\GitHub\molecular-conductivity-sim\results\2nm-3Pdoped-1.5percent\xtbopt.xyz" --sp
          coordinate file            : C:\Users\LENOVO GAMING\Documents\GitHub\molecular-conductivity-sim\results\2nm-3Pdoped-1.5percent\xtbopt.xyz
          omp threads                :                    16


           -------------------------------------------------
          |                 G F N 2 - x T B                 |
           -------------------------------------------------

        Reference                      10.1021/acs.jctc.8b01176
      * Hamiltonian:
        H0-scaling (s, p, d)           1.850000    2.230000    2.230000
        zeta-weighting                 0.500000
      * Dispersion:
        s8                             2.700000
        a1                             0.520000
        a2                             5.000000
        s9                             5.000000
      * Repulsion:
        kExp                           1.500000    1.000000
        rExp                           1.000000
      * Coulomb:
        alpha                          2.000000
        third order                    shell-resolved
        anisotropic                    true
        a3                             3.000000
        a5                             4.000000
        cn-shift                       1.200000
        cn-exp                         4.000000
        max-rad                        5.000000

q/qsh data taken from xtbrestart
CAMM data taken from xtbrestart

          ...................................................
          :                      SETUP                      :
          :.................................................:
          :  # basis functions                 733          :
          :  # atomic orbitals                 730          :
          :  # shells                          378          :
          :  # electrons                       718          :
          :  max. iterations                   250          :
          :  Hamiltonian                  GFN2-xTB          :
          :  restarted?                       true          :
          :  GBSA solvation                  false          :
          :  PC potential                    false          :
          :  electronic temp.          300.0000000     K    :
          :  accuracy                    1.0000000          :
          :  -> integral cutoff          0.2500000E+02      :
          :  -> integral neglect         0.1000000E-07      :
          :  -> SCF convergence          0.1000000E-05 Eh   :
          :  -> wf. convergence          0.1000000E-03 e    :
          :  Broyden damping             0.4000000          :
          :  net charge                          0          :
          :  unpaired electrons                  0          :
          ...................................................

 iter      E             dE          RMSdq      gap      omega  full diag
   1   -391.9530938 -0.391953E+03  0.265E-05    0.02       0.0  T
   2   -391.9530937  0.128621E-06  0.749E-04    0.02       9.3  T
   3   -391.9530938 -0.128758E-06  0.792E-06    0.02     882.1  T

   *** convergence criteria satisfied after 3 iterations ***

         #    Occupation            Energy/Eh            Energy/eV
      -------------------------------------------------------------
         1        2.0000           -0.6730500             -18.3146
       ...           ...                  ...                  ...
       353        2.0000           -0.3719146             -10.1203
       354        2.0000           -0.3669919              -9.9864
       355        2.0000           -0.3624240              -9.8621
       356        2.0000           -0.3592935              -9.7769
       357        2.0000           -0.3563581              -9.6970
       358        2.0000           -0.3399627              -9.2509
       359        1.2053           -0.3269067              -8.8956 (HOMO)
       360        0.7947           -0.3261152              -8.8740 (LUMO)
       361        0.0000           -0.3142048              -8.5499
       362                         -0.2941840              -8.0052
       363                         -0.2910758              -7.9206
       364                         -0.2880439              -7.8381
       ...                                ...                  ...
       730                          0.9303391              25.3158
      -------------------------------------------------------------
                  HL-Gap            0.0007915 Eh            0.0215 eV
             Fermi-level           -0.3265109 Eh           -8.8848 eV

 SCC (total)                   0 d,  0 h,  0 min,  0.748 sec
 SCC setup                      ...        0 min,  0.004 sec (  0.535%)
 Dispersion                     ...        0 min,  0.024 sec (  3.209%)
 classical contributions        ...        0 min,  0.001 sec (  0.134%)
 integral evaluation            ...        0 min,  0.063 sec (  8.422%)
 iterations                     ...        0 min,  0.446 sec ( 59.626%)
 molecular gradient             ...        0 min,  0.198 sec ( 26.471%)
 printout                       ...        0 min,  0.011 sec (  1.471%)

         :::::::::::::::::::::::::::::::::::::::::::::::::::::
         ::                     SUMMARY                     ::
         :::::::::::::::::::::::::::::::::::::::::::::::::::::
         :: total energy            -384.469780598333 Eh    ::
         :: gradient norm              0.000193487793 Eh/a0 ::
         :: HOMO-LUMO gap              0.021538771879 eV    ::
         ::.................................................::
         :: SCC energy              -391.969726567677 Eh    ::
         :: -> isotropic ES            0.002786303832 Eh    ::
         :: -> anisotropic ES          0.013610855376 Eh    ::
         :: -> anisotropic XC          0.130823464737 Eh    ::
         :: -> dispersion             -0.504318388569 Eh    ::
         :: repulsion energy           7.499945969344 Eh    ::
         :: add. restraining           0.000000000000 Eh    ::
         :: total charge              -0.000000000000 e     ::
         :::::::::::::::::::::::::::::::::::::::::::::::::::::

           -------------------------------------------------
          |                Property Printout                |
           -------------------------------------------------

    * Orbital Energies and Occupations

         #    Occupation            Energy/Eh            Energy/eV
      -------------------------------------------------------------
         1        2.0000           -0.6730500             -18.3146
       ...           ...                  ...                  ...
       347        2.0000           -0.3842354             -10.4556
       348        2.0000           -0.3835500             -10.4369
       349        2.0000           -0.3829754             -10.4213
       350        2.0000           -0.3818583             -10.3909
       351        2.0000           -0.3792646             -10.3203
       352        2.0000           -0.3771498             -10.2628
       353        2.0000           -0.3719146             -10.1203
       354        2.0000           -0.3669919              -9.9864
       355        2.0000           -0.3624240              -9.8621
       356        2.0000           -0.3592935              -9.7769
       357        2.0000           -0.3563581              -9.6970
       358        2.0000           -0.3399627              -9.2509
       359        1.2053           -0.3269067              -8.8956 (HOMO)
       360        0.7947           -0.3261152              -8.8740 (LUMO)
       361        0.0000           -0.3142048              -8.5499
       362                         -0.2941840              -8.0052
       363                         -0.2910758              -7.9206
       364                         -0.2880439              -7.8381
       365                         -0.2789691              -7.5911
       366                         -0.2734361              -7.4406
       367                         -0.2718162              -7.3965
       368                         -0.2653949              -7.2218
       369                         -0.2637986              -7.1783
       370                         -0.2605815              -7.0908
       ...                                ...                  ...
       730                          0.9303391              25.3158
      -------------------------------------------------------------
                  HL-Gap            0.0007915 Eh            0.0215 eV
             Fermi-level           -0.3265109 Eh           -8.8848 eV

     #   Z          covCN         q      C6AA      α(0)
     1   6 C        3.039    -0.034    28.815     8.805
     2   6 C        2.915    -0.030    28.753     8.793
     3   6 C        2.925    -0.037    28.922     8.819
     4   6 C        2.984     0.006    27.874     8.660
     5   6 C        2.921     0.005    27.911     8.664
     6   6 C        3.045     0.005    27.876     8.659
     7   6 C        2.974     0.002    27.974     8.676
     8   6 C        3.052    -0.043    29.006     8.833
     9   6 C        2.913     0.004    27.929     8.666
    10   6 C        3.033     0.003    27.922     8.667
    11   6 C        2.989     0.001    28.006     8.681
    12   6 C        2.926    -0.045    29.110     8.848
    13   6 C        2.981     0.012    27.746     8.640
    14   6 C        2.994    -0.000    28.019     8.683
    15   6 C        2.990     0.002    27.984     8.678
    16   6 C        3.141    -0.042    28.781     8.779
    17   6 C        2.980     0.011    27.761     8.643
    18   6 C        2.994     0.000    28.011     8.682
    19   6 C        2.986     0.001    27.997     8.680
    20   6 C        2.913    -0.001    28.057     8.686
    21   6 C        3.019     0.002    27.953     8.673
    22   6 C        2.972     0.002    27.985     8.677
    23   6 C        3.142    -0.041    28.768     8.777
    24   6 C        2.913    -0.002    28.071     8.688
    25   6 C        3.018     0.002    27.950     8.672
    26   6 C        2.984     0.001    28.005     8.681
    27   6 C        2.923    -0.036    28.899     8.816
    28   6 C        2.984     0.012    27.745     8.640
    29   6 C        2.995     0.003    27.957     8.673
    30   6 C        2.978     0.007    27.866     8.659
    31   6 C        2.913    -0.029    28.723     8.788
    32   6 C        2.924    -0.036    28.898     8.816
    33   6 C        2.982     0.005    27.915     8.667
    34   6 C        2.919    -0.037    28.920     8.819
    35   6 C        2.919    -0.037    28.911     8.817
    36   6 C        2.981     0.005    27.909     8.666
    37   6 C        2.986    -0.001    28.036     8.686
    38   6 C        2.990     0.001    27.985     8.678
    39   6 C        2.991     0.001    27.985     8.678
    40   6 C        2.988     0.000    28.015     8.682
    41   6 C        2.990    -0.000    28.026     8.684
    42   6 C        2.988     0.000    28.015     8.682
    43   6 C        2.989    -0.000    28.031     8.685
    44   6 C        2.991    -0.001    28.033     8.685
    45   6 C        2.992    -0.000    28.029     8.685
    46   6 C        2.990    -0.000    28.026     8.684
    47   6 C        2.992    -0.000    28.024     8.684
    48   6 C        2.991    -0.000    28.025     8.684
    49   6 C        2.988    -0.000    28.031     8.685
    50   6 C        2.989    -0.001    28.036     8.686
    51   6 C        2.991    -0.000    28.024     8.684
    52   6 C        2.990    -0.000    28.022     8.683
    53   6 C        2.983    -0.001    28.044     8.687
    54   6 C        2.985     0.000    28.016     8.682
    55   6 C        2.988    -0.001    28.033     8.685
    56   6 C        2.989    -0.000    28.025     8.684
    57   6 C        2.985    -0.000    28.026     8.684
    58   6 C        2.984     0.000    28.021     8.683
    59   6 C        2.987    -0.001    28.037     8.686
    60   6 C        2.987    -0.000    28.025     8.684
    61   6 C        2.981     0.004    27.926     8.668
    62   6 C        2.988     0.001    27.996     8.679
    63   6 C        2.991     0.001    27.988     8.678
    64   6 C        2.982     0.005    27.910     8.666
    65   6 C        2.920    -0.037    28.920     8.819
    66   6 C        2.920    -0.037    28.918     8.818
    67   6 C        2.980     0.005    27.915     8.667
    68   6 C        2.919    -0.037    28.909     8.817
    69   6 C        2.919    -0.037    28.912     8.817
    70   6 C        2.980     0.005    27.908     8.666
    71   6 C        2.988    -0.000    28.029     8.685
    72   6 C        2.991     0.001    27.989     8.678
    73   6 C        2.991     0.001    27.987     8.678
    74   6 C        2.987     0.000    28.021     8.683
    75   6 C        2.991    -0.000    28.028     8.684
    76   6 C        2.989     0.000    28.019     8.683
    77   6 C        2.989    -0.000    28.031     8.685
    78   6 C        2.991    -0.000    28.031     8.685
    79   6 C        2.991    -0.000    28.026     8.684
    80   6 C        2.991    -0.000    28.021     8.683
    81   6 C        2.991    -0.000    28.027     8.684
    82   6 C        2.991    -0.000    28.020     8.683
    83   6 C        2.991    -0.000    28.029     8.684
    84   6 C        2.992    -0.000    28.028     8.684
    85   6 C        2.992    -0.000    28.027     8.684
    86   6 C        2.992    -0.000    28.020     8.683
    87   6 C        2.990    -0.001    28.034     8.685
    88   6 C        2.991     0.000    28.019     8.683
    89   6 C        2.991    -0.000    28.026     8.684
    90   6 C        2.991    -0.001    28.032     8.685
    91   6 C        2.987    -0.000    28.029     8.685
    92   6 C        2.989     0.000    28.020     8.683
    93   6 C        2.989    -0.000    28.029     8.685
    94   6 C        2.988    -0.000    28.024     8.684
    95   6 C        2.982     0.005    27.915     8.667
    96   6 C        2.991     0.001    27.991     8.679
    97   6 C        2.991     0.001    27.988     8.678
    98   6 C        2.981     0.005    27.910     8.666
    99   6 C        2.919    -0.037    28.917     8.818
   100   6 C        2.919    -0.037    28.913     8.818
   101   6 C        2.979     0.005    27.915     8.667
   102   6 C        2.919    -0.037    28.914     8.818
   103   6 C        2.919    -0.037    28.909     8.817
   104   6 C        2.978     0.005    27.917     8.667
   105   6 C        2.987    -0.000    28.028     8.684
   106   6 C        2.990     0.001    27.992     8.679
   107   6 C        2.989     0.002    27.985     8.678
   108   6 C        2.987    -0.000    28.027     8.684
   109   6 C        2.990    -0.000    28.031     8.685
   110   6 C        2.989    -0.000    28.021     8.683
   111   6 C        2.988    -0.000    28.031     8.685
   112   6 C        2.990    -0.001    28.043     8.687
   113   6 C        2.991    -0.000    28.028     8.684
   114   6 C        2.991     0.000    28.018     8.683
   115   6 C        2.990    -0.000    28.026     8.684
   116   6 C        2.992    -0.000    28.030     8.685
   117   6 C        2.991    -0.000    28.027     8.684
   118   6 C        2.992    -0.000    28.028     8.684
   119   6 C        2.990    -0.000    28.029     8.685
   120   6 C        2.990     0.000    28.018     8.683
   121   6 C        2.991    -0.000    28.024     8.684
   122   6 C        2.990    -0.000    28.025     8.684
   123   6 C        2.988     0.000    28.018     8.683
   124   6 C        2.987    -0.001    28.040     8.686
   125   6 C        2.987    -0.000    28.028     8.684
   126   6 C        2.989    -0.000    28.023     8.684
   127   6 C        2.987    -0.000    28.024     8.684
   128   6 C        2.987     0.000    28.018     8.683
   129   6 C        2.981     0.005    27.913     8.666
   130   6 C        2.992     0.001    27.988     8.678
   131   6 C        2.990     0.001    27.988     8.678
   132   6 C        2.980     0.005    27.913     8.666
   133   6 C        2.919    -0.037    28.914     8.818
   134   6 C        2.919    -0.037    28.911     8.817
   135   6 C        2.975     0.006    27.873     8.660
   136   6 C        2.922    -0.036    28.895     8.815
   137   6 C        2.912    -0.030    28.740     8.791
   138   6 C        2.921    -0.037    28.910     8.817
   139   6 C        2.986     0.001    27.998     8.680
   140   6 C        2.994     0.002    27.977     8.676
   141   6 C        2.979     0.013    27.725     8.637
   142   6 C        2.925    -0.044    29.104     8.847
   143   6 C        2.989     0.001    27.997     8.680
   144   6 C        2.993     0.000    28.015     8.682
   145   6 C        2.974     0.012    27.740     8.639
   146   6 C        2.924    -0.045    29.123     8.850
   147   6 C        2.990     0.001    27.988     8.678
   148   6 C        2.994     0.000    28.014     8.682
   149   6 C        2.975     0.012    27.732     8.638
   150   6 C        2.924    -0.045    29.120     8.849
   151   6 C        2.989     0.001    27.998     8.680
   152   6 C        2.994    -0.001    28.035     8.686
   153   6 C        2.979     0.011    27.758     8.642
   154   6 C        3.045    -0.042    29.009     8.834
   155   6 C        2.975     0.002    27.975     8.676
   156   6 C        3.040     0.002    27.932     8.669
   157   6 C        2.914     0.004    27.927     8.666
   158   6 C        2.988     0.001    28.003     8.680
   159   6 C        3.038     0.003    27.927     8.668
   160   6 C        2.915     0.004    27.939     8.668
   161   6 C        3.046    -0.042    28.999     8.832
   162   6 C        2.978     0.007    27.868     8.659
   163   6 C        2.996     0.001    27.988     8.678
   164   6 C        2.986     0.012    27.748     8.641
   165   6 C        2.922    -0.036    28.905     8.817
   166   6 C        2.923    -0.037    28.910     8.817
   167   6 C        2.914    -0.030    28.737     8.791
   168   1 H        0.925     0.035     2.510     2.478
   169   1 H        0.926     0.033     2.545     2.495
   170   1 H        0.926     0.036     2.501     2.473
   171   1 H        0.977     0.049     2.332     2.386
   172   1 H        0.925     0.036     2.507     2.476
   173   1 H        0.926     0.034     2.526     2.485
   174   1 H        0.925     0.041     2.439     2.442
   175   1 H        0.925     0.041     2.437     2.441
   176   1 H        0.926     0.034     2.533     2.489
   177   1 H        0.926     0.034     2.528     2.486
   178   1 H        0.926     0.034     2.531     2.488
   179   1 H        0.926     0.033     2.539     2.492
   180   1 H        0.926     0.033     2.538     2.491
   181   1 H        0.926     0.033     2.539     2.492
   182   1 H        0.926     0.033     2.541     2.493
   183   1 H        0.926     0.033     2.546     2.495
   184   1 H        0.926     0.030     2.585     2.514
   185   1 H        0.926     0.032     2.563     2.504
   186   1 H        0.926     0.032     2.556     2.500
   187   1 H        0.926     0.032     2.559     2.502
   188   1 H        0.926     0.032     2.554     2.499
   189   1 H        0.925     0.035     2.519     2.482
   190   1 H        0.977     0.048     2.338     2.389
   191   1 H        0.925     0.035     2.515     2.480
   192   1 H        0.926     0.032     2.555     2.499
   193   1 H        0.926     0.031     2.575     2.510
   194   1 H        0.926     0.031     2.568     2.506
   195   1 H        0.926     0.034     2.524     2.485
   196   1 H        0.926     0.034     2.533     2.489
   197   1 H        0.926     0.034     2.530     2.487
   198   1 H        0.926     0.034     2.535     2.490
   199   1 H        0.926     0.034     2.536     2.490
   200   1 H        0.926     0.034     2.534     2.489
   201   1 H        0.926     0.034     2.534     2.489
   202   1 H        0.926     0.033     2.537     2.491
   203  15 P        3.215    -0.086   164.105    23.012
   204  15 P        3.212    -0.084   163.993    23.004
   205  15 P        2.397    -0.033   173.632    24.460

 Mol. C6AA /au·bohr⁶  :     960809.007449
 Mol. C8AA /au·bohr⁸  :   27514200.216213
 Mol. α(0) /au        :       1611.001573


Wiberg/Mayer (AO) data.
largest (>0.10) Wiberg bond orders for each atom

 ---------------------------------------------------------------------------
     #   Z sym  total        # sym  WBO       # sym  WBO       # sym  WBO
 ---------------------------------------------------------------------------
     1   6 C    3.978 --     5 C    1.439     2 C    1.389   168 H    0.962
     2   6 C    3.976 --     3 C    1.483     1 C    1.389   169 H    0.969
     3   6 C    3.983 --     2 C    1.483     4 C    1.341   170 H    0.961
     4   6 C    3.975 --     3 C    1.341     6 C    1.291    33 C    1.141
     5   6 C    3.971 --     1 C    1.439     6 C    1.295   204 P    1.039
     6   6 C    3.979 --     5 C    1.295     4 C    1.291     7 C    1.156
     7   6 C    3.945 --    37 C    1.297    10 C    1.269     6 C    1.156
     8   6 C    3.952 --     9 C    1.560    13 C    1.219   172 H    0.958
     9   6 C    3.965 --     8 C    1.560    10 C    1.193   204 P    1.036
    10   6 C    3.941 --     7 C    1.269    11 C    1.257     9 C    1.193
    11   6 C    3.973 --    14 C    1.258    10 C    1.257    41 C    1.235
    12   6 C    3.864 --    13 C    1.389    17 C    1.309   173 H    0.966
    13   6 C    3.977 --    12 C    1.389     8 C    1.219    14 C    1.208
    14   6 C    3.946 --    15 C    1.261    11 C    1.258    13 C    1.208
    15   6 C    3.977 --    18 C    1.276    14 C    1.261    45 C    1.220
    16   6 C    3.830 --    20 C    1.407    17 C    1.305   174 H    0.958
    17   6 C    3.980 --    12 C    1.309    16 C    1.305    18 C    1.204
    18   6 C    3.945 --    15 C    1.276    19 C    1.247    17 C    1.204
    19   6 C    3.974 --    21 C    1.280    18 C    1.247    49 C    1.224
    20   6 C    3.974 --    16 C    1.407   205 P    1.219    21 C    1.203
    21   6 C    3.933 --    19 C    1.280    22 C    1.241    20 C    1.203
    22   6 C    3.964 --    53 C    1.252    25 C    1.247    21 C    1.241
    23   6 C    3.837 --    24 C    1.416    28 C    1.299   175 H    0.958
    24   6 C    3.982 --    23 C    1.416   205 P    1.214    25 C    1.199
    25   6 C    3.946 --    26 C    1.285    22 C    1.247    24 C    1.199
    26   6 C    3.974 --    25 C    1.285    29 C    1.235    57 C    1.228
    27   6 C    3.909 --    31 C    1.492    28 C    1.287   176 H    0.968
    28   6 C    3.987 --    23 C    1.299    27 C    1.287    29 C    1.230
    29   6 C    3.956 --    30 C    1.269    26 C    1.235    28 C    1.230
    30   6 C    3.980 --    32 C    1.380    29 C    1.269    61 C    1.138
    31   6 C    3.983 --    27 C    1.492    32 C    1.397   194 H    0.970
    32   6 C    3.906 --    31 C    1.397    30 C    1.380   195 H    0.961
    33   6 C    3.961 --    34 C    1.321    38 C    1.299     4 C    1.141
    34   6 C    3.963 --    35 C    1.511    33 C    1.321   177 H    0.961
    35   6 C    3.961 --    34 C    1.511    36 C    1.321   178 H    0.960
    36   6 C    3.961 --    35 C    1.321    39 C    1.286    67 C    1.157
    37   6 C    3.963 --     7 C    1.297    42 C    1.246    38 C    1.200
    38   6 C    3.981 --    33 C    1.299    39 C    1.253    37 C    1.200
    39   6 C    3.978 --    36 C    1.286    38 C    1.253    40 C    1.215
    40   6 C    3.956 --    43 C    1.266    71 C    1.260    39 C    1.215
    41   6 C    3.965 --    42 C    1.278    11 C    1.235    46 C    1.230
    42   6 C    3.966 --    41 C    1.278    37 C    1.246    43 C    1.220
    43   6 C    3.958 --    40 C    1.266    44 C    1.257    42 C    1.220
    44   6 C    3.964 --    43 C    1.257    75 C    1.249    47 C    1.240
    45   6 C    3.953 --    46 C    1.270    50 C    1.251    15 C    1.220
    46   6 C    3.964 --    45 C    1.270    47 C    1.244    41 C    1.230
    47   6 C    3.957 --    48 C    1.260    46 C    1.244    44 C    1.240
    48   6 C    3.960 --    47 C    1.260    51 C    1.252    79 C    1.232
    49   6 C    3.952 --    54 C    1.270    50 C    1.246    19 C    1.224
    50   6 C    3.964 --    45 C    1.251    51 C    1.248    49 C    1.246
    51   6 C    3.958 --    48 C    1.252    50 C    1.248    52 C    1.244
    52   6 C    3.961 --    55 C    1.269    51 C    1.244    83 C    1.232
    53   6 C    3.954 --    22 C    1.252    54 C    1.244    58 C    1.244
    54   6 C    3.961 --    49 C    1.270    53 C    1.244    55 C    1.231
    55   6 C    3.953 --    52 C    1.269    56 C    1.241    54 C    1.231
    56   6 C    3.962 --    59 C    1.257    87 C    1.249    55 C    1.241
    57   6 C    3.941 --    58 C    1.290    26 C    1.228    62 C    1.216
    58   6 C    3.965 --    57 C    1.290    53 C    1.244    59 C    1.213
    59   6 C    3.958 --    60 C    1.273    56 C    1.257    58 C    1.213
    60   6 C    3.961 --    59 C    1.273    91 C    1.247    63 C    1.223
    61   6 C    3.951 --    65 C    1.337    62 C    1.285    30 C    1.138
    62   6 C    3.980 --    61 C    1.285    63 C    1.252    57 C    1.216
    63   6 C    3.977 --    64 C    1.278    62 C    1.252    60 C    1.223
    64   6 C    3.964 --    66 C    1.331    63 C    1.278    95 C    1.155
    65   6 C    3.969 --    66 C    1.496    61 C    1.337   196 H    0.960
    66   6 C    3.955 --    65 C    1.496    64 C    1.331   197 H    0.960
    67   6 C    3.959 --    68 C    1.319    72 C    1.286    36 C    1.157
    68   6 C    3.959 --    69 C    1.512    67 C    1.319   179 H    0.961
    69   6 C    3.962 --    68 C    1.512    70 C    1.320   180 H    0.960
    70   6 C    3.956 --    69 C    1.320    73 C    1.285   101 C    1.155
    71   6 C    3.958 --    76 C    1.265    40 C    1.260    72 C    1.217
    72   6 C    3.978 --    67 C    1.286    73 C    1.251    71 C    1.217
    73   6 C    3.979 --    70 C    1.285    72 C    1.251    74 C    1.218
    74   6 C    3.955 --    77 C    1.270   105 C    1.253    73 C    1.218
    75   6 C    3.962 --    76 C    1.260    44 C    1.249    80 C    1.237
    76   6 C    3.959 --    71 C    1.265    75 C    1.260    77 C    1.219
    77   6 C    3.961 --    74 C    1.270    78 C    1.256    76 C    1.219
    78   6 C    3.961 --    77 C    1.256   109 C    1.250    81 C    1.239
    79   6 C    3.958 --    80 C    1.264    84 C    1.248    48 C    1.232
    80   6 C    3.957 --    79 C    1.264    81 C    1.242    75 C    1.237
    81   6 C    3.958 --    82 C    1.263    80 C    1.242    78 C    1.239
    82   6 C    3.957 --    81 C    1.263    85 C    1.250   113 C    1.232
    83   6 C    3.958 --    88 C    1.265    84 C    1.247    52 C    1.232
    84   6 C    3.960 --    85 C    1.250    79 C    1.248    83 C    1.247
    85   6 C    3.960 --    84 C    1.250    82 C    1.250    86 C    1.245
    86   6 C    3.957 --    89 C    1.268    85 C    1.245   117 C    1.230
    87   6 C    3.961 --    92 C    1.254    56 C    1.249    88 C    1.242
    88   6 C    3.958 --    83 C    1.265    87 C    1.242    89 C    1.236
    89   6 C    3.957 --    86 C    1.268    90 C    1.239    88 C    1.236
    90   6 C    3.961 --    93 C    1.255   121 C    1.251    89 C    1.239
    91   6 C    3.957 --    92 C    1.276    60 C    1.247    96 C    1.218
    92   6 C    3.961 --    91 C    1.276    87 C    1.254    93 C    1.216
    93   6 C    3.960 --    94 C    1.274    90 C    1.255    92 C    1.216
    94   6 C    3.957 --    93 C    1.274   125 C    1.247    97 C    1.220
    95   6 C    3.958 --    99 C    1.323    96 C    1.285    64 C    1.155
    96   6 C    3.978 --    95 C    1.285    97 C    1.250    91 C    1.218
    97   6 C    3.978 --    98 C    1.284    96 C    1.250    94 C    1.220
    98   6 C    3.957 --   100 C    1.324    97 C    1.284   129 C    1.154
    99   6 C    3.960 --   100 C    1.507    95 C    1.323   198 H    0.960
   100   6 C    3.961 --    99 C    1.507    98 C    1.324   199 H    0.960
   101   6 C    3.964 --   102 C    1.327   106 C    1.283    70 C    1.155
   102   6 C    3.953 --   103 C    1.498   101 C    1.327   181 H    0.960
   103   6 C    3.969 --   102 C    1.498   104 C    1.336   182 H    0.961
   104   6 C    3.947 --   103 C    1.336   107 C    1.284   135 C    1.137
   105   6 C    3.962 --   110 C    1.271    74 C    1.253   106 C    1.220
   106   6 C    3.976 --   101 C    1.283   107 C    1.250   105 C    1.220
   107   6 C    3.981 --   104 C    1.284   106 C    1.250   108 C    1.222
   108   6 C    3.937 --   111 C    1.280   139 C    1.230   107 C    1.222
   109   6 C    3.964 --   110 C    1.258    78 C    1.250   114 C    1.239
   110   6 C    3.957 --   105 C    1.271   109 C    1.258   111 C    1.215
   111   6 C    3.969 --   108 C    1.280   112 C    1.254   110 C    1.215
   112   6 C    3.949 --   111 C    1.254   115 C    1.247   143 C    1.238
   113   6 C    3.961 --   114 C    1.269   118 C    1.245    82 C    1.232
   114   6 C    3.953 --   113 C    1.269   109 C    1.239   115 C    1.235
   115   6 C    3.965 --   116 C    1.266   112 C    1.247   114 C    1.235
   116   6 C    3.950 --   115 C    1.266   119 C    1.254   147 C    1.220
   117   6 C    3.961 --   122 C    1.266   118 C    1.250    86 C    1.230
   118   6 C    3.957 --   117 C    1.250   119 C    1.249   113 C    1.245
   119   6 C    3.964 --   116 C    1.254   118 C    1.249   120 C    1.243
   120   6 C    3.956 --   123 C    1.279   119 C    1.243   151 C    1.218
   121   6 C    3.959 --   126 C    1.255    90 C    1.251   122 C    1.239
   122   6 C    3.952 --   117 C    1.266   121 C    1.239   123 C    1.236
   123   6 C    3.964 --   120 C    1.279   122 C    1.236   124 C    1.229
   124   6 C    3.961 --   155 C    1.279   127 C    1.237   123 C    1.229
   125   6 C    3.962 --   126 C    1.274    94 C    1.247   130 C    1.222
   126   6 C    3.958 --   125 C    1.274   121 C    1.255   127 C    1.214
   127   6 C    3.967 --   128 C    1.295   124 C    1.237   126 C    1.214
   128   6 C    3.949 --   127 C    1.295   158 C    1.226   131 C    1.214
   129   6 C    3.964 --   133 C    1.332   130 C    1.279    98 C    1.154
   130   6 C    3.977 --   129 C    1.279   131 C    1.253   125 C    1.222
   131   6 C    3.980 --   132 C    1.286   130 C    1.253   128 C    1.214
   132   6 C    3.952 --   134 C    1.339   131 C    1.286   162 C    1.136
   133   6 C    3.955 --   134 C    1.495   129 C    1.332   200 H    0.961
   134   6 C    3.969 --   133 C    1.495   132 C    1.339   201 H    0.961
   135   6 C    3.979 --   136 C    1.377   140 C    1.273   104 C    1.137
   136   6 C    3.886 --   137 C    1.392   135 C    1.377   183 H    0.962
   137   6 C    3.983 --   138 C    1.498   136 C    1.392   184 H    0.970
   138   6 C    3.892 --   137 C    1.498   141 C    1.276   185 H    0.969
   139   6 C    3.974 --   144 C    1.286   140 C    1.240   108 C    1.230
   140   6 C    3.945 --   135 C    1.273   139 C    1.240   141 C    1.217
   141   6 C    3.985 --   142 C    1.330   138 C    1.276   140 C    1.217
   142   6 C    3.782 --   145 C    1.334   141 C    1.330   186 H    0.966
   143   6 C    3.974 --   144 C    1.267   148 C    1.253   112 C    1.238
   144   6 C    3.951 --   139 C    1.286   143 C    1.267   145 C    1.176
   145   6 C    3.985 --   142 C    1.334   146 C    1.319   144 C    1.176
   146   6 C    3.762 --   149 C    1.336   145 C    1.319   187 H    0.966
   147   6 C    3.975 --   148 C    1.286   152 C    1.252   116 C    1.220
   148   6 C    3.941 --   147 C    1.286   143 C    1.253   149 C    1.185
   149   6 C    3.979 --   146 C    1.336   150 C    1.305   148 C    1.185
   150   6 C    3.825 --   153 C    1.377   149 C    1.305   188 H    0.966
   151   6 C    3.972 --   156 C    1.272   152 C    1.262   120 C    1.218
   152   6 C    3.935 --   151 C    1.262   147 C    1.252   153 C    1.209
   153   6 C    3.976 --   150 C    1.377   154 C    1.230   152 C    1.209
   154   6 C    3.936 --   157 C    1.540   153 C    1.230   189 H    0.959
   155   6 C    3.944 --   124 C    1.279   156 C    1.225   159 C    1.221
   156   6 C    3.917 --   151 C    1.272   155 C    1.225   157 C    1.210
   157   6 C    3.963 --   154 C    1.540   156 C    1.210   203 P    1.036
   158   6 C    3.975 --   159 C    1.290   163 C    1.232   128 C    1.226
   159   6 C    3.944 --   158 C    1.290   155 C    1.221   160 C    1.207
   160   6 C    3.976 --   161 C    1.544   159 C    1.207   203 P    1.036
   161   6 C    3.958 --   160 C    1.544   164 C    1.238   191 H    0.958
   162   6 C    3.982 --   166 C    1.388   163 C    1.263   132 C    1.136
   163   6 C    3.985 --   162 C    1.263   164 C    1.253   158 C    1.232
   164   6 C    3.984 --   165 C    1.318   163 C    1.253   161 C    1.238
   165   6 C    3.945 --   167 C    1.476   164 C    1.318   192 H    0.969
   166   6 C    3.944 --   167 C    1.409   162 C    1.388   202 H    0.962
   167   6 C    3.982 --   165 C    1.476   166 C    1.409   193 H    0.970
   168   1 H    0.998 --     1 C    0.962
   169   1 H    0.998 --     2 C    0.969
   170   1 H    0.998 --     3 C    0.961
   171   1 H    0.993 --   204 P    0.941
   172   1 H    0.998 --     8 C    0.958
   173   1 H    0.997 --    12 C    0.966
   174   1 H    0.997 --    16 C    0.958
   175   1 H    0.997 --    23 C    0.958
   176   1 H    0.998 --    27 C    0.968
   177   1 H    0.998 --    34 C    0.961
   178   1 H    0.998 --    35 C    0.960
   179   1 H    0.998 --    68 C    0.961
   180   1 H    0.998 --    69 C    0.960
   181   1 H    0.998 --   102 C    0.960
   182   1 H    0.998 --   103 C    0.961
   183   1 H    0.998 --   136 C    0.962
   184   1 H    0.998 --   137 C    0.970
   185   1 H    0.998 --   138 C    0.969
   186   1 H    0.998 --   142 C    0.966
   187   1 H    0.998 --   146 C    0.966
   188   1 H    0.998 --   150 C    0.966
   189   1 H    0.997 --   154 C    0.959
   190   1 H    0.994 --   203 P    0.943
   191   1 H    0.997 --   161 C    0.958
   192   1 H    0.998 --   165 C    0.969
   193   1 H    0.998 --   167 C    0.970
   194   1 H    0.998 --    31 C    0.970
   195   1 H    0.998 --    32 C    0.961
   196   1 H    0.998 --    65 C    0.960
   197   1 H    0.998 --    66 C    0.960
   198   1 H    0.998 --    99 C    0.960
   199   1 H    0.998 --   100 C    0.960
   200   1 H    0.998 --   133 C    0.961
   201   1 H    0.998 --   134 C    0.961
   202   1 H    0.998 --   166 C    0.962
   203  15 P    3.297 --   157 C    1.036   160 C    1.036   190 H    0.943
   204  15 P    3.304 --     5 C    1.039     9 C    1.036   171 H    0.941
   205  15 P    2.674 --    20 C    1.219    24 C    1.214
 ---------------------------------------------------------------------------

Topologies differ in total number of bonds
Writing topology from bond orders to xtbtopo.mol

molecular dipole:
                 x           y           z       tot (Debye)
 q only:        0.070       0.054       0.563
   full:        0.410       0.094       1.120       3.041
molecular quadrupole (traceless):
                xx          xy          yy          xz          yz          zz
 q only:       -1.303      -0.959      41.082      -0.619       0.053     -39.779
  q+dip:       24.672      -5.481      90.207      -2.957      -0.228    -114.879
   full:       -5.052      -5.422      60.858      -3.870       0.163     -55.806


           -------------------------------------------------
          | TOTAL ENERGY             -384.469780598333 Eh   |
          | GRADIENT NORM               0.000193487793 Eh/α |
          | HOMO-LUMO GAP               0.021538771879 eV   |
           -------------------------------------------------

------------------------------------------------------------------------
 * finished run on 2025/12/08 at 00:44:23.811     
------------------------------------------------------------------------
 total:
 * wall-time:     0 d,  0 h,  0 min,  0.880 sec
 *  cpu-time:     0 d,  0 h,  0 min, 11.734 sec
 * ratio c/w:    13.335 speedup
 SCF:
 * wall-time:     0 d,  0 h,  0 min,  0.754 sec
 *  cpu-time:     0 d,  0 h,  0 min, 10.312 sec
 * ratio c/w:    13.677 speedup

normal termination of xtb
