205
 energy: -384.442168922539 gnorm: 0.050144957459 xtb: 6.7.1pre (5071a88)
C          -11.23877900000000        6.92559500000000       -0.19693600000000
C          -10.79223200000000        8.07194500000000        0.46560400000000
C           -9.44278600000000        8.21923500000000        0.72028000000000
C           -8.51086400000000        7.21610300000000        0.37090200000000
C          -10.35228500000000        5.90343500000000       -0.51806500000000
C           -8.97130300000000        5.98711300000000       -0.18355000000000
C           -8.03490600000000        4.86117500000000       -0.33140100000000
C          -10.26260500000000        1.94128900000000       -1.16468400000000
C           -9.83358900000000        3.23047700000000       -1.03628600000000
C           -8.47405200000000        3.53456200000000       -0.64464800000000
C           -7.56181100000000        2.43312200000000       -0.53467900000000
C           -9.85647100000000       -0.47400100000000       -1.04466200000000
C           -9.39664400000000        0.83123900000000       -0.95579700000000
C           -8.01578800000000        1.08835600000000       -0.67738000000000
C           -7.12011200000000       -0.01071800000000       -0.53829100000000
C           -9.46017800000000       -2.88116900000000       -0.90334400000000
C           -8.99009400000000       -1.56650700000000       -0.85840200000000
C           -7.59662200000000       -1.34542300000000       -0.61111600000000
C           -6.71681900000000       -2.46405700000000       -0.43886500000000
C           -8.63629800000000       -3.98357400000000       -0.68400200000000
C           -7.21833700000000       -3.80189400000000       -0.44768600000000
C           -6.32289400000000       -4.91368100000000       -0.22357100000000
C           -8.59635000000000       -7.95349700000000       -0.13643400000000
C           -8.18171200000000       -6.63505400000000       -0.29590700000000
C           -6.78610200000000       -6.27838500000000       -0.12946500000000
C           -5.86285900000000       -7.33269800000000        0.14669100000000
C           -8.18205200000000      -10.31532800000000        0.36964800000000
C           -7.71358500000000       -8.99263600000000        0.18352300000000
C           -6.32169500000000       -8.68613900000000        0.31256100000000
C           -5.42226000000000       -9.74803700000000        0.60956700000000
C           -7.29466100000000      -11.32561800000000        0.68073400000000
C           -5.92931000000000      -11.04424300000000        0.79688500000000
C           -7.08420800000000        7.44571600000000        0.52823500000000
C           -6.58009000000000        8.72149900000000        0.85102100000000
C           -5.22918600000000        8.96531300000000        0.92811800000000
C           -4.28664400000000        7.94231700000000        0.70854100000000
C           -6.65341400000000        5.07553700000000       -0.04156300000000
C           -6.16958900000000        6.38887900000000        0.30415600000000
C           -4.76361600000000        6.63344300000000        0.42949200000000
C           -3.83087700000000        5.55580600000000        0.28053500000000
C           -6.17732700000000        2.66814500000000       -0.28199400000000
C           -5.71796200000000        3.99471500000000       -0.08993700000000
C           -4.31220600000000        4.23592400000000        0.08055400000000
C           -3.39085200000000        3.15162400000000        0.02695900000000
C           -5.73001500000000        0.23253200000000       -0.33193400000000
C           -5.26072300000000        1.56785700000000       -0.23710200000000
C           -3.86662900000000        1.81228500000000       -0.08753600000000
C           -2.95494000000000        0.72249800000000       -0.07965700000000
C           -5.31737000000000       -2.21358400000000       -0.26631200000000
C           -4.83065700000000       -0.86892900000000       -0.24040700000000
C           -3.43538900000000       -0.61774900000000       -0.12366100000000
C           -2.52409700000000       -1.71123600000000       -0.06311300000000
C           -4.91583100000000       -4.64934100000000       -0.08035100000000
C           -4.41899100000000       -3.30530100000000       -0.12750200000000
C           -3.01072300000000       -3.04602400000000       -0.03948300000000
C           -2.08870700000000       -4.12823000000000        0.08193800000000
C           -4.45962100000000       -7.05530900000000        0.25603200000000
C           -3.98957300000000       -5.72564800000000        0.12241900000000
C           -2.57318000000000       -5.46212400000000        0.18681100000000
C           -1.64921500000000       -6.52621500000000        0.36825600000000
C           -4.00031800000000       -9.45804600000000        0.69136000000000
C           -3.53383500000000       -8.12885900000000        0.50042300000000
C           -2.12865000000000       -7.86371300000000        0.54506400000000
C           -1.20837000000000       -8.92412600000000        0.76873700000000
C           -3.06380900000000      -10.47515600000000        0.94129200000000
C           -1.71310100000000      -10.21928700000000        0.97802700000000
C           -2.86002000000000        8.20351700000000        0.74404100000000
C           -2.34475700000000        9.50181800000000        0.93876700000000
C           -0.99111800000000        9.74963800000000        0.93648400000000
C           -0.05071600000000        8.71660000000000        0.74685200000000
C           -2.42988600000000        5.80308600000000        0.36647400000000
C           -1.94274800000000        7.13745500000000        0.56124400000000
C           -0.53445500000000        7.39279600000000        0.57355200000000
C            0.38816100000000        6.30935400000000        0.40540400000000
C           -1.99083100000000        3.39854500000000        0.11493100000000
C           -1.51003200000000        4.72966000000000        0.24421800000000
C           -0.09863900000000        4.98261400000000        0.27365700000000
C            0.81499000000000        3.90057200000000        0.14487800000000
C           -1.55101100000000        0.97488600000000       -0.01452400000000
C           -1.07151200000000        2.30914100000000        0.04639300000000
C            0.33165400000000        2.56074500000000        0.06471600000000
C            1.24547500000000        1.47841600000000       -0.02140200000000
C           -1.11754000000000       -1.45476300000000       -0.02919200000000
C           -0.63466200000000       -0.11419600000000       -0.03252300000000
C            0.76595800000000        0.13894600000000       -0.04314100000000
C            1.68622800000000       -0.94777100000000       -0.07297400000000
C           -0.68405500000000       -3.87240900000000        0.09541100000000
C           -0.19968300000000       -2.53429200000000        0.01695500000000
C            1.20627200000000       -2.27986300000000       -0.02129400000000
C            2.13266100000000       -3.36252500000000        0.02659000000000
C           -0.24228300000000       -6.26974400000000        0.37490900000000
C            0.23974100000000       -4.94752000000000        0.21796400000000
C            1.65373300000000       -4.69280600000000        0.17346300000000
C            2.57978400000000       -5.75730900000000        0.30611900000000
C            0.21688200000000       -8.66337000000000        0.76663700000000
C            0.69057900000000       -7.34389400000000        0.55584700000000
C            2.09868400000000       -7.08860600000000        0.52338700000000
C            3.01948400000000       -8.15190300000000        0.71169700000000
C            1.15885600000000       -9.69388400000000        0.95671900000000
C            2.51142300000000       -9.44687900000000        0.93163400000000
C            1.37775900000000        8.97625400000000        0.71318000000000
C            1.90408000000000       10.27556700000000        0.85481700000000
C            3.25987700000000       10.51981100000000        0.79616800000000
C            4.19010400000000        9.48424000000000        0.59297300000000
C            1.79195200000000        6.56222600000000        0.38526900000000
C            2.28654300000000        7.90217400000000        0.52031700000000
C            3.69503300000000        8.15661400000000        0.46154800000000
C            4.60205400000000        7.06565300000000        0.26309300000000
C            2.21560400000000        4.15245100000000        0.12137800000000
C            2.70033800000000        5.48634300000000        0.21743400000000
C            4.11073000000000        5.74053700000000        0.15675800000000
C            5.01450100000000        4.65643500000000       -0.02813800000000
C            2.65009100000000        1.73203400000000       -0.06870500000000
C            3.12842700000000        3.06562100000000       -0.02166500000000
C            4.52965100000000        3.31903800000000       -0.10138300000000
C            5.43469400000000        2.23931800000000       -0.27056500000000
C            3.09152300000000       -0.69510700000000       -0.15691000000000
C            3.56653000000000        0.64543900000000       -0.17580700000000
C            4.96160700000000        0.89836400000000       -0.29371000000000
C            5.87598500000000       -0.18904300000000       -0.43394200000000
C            3.53289000000000       -3.11241300000000       -0.07685900000000
C            4.01220800000000       -1.77558700000000       -0.19964800000000
C            5.41159600000000       -1.52517900000000       -0.36580900000000
C            6.34481900000000       -2.61353600000000       -0.42218300000000
C            3.98400100000000       -5.50545700000000        0.21830900000000
C            4.45990900000000       -4.18821800000000       -0.00798500000000
C            5.86873600000000       -3.94165600000000       -0.17214200000000
C            6.78625600000000       -5.01075800000000       -0.05056600000000
C            4.44522100000000       -7.89131100000000        0.66264200000000
C            4.91647100000000       -6.57993200000000        0.38538800000000
C            6.32104600000000       -6.32954700000000        0.27766500000000
C            7.24476700000000       -7.38930600000000        0.48614800000000
C            5.39086800000000       -8.91171800000000        0.87298700000000
C            6.74370200000000       -8.66619300000000        0.79209000000000
C            5.62560900000000        9.74097300000000        0.50855500000000
C            6.17156100000000       11.02923600000000        0.62608800000000
C            7.55144800000000       11.25703200000000        0.53066400000000
C            8.42216100000000       10.20721900000000        0.31366200000000
C            6.00837200000000        7.31522900000000        0.17480000000000
C            6.51083200000000        8.64722200000000        0.29153800000000
C            7.92679100000000        8.88373600000000        0.18909000000000
C            8.79479400000000        7.80210900000000       -0.03582200000000
C            6.41364100000000        4.90837100000000       -0.13177000000000
C            6.90232300000000        6.23775000000000       -0.03573600000000
C            8.32017400000000        6.48738400000000       -0.15306400000000
C            9.19263500000000        5.40850000000000       -0.38826200000000
C            6.83237900000000        2.49780900000000       -0.41140300000000
C            7.31444100000000        3.82765100000000       -0.34441700000000
C            8.72404000000000        4.09133300000000       -0.49302500000000
C            9.59265200000000        3.01272000000000       -0.75555000000000
C            7.26877000000000        0.06895600000000       -0.64711700000000
C            7.73207200000000        1.41801100000000       -0.63456900000000
C            9.12098300000000        1.70468100000000       -0.84161300000000
C            9.97955600000000        0.62337600000000       -1.17990600000000
C            7.72727100000000       -2.37434100000000       -0.70417000000000
C            8.17424600000000       -1.01008400000000       -0.87641700000000
C            9.52948300000000       -0.66796900000000       -1.23174400000000
C            8.18287600000000       -4.77999400000000       -0.27137200000000
C            8.64156400000000       -3.49842100000000       -0.68764800000000
C           10.03567800000000       -3.37147400000000       -1.03248700000000
C           10.92061000000000       -4.39135700000000       -0.81206300000000
C            8.67408200000000       -7.14331100000000        0.35759000000000
C            9.11326300000000       -5.85760600000000       -0.07146200000000
C           10.50645100000000       -5.64403300000000       -0.28815200000000
C           11.43525800000000       -6.67035600000000       -0.02877600000000
C            9.63299300000000       -8.13352700000000        0.62045700000000
C           10.99769200000000       -7.89921900000000        0.43655200000000
H          -12.28915400000000        6.83093000000000       -0.46141000000000
H          -11.49318600000000        8.85032600000000        0.75203900000000
H           -9.10519400000000        9.12576300000000        1.20609000000000
H          -12.11582100000000        4.17959400000000       -0.83024800000000
H          -11.29164300000000        1.73241300000000       -1.44955400000000
H          -10.90631500000000       -0.66193900000000       -1.25418200000000
H          -10.51949900000000       -3.04436900000000       -1.09031200000000
H           -9.65132100000000       -8.19152100000000       -0.25653900000000
H           -9.24492800000000      -10.51496900000000        0.26574400000000
H           -7.25435600000000        9.55324200000000        1.00814200000000
H           -4.90578600000000        9.97195000000000        1.16089600000000
H           -3.01310100000000       10.34174100000000        1.07971200000000
H           -0.66226700000000       10.77104500000000        1.08179400000000
H            1.24421400000000       11.12029500000000        1.00760900000000
H            3.59600900000000       11.54353300000000        0.90767000000000
H            5.52659200000000       11.88324100000000        0.79344100000000
H            7.93056100000000       12.26993000000000        0.62730800000000
H            9.49203200000000       10.37815300000000        0.23596200000000
H            9.86197700000000        7.98928600000000       -0.12084000000000
H           10.25673700000000        5.60285700000000       -0.49253700000000
H           10.65123400000000        3.20913000000000       -0.90329300000000
H           11.01307200000000        0.85227100000000       -1.42961300000000
H           11.80896500000000       -1.64875700000000       -1.27213500000000
H           11.97211800000000       -4.26516300000000       -1.06068600000000
H           12.49182500000000       -6.48300300000000       -0.19930300000000
H           11.71047900000000       -8.69030100000000        0.65018800000000
H           -7.64680600000000      -12.34195200000000        0.83149900000000
H           -5.26258200000000      -11.86299600000000        1.03527600000000
H           -3.39087100000000      -11.49457600000000        1.10059000000000
H           -1.04407400000000      -11.04856400000000        1.16755700000000
H            0.83407400000000      -10.71312200000000        1.12129800000000
H            3.18257400000000      -10.28393200000000        1.07553500000000
H            5.07098600000000       -9.92010400000000        1.10267200000000
H            7.42139800000000       -9.49548500000000        0.95197000000000
H            9.32699300000000       -9.10936600000000        0.97727400000000
P           10.60824900000000       -1.92732600000000       -1.97799800000000
P          -10.96343200000000        4.55389700000000       -1.57312400000000
P           -9.48999400000000       -5.52481900000000       -0.70904000000000
205
 energy: -384.457628012293 gnorm: 0.023999079604 xtb: 6.7.1pre (5071a88)
C          -11.21360243916574        6.90481399330052       -0.19783525900260
C          -10.77349886550111        8.04597530366883        0.46018388900003
C           -9.43022513655275        8.19428486057736        0.71321766414022
C           -8.49606512181621        7.19894621184947        0.36790115529317
C          -10.32744472510258        5.88336337335676       -0.50498742156983
C           -8.95036007934312        5.97194687042459       -0.18050495687189
C           -8.01867848473023        4.85461324407448       -0.32549810719337
C          -10.23901026514947        1.94420189718803       -1.15543656258023
C           -9.81144460418494        3.23169453614225       -1.01655045351491
C           -8.45625695120988        3.53278982829379       -0.63563762901604
C           -7.55026522420379        2.43225895519054       -0.52721930622929
C           -9.83366937454879       -0.47143678030018       -1.03901654050284
C           -9.37728787066747        0.83424699826068       -0.94886071624087
C           -8.00119532814769        1.08962729850666       -0.67155224022376
C           -7.10823252832617       -0.00889545646687       -0.53520371147497
C           -9.43358559779579       -2.87762855498103       -0.89615052524911
C           -8.96928902633646       -1.56171268982546       -0.85261164773173
C           -7.58051970612882       -1.34297500153144       -0.60734856847138
C           -6.70365776278562       -2.45999916980568       -0.43642750922267
C           -8.60500381911182       -3.97321064412465       -0.67749902108861
C           -7.19632207550500       -3.79643114091486       -0.44267421647348
C           -6.30653262285977       -4.90533360986041       -0.22134893734776
C           -8.57270136947290       -7.93679869703285       -0.13463608079254
C           -8.15146584990238       -6.62274725432797       -0.29001978612752
C           -6.76594300118638       -6.26453954367048       -0.12666537835460
C           -5.85118363450400       -7.31977868700103        0.14661378674228
C           -8.16371447209050      -10.29336651410235        0.36823105710105
C           -7.69492501411704       -8.97586484771230        0.18444768833889
C           -6.30924159443229       -8.66846474382467        0.31122895529606
C           -5.41452727376388       -9.72835598209252        0.60593947437579
C           -7.28227187253908      -11.29910422358416        0.67730526810931
C           -5.92479270945491      -11.01856881434048        0.79192552603873
C           -7.07405958692780        7.42927019686785        0.52319132103545
C           -6.56941496926640        8.70004327027070        0.84286083645029
C           -5.22313401488644        8.94262503666497        0.92021787728196
C           -4.27943845349470        7.92561436271466        0.70325385859802
C           -6.64209454885544        5.06785418658319       -0.03856155030508
C           -6.15903690049649        6.37705464795731        0.30143542089724
C           -4.75702787112398        6.62111272344036        0.42592537742959
C           -3.82492491872249        5.54767005338557        0.27931376481100
C           -6.16768372616786        2.66567732413344       -0.28095286425382
C           -5.70874337136619        3.98997834252757       -0.08815828729695
C           -4.30631112403633        4.23054877117532        0.07775755925995
C           -3.38657863949447        3.14781875010834        0.02938631012794
C           -5.72078857057718        0.23316204248615       -0.33168523085225
C           -5.25387356845028        1.56710639230555       -0.23442116147096
C           -3.86141857001068        1.81105632017315       -0.09004333062494
C           -2.95130790305944        0.72177363359593       -0.07769360814627
C           -5.30807731767180       -2.21002942701061       -0.26514071611231
C           -4.82416053766523       -0.86757866652162       -0.23900434254247
C           -3.43062609920672       -0.61672447331493       -0.12472147350970
C           -2.52068997316724       -1.70892303296689       -0.06345517137243
C           -4.90528627022602       -4.64196244936978       -0.07878609423358
C           -4.41102310990839       -3.30089682530503       -0.12761663620659
C           -3.00648743458308       -3.04217975596452       -0.03853633155818
C           -2.08578939023003       -4.12259935443016        0.08015959748668
C           -4.45233366212843       -7.04375802004845        0.25485276469978
C           -3.98228350550003       -5.71613670715465        0.12086453012713
C           -2.57037004805512       -5.45377816252946        0.18691720363239
C           -1.64760841409721       -6.51633725451507        0.36549981788709
C           -3.99724467031779       -9.43863173401501        0.68708089413473
C           -3.52993929700315       -8.11392463868700        0.49716052550223
C           -2.12804914283902       -7.84958920595768        0.54196229136914
C           -1.20846594716537       -8.90576226630833        0.76437415843243
C           -3.06224554700185      -10.45077183446976        0.93603553743535
C           -1.71583213871340      -10.19579982473337        0.97258846746012
C           -2.85598341234393        8.18586368399512        0.73993321158851
C           -2.33790065362778        9.47812267812002        0.93332101983557
C           -0.98866829425227        9.72484318694226        0.93146487851473
C           -0.04754734318847        8.69855657452664        0.74281934018608
C           -2.42620801548370        5.79481598921323        0.36322512102798
C           -1.93835982260637        7.12447724880187        0.55829183688841
C           -0.53300935286707        7.37927042591791        0.57016583069887
C            0.38898329169982        6.30008495375518        0.40455621992911
C           -1.98805163765699        3.39463756356477        0.11115450359670
C           -1.50683181580919        4.72303184966942        0.24517279664275
C           -0.09837645600374        4.97600283291696        0.26993446677975
C            0.81438056254846        3.89528137921519        0.14701821817642
C           -1.54940562178793        0.97376906870294       -0.01728974510704
C           -1.07015346354400        2.30654056853059        0.04895862209332
C            0.33111583025263        2.55816914953203        0.06141655849975
C            1.24431787316729        1.47635464339344       -0.01957159737053
C           -1.11669738156954       -1.45274750283533       -0.02851650297801
C           -0.63420336681197       -0.11414222153836       -0.03155315755930
C            0.76494591243525        0.13864854498410       -0.04334321655605
C            1.68427912778527       -0.94657664487753       -0.07373238677111
C           -0.68347780514308       -3.86701905349157        0.09755282310380
C           -0.19929185971960       -2.53142272707572        0.01516140108494
C            1.20438754027492       -2.27737909755016       -0.01842431002569
C            2.12959676173339       -3.35831498978070        0.02445940307281
C           -0.24311296514744       -6.26033945799179        0.37420275844611
C            0.23977254589902       -4.94044165510322        0.21502154295248
C            1.65070217159438       -4.68590628280275        0.17512920902736
C            2.57678543521624       -5.74867161368613        0.30323963706551
C            0.21392489824709       -8.64536153595665        0.76250566474624
C            0.68924952771115       -7.33003874468995        0.55240863857586
C            2.09458021851856       -7.07535709237290        0.52088937895108
C            3.01560929546946       -8.13412806285204        0.70778809581398
C            1.15641227104262       -9.66944944630075        0.95131595256705
C            2.50475792223990       -9.42341413022915        0.92608518603795
C            1.37761999212208        8.95805613538345        0.70989736934002
C            1.90675008164605       10.25153817718654        0.85057331521371
C            3.25784559485659       10.49483514753359        0.79242567527164
C            4.18723876001759        9.46529740928189        0.59001166573655
C            1.79051983642290        6.55308534695954        0.38248926726447
C            2.28595826401521        7.88837789873372        0.51790948614799
C            3.69097603575777        8.14235864531050        0.45920097090272
C            4.59574543860649        7.05508124544182        0.26217243573995
C            2.21316986597774        4.14719984774987        0.11820366074046
C            2.69814422126694        5.47845464565994        0.21789756962170
C            4.10505486797093        5.73219615318839        0.15455339096395
C            5.00705327055356        4.64965256580639       -0.02743712356818
C            2.64660528547739        1.72939706518442       -0.07034082965020
C            3.12465049580378        3.06161301829294       -0.01992938729761
C            4.52323476099544        3.31465112647109       -0.10291543784559
C            5.42671882493971        2.23516271794799       -0.26941657121757
C            3.08726589997567       -0.69463098718276       -0.15469983873070
C            3.56166739941425        0.64411700011214       -0.17500038465002
C            4.95490751968409        0.89601418367007       -0.29260155715270
C            5.86691317893218       -0.19046128771863       -0.43168934823514
C            3.52793220147324       -3.10822675761471       -0.07372375110375
C            4.00662992999419       -1.77409842319836       -0.20003824783496
C            5.40340315077505       -1.52489738022301       -0.36189802406748
C            6.33398396787755       -2.61083160677635       -0.41659250894124
C            3.97874889370368       -5.49711753840084        0.21803893577772
C            4.45418851379711       -4.18231684848427       -0.00972196302994
C            5.85906851678928       -3.93573882270906       -0.17000859610361
C            6.77556114050673       -5.00306765514354       -0.05104432199532
C            4.43854119843757       -7.87471930304029        0.65801470051295
C            4.91060632397116       -6.56757133463219        0.38195115995887
C            6.31172043484699       -6.31765477975428        0.27482557691726
C            7.23499116014026       -7.37262947607942        0.48143287825404
C            5.38495919679617       -8.88905015831952        0.86655747309576
C            6.73326532468254       -8.64439684915893        0.78565277599311
C            5.61707376466306        9.72394947203708        0.50681074342079
C            6.16370011958550       11.00696565759160        0.62370230909962
C            7.53548034948902       11.23241615910814        0.52893001034409
C            8.40049326952940       10.18763898209479        0.31312269070967
C            5.99808730989950        7.30500810539189        0.17404171539694
C            6.49837419929009        8.63357947314445        0.29058091748494
C            7.90731513490817        8.86887237010357        0.18904062058012
C            8.77210143331181        7.79026470485438       -0.03511617640265
C            6.40326953252766        4.90092899238869       -0.13243061584777
C            6.88959699282979        6.22860566857675       -0.03583416626155
C            8.30108213878860        6.47753281011102       -0.15235316693497
C            9.16912540313577        5.39985145143723       -0.38712604594584
C            6.82137050624465        2.49203384778323       -0.41103417727049
C            7.30083184240982        3.82058880807860       -0.34412518443395
C            8.70404741019414        4.08399346409171       -0.49188979527562
C            9.56846617420596        3.00601880940704       -0.75301532624808
C            7.25686889454748        0.06514823619923       -0.64013265768266
C            7.71747776878258        1.41161935218743       -0.63027507546898
C            9.10070554666211        1.69806599207788       -0.83650071995767
C            9.95430053791205        0.61633769478179       -1.17304294977334
C            7.71155443460880       -2.37274225661691       -0.69510499907932
C            8.15589888927019       -1.01451179907870       -0.86701713579031
C            9.50672453809776       -0.67519558211616       -1.21247176346738
C            8.16834298450675       -4.77121265761402       -0.26715885194322
C            8.62133058893267       -3.49108152668659       -0.67937302549701
C           10.01048755799633       -3.36160836918710       -1.01572680505474
C           10.89454724391395       -4.38294202297271       -0.80786829742351
C            8.65978658772323       -7.12792939935934        0.35260421252800
C            9.09583316724052       -5.84490022391222       -0.07143922169075
C           10.48399452351369       -5.63276699292148       -0.28673977413877
C           11.41013793736526       -6.65667824215426       -0.03101253545164
C            9.61890876980553       -8.11178555087667        0.61365274536130
C           10.97624065523872       -7.87865933685864        0.43171188991267
H          -12.25967822390892        6.81040308552021       -0.46711858222785
H          -11.47437787792969        8.82190868647302        0.74251848918657
H           -9.10117901208895        9.10119596399797        1.19719313295641
H          -12.06207119593454        4.18313859104456       -0.81099908950977
H          -11.26572641972552        1.74183917605499       -1.44371932758847
H          -10.87982896706306       -0.66026600438080       -1.24857620194243
H          -10.48866031533831       -3.04944611558661       -1.08535151086592
H           -9.62600405914251       -8.16903972848607       -0.25798286553455
H           -9.22248195806717      -10.49466956699595        0.26506967165620
H           -7.24048036640080        9.53023852302239        1.00468143248636