205
 energy: -384.469780596795 gnorm: 0.000193472668 xtb: 6.7.1pre (5071a88)
C          -11.15510927807631        6.81012961117814       -0.12146980769266
C          -10.73485517306931        7.90947528936126        0.60993622231115
C           -9.39389647667623        8.07209437472893        0.85946875165974
C           -8.44870348223346        7.12260706163276        0.44670340041418
C          -10.25359801090471        5.82785469304497       -0.48747398164849
C           -8.88621831470688        5.91973861028516       -0.15461403735184
C           -7.95600162147533        4.82477539430986       -0.32855248566711
C          -10.16033998426334        1.94365105381865       -1.23961134758067
C           -9.72821368622558        3.22459079123411       -1.07519357667228
C           -8.39022080303879        3.51520652669037       -0.66454309133143
C           -7.49519512247647        2.41858564340173       -0.54859820271791
C           -9.76673889289782       -0.46563079256981       -1.13530666281685
C           -9.31134750108863        0.83566887505051       -1.02023546253830
C           -7.94640578347998        1.08558976736268       -0.71128489597299
C           -7.05947967226787       -0.00711678658597       -0.56701462361747
C           -9.36172491784745       -2.86366207073951       -1.02481646241745
C           -8.90616248626107       -1.54985706518547       -0.94294783053897
C           -7.52875917113152       -1.33428455109732       -0.66223033670669
C           -6.65681598050150       -2.44282121221510       -0.48467530909512
C           -8.53203527006638       -3.95140153848914       -0.79855065854096
C           -7.14204803127538       -3.77443490720104       -0.51546462238268
C           -6.25951859923397       -4.87184657091868       -0.27371049252871
C           -8.52148044837321       -7.88236502007845       -0.21354366368260
C           -8.08955454109656       -6.57814114957725       -0.38724902624383
C           -6.72040886523675       -6.21924357950345       -0.17876415426875
C           -5.81975158004199       -7.26619907187441        0.14071815789413
C           -8.13828330947231      -10.21027556708447        0.39533983171827
C           -7.66006877222004       -8.90715710982203        0.17645532540741
C           -6.28277505762994       -8.60030014690273        0.33307622939432
C           -5.40028615829787       -9.64780839534652        0.68554464626882
C           -7.27014201170509      -11.20360057538744        0.76757363022765
C           -5.91797026826590      -10.92438948947494        0.90547982616419
C           -7.03557725979228        7.37200756792039        0.58064621377432
C           -6.54161305173675        8.64184139030876        0.90377751190772
C           -5.19852646251628        8.89601537326242        0.95212361527073
C           -4.25453075647190        7.88935443571173        0.71269848766417
C           -6.59153317686439        5.03707773759200       -0.02867525228630
C           -6.11751117996319        6.33681693575458        0.32668649526872
C           -4.72463705391121        6.58742678144254        0.43709047263529
C           -3.79626299368439        5.52159763816662        0.28308300321486
C           -6.12229404896806        2.65001734059732       -0.28565751772580
C           -5.66374147030468        3.96645265441480       -0.08473684506268
C           -4.27273318853942        4.20869246343377        0.08365666093238
C           -3.35925162371603        3.13157605614769        0.04056277175900
C           -5.68192431216091        0.23324962797947       -0.34225249845044
C           -5.21588701919630        1.55912280057061       -0.23354053477016
C           -3.83229686032484        1.80312962884776       -0.08066587488230
C           -2.92846547460354        0.71932179311484       -0.06298878486846
C           -5.27198176540903       -2.19352841588124       -0.28655187783832
C           -4.79106798671109       -0.86042038792533       -0.24487740373916
C           -3.40590289827830       -0.61051600332821       -0.11753348819267
C           -2.50199621364530       -1.69616500446328       -0.05523860408762
C           -4.86995641519718       -4.61059083672805       -0.10406059055499
C           -4.37909198496193       -3.27804795380738       -0.14423760065529
C           -2.98533222709796       -3.02223220169794       -0.03979414492503
C           -2.07161102931440       -4.09762811284001        0.07869090059373
C           -4.42877253276775       -6.99629908295423        0.26296816242679
C           -3.95601341989807       -5.67799989361846        0.11131843922170
C           -2.55460631958601       -5.42119576011427        0.18311690859959
C           -1.63957257901901       -6.48154792618423        0.36368453795690
C           -3.98946660294109       -9.36657827369336        0.77662057842408
C           -3.51724633341624       -8.05797615000034        0.53549177319182
C           -2.12110289608757       -7.80317120852736        0.56167863649246
C           -1.20896549936247       -8.85627952078371        0.79468791569148
C           -3.06482620863265      -10.36746368584238        1.08548149984747
C           -1.71846903266822      -10.12380688844939        1.09028372907824
C           -2.83995530715296        8.15308938448232        0.72995670459819
C           -2.32736114342806        9.44533388116578        0.90439309656298
C           -0.98172573852303        9.69193711374906        0.89456836270955
C           -0.04528178579238        8.66467000484767        0.71900752851019
C           -2.40650168520213        5.76987944456511        0.36342296179338
C           -1.92464012373861        7.09489849480186        0.55060268184313
C           -0.52729929555303        7.34825466386156        0.55747435447313
C            0.39016082521145        6.27267910320375        0.40103882389565
C           -1.96950027031169        3.37876386856480        0.12273954927297
C           -1.49175083764994        4.70128703563302        0.25202191275896
C           -0.09319380565931        4.95293245837103        0.27450961927787
C            0.81402708645564        3.87588894603597        0.16071933529453
C           -1.53602589549093        0.97022767647787        0.00138567175873
C           -1.05862356401280        2.29598869105602        0.06822209930453
C            0.33363726893099        2.54638610055229        0.07954412046576
C            1.24050924826804        1.46855081015520        0.00292685345767
C           -1.10797662854050       -1.44237527111607       -0.01288324108692
C           -0.62775669923728       -0.11217568029931       -0.01044559869918
C            0.76278480236874        0.13883635239596       -0.02123997338016
C            1.67425331416611       -0.94145747571303       -0.05571459108480
C           -0.67849669917459       -3.84554850031657        0.10279413042659
C           -0.19720433409007       -2.51741937080056        0.02651695042975
C            1.19631200182908       -2.26597164387683       -0.00467900538770
C            2.11308806793184       -3.34329052046999        0.02811867923039
C           -0.24350166374697       -6.23095141031640        0.37026226186329
C            0.23734959551744       -4.91622908036909        0.21400774952183
C            1.63748258252249       -4.66522037841757        0.17303288489175
C            2.55704009299146       -5.72742091204095        0.28655910289401
C            0.20636302232778       -8.61177886768925        0.73267987384296
C            0.68120313862491       -7.30003020432065        0.53086187033166
C            2.07835250253239       -7.05030022126018        0.48834370404063
C            2.99458789666744       -8.11177502959653        0.64588742364434
C            1.14111884160395       -9.64830150632308        0.84320966354724
C            2.48710080881578       -9.40700146980035        0.80191882658950
C            1.37131542943618        8.92022151323992        0.68901340467971
C            1.89588505944472       10.21076215527446        0.82730191431783
C            3.24374830002239       10.45043232288851        0.77405522853029
C            4.16814032691688        9.41963170335693        0.57913941837258
C            1.78411242109398        6.52291683706961        0.37761994651865
C            2.27617134646422        7.85190447798228        0.50625405391350
C            3.67428096275584        8.10151819458906        0.45096187018260
C            4.57499641376924        7.01776365022554        0.26085078390906
C            2.20514483054858        4.12557721431952        0.12876655556395
C            2.68762198390784        5.45038240516390        0.22203254856284
C            4.08637034248056        5.70008943788898        0.15731908403672
C            4.98417358328222        4.62198694744507       -0.02032671807982
C            2.63353760263389        1.71925334828493       -0.05135459214515
C            3.11053522163484        3.04473247009685       -0.00391266789204
C            4.50125016281639        3.29460256682865       -0.09181969187675
C            5.39883450702200        2.21930673922144       -0.25980999013265
C            3.06698136234567       -0.69155572169793       -0.13909294400494
C            3.54086752344205        0.63908955383400       -0.15807239070032
C            4.92613355337410        0.88841934681240       -0.28183870838662
C            5.82892022484905       -0.19268905055373       -0.43096723501912
C            3.50158516357432       -3.09459413699917       -0.07275355983906
C            3.97796515311530       -1.76745083759200       -0.19445287145088
C            5.36382158062920       -1.51989174561962       -0.36343575516949
C            6.28460250494013       -2.60087086248892       -0.42841663136616
C            3.94973491456936       -5.47679509508554        0.20047354600334
C            4.42064679230634       -4.16538677154859       -0.01914909483116
C            5.81391667994371       -3.91811790388272       -0.17994912340725
C            6.72786523984563       -4.97869215300276       -0.05565535656609
C            4.40905956587450       -7.84808153383326        0.62395343210618
C            4.87679066000124       -6.54177706620001        0.36243019066582
C            6.27014282234292       -6.28621440024857        0.27397161036944
C            7.19328313884832       -7.32935315253070        0.50250641853898
C            5.35254286092100       -8.85378981151134        0.85803498276796
C            6.69782730949779       -8.60000835105402        0.80661178244205
C            5.58993209008338        9.67390528152507        0.50197715467187
C            6.13193797007284       10.95402834800823        0.62123122775503
C            7.50049200312242       11.17627889089401        0.53130224049578
C            8.36414366796231       10.13259448765341        0.31818525092842
C            5.97102264036045        7.26367566272406        0.17408664915453
C            6.46905779583135        8.58667175626403        0.28995233841302
C            7.87250630514069        8.81831090822901        0.19265248585271
C            8.73708922103354        7.74391662215957       -0.02997371311301
C            6.37446231927515        4.86939754163309       -0.12907449149958
C            6.86034631462804        6.19078987685062       -0.03381526342391
C            8.26629549440028        6.43587997105964       -0.15013154054231
C            9.13158754981952        5.36302550555706       -0.38977497963529
C            6.78609911768987        2.47210736640666       -0.40993748830518
C            7.26731531851949        3.79351689852798       -0.34428726230908
C            8.66432261156950        4.05279116275486       -0.49939443216893
C            9.52251206498582        2.98050023319889       -0.77635972298198
C            7.20962411668195        0.05925979849601       -0.65130314116738
C            7.67425280255801        1.39605903195684       -0.64126523860142
C            9.04989444960017        1.67862748867164       -0.86550988759108
C            9.88749287363810        0.60203894328221       -1.22994992069575
C            7.65029201019452       -2.36478625705403       -0.72025881377794
C            8.09543682606066       -1.01756720643242       -0.89738176027955
C            9.43161299482683       -0.68413150780408       -1.26555301905433
C            8.11172585589751       -4.74289539541428       -0.27204835203016
C            8.55469075876666       -3.47252064351626       -0.70567968082657
C            9.93084756176947       -3.34296005659400       -1.05643138830618
C           10.82203422154217       -4.35021346151389       -0.83002468801501
C            8.60996341048531       -7.07142794212808        0.39515001518317
C            9.03972135077268       -5.79959925484657       -0.05469180097177
C           10.42211869438497       -5.58063271884915       -0.26930637859070
C           11.35270261152607       -6.58371962850998        0.02626931836107
C            9.57151163528252       -8.03294962806295        0.69992252213930
C           10.92558390668163       -7.78980797323261        0.52788685467722
H          -12.19404164838450        6.70336222118118       -0.40327355027481
H          -11.44848077453135        8.64566567499683        0.94862610922571
H           -9.07327408295462        8.94995778455533        1.39605380618772
H          -11.94895078146615        4.13952177265231       -0.83168709061252
H          -11.17918565018179        1.75770090681556       -1.55468888135042
H          -10.80391588327081       -0.65309695551367       -1.37236062801512
H          -10.40419591531167       -3.04656172764478       -1.25064912835449
H           -9.56745638825797       -8.10732483360140       -0.37696067518236
H           -9.19245692498112      -10.40614541502717        0.26793269508828
H           -7.22045289625800        9.45865679252675        1.08596186366343
H           -4.88034414178683        9.89861410569096        1.18558165041799
H           -2.99326710666143       10.28198613381273        1.03749537783204
H           -0.65464574454278       10.71032695740201        1.02481924500192
H            1.24016701194747       11.05274629124699        0.97633630087269
H            3.58049803405832       11.46830182825758        0.88379969828590
H            5.49386353658651       11.80647825044913        0.78661123853363
H            7.87957533038785       12.18328527888902        0.62900392507764
H            9.42850587977460       10.30044229566940        0.24401563028451
H            9.79832746475542        7.93131410849155       -0.11153037961254
H           10.18965291910050        5.55589583433876       -0.49501337626176
H           10.57390169452144        3.17465578008650       -0.93337713778376
H           10.91200964851540        0.81348586156130       -1.50826916938093
H           11.64657596768712       -1.65251110112677       -1.25364522864932
H           11.86233043900691       -4.21494322803552       -1.09715193391993
H           12.40238684252477       -6.39216595585420       -0.14112676452970
H           11.64079365937317       -8.55988126120541        0.77757425527058
H           -7.62818908744555      -12.20674554397508        0.94679391344591
H           -5.26716340441873      -11.73504207147282        1.18774347119396
H           -3.39840492012384      -11.36492656209322        1.31813875291878
H           -1.05561130073352      -10.93728246407233        1.33406062273826
H            0.81343376331204      -10.66902949767490        0.95108112173079
H            3.15529774067547      -10.24849316331333        0.88188549100670
H            5.03532831623758       -9.85647301433302        1.09263372354598
H            7.37579934246755       -9.41725979088976        0.99052999989867
H            9.27670657708963       -8.99526164829945        1.08546869108299
P           10.50643922495195       -1.92583556557882       -2.01981022527417
P          -10.85098022548929        4.53996636220662       -1.60465424349689
P           -9.38282909615930       -5.49056033134640       -0.88786367791606
