      -----------------------------------------------------------      
     |                   =====================                   |     
     |                           x T B                           |     
     |                   =====================                   |     
     |                         S. Grimme                         |     
     |          Mulliken Center for Theoretical Chemistry        |     
     |                    University of Bonn                     |     
      -----------------------------------------------------------      

   * xtb version 6.7.1pre (5071a88) compiled by 'Marcel@Raven' on 2024-07-23

   xtb is free software: you can redistribute it and/or modify it under
   the terms of the GNU Lesser General Public License as published by
   the Free Software Foundation, either version 3 of the License, or
   (at your option) any later version.
   
   xtb is distributed in the hope that it will be useful,
   but WITHOUT ANY WARRANTY; without even the implied warranty of
   MERCHANTABILITY or FITNESS FOR A PARTICULAR PURPOSE.  See the
   GNU Lesser General Public License for more details.
   
   Cite this work as:
   * C. Bannwarth, E. Caldeweyher, S. Ehlert, A. Hansen, P. Pracht,
     J. Seibert, S. Spicher, S. Grimme, WIREs Comput. Mol. Sci., 2020, 11,
     e01493. DOI: 10.1002/wcms.1493
   
   for GFN2-xTB:
   * C. Bannwarth, S. Ehlert and S. Grimme., J. Chem. Theory Comput., 2019,
     15, 1652-1671. DOI: 10.1021/acs.jctc.8b01176
   for GFN1-xTB:
   * S. Grimme, C. Bannwarth, P. Shushkov, J. Chem. Theory Comput., 2017,
     13, 1989-2009. DOI: 10.1021/acs.jctc.7b00118
   for GFN0-xTB:
   * P. Pracht, E. Caldeweyher, S. Ehlert, S. Grimme, ChemRxiv, 2019, preprint.
     DOI: 10.26434/chemrxiv.8326202.v1
   for GFN-FF:
   * S. Spicher and S. Grimme, Angew. Chem. Int. Ed., 2020, 59, 15665-15673.
     DOI: 10.1002/anie.202004239
   
   for ALPB and GBSA implicit solvation:
   * S. Ehlert, M. Stahn, S. Spicher, S. Grimme, J. Chem. Theory Comput.,
     2021, 17, 4250-4261. DOI: 10.1021/acs.jctc.1c00471
   
   for ddCOSMO and CPCM-X implicit solvation:
   * M. Stahn, S. Ehlert, S. Grimme, J. Phys. Chem. A,
     2023, XX, XXXX-XXXX. DOI: 10.1021/acs.jpca.3c04382
   
   for DFT-D4:
   * E. Caldeweyher, C. Bannwarth and S. Grimme, J. Chem. Phys., 2017,
     147, 034112. DOI: 10.1063/1.4993215
   * E. Caldeweyher, S. Ehlert, A. Hansen, H. Neugebauer, S. Spicher,
     C. Bannwarth and S. Grimme, J. Chem. Phys., 2019, 150, 154122.
     DOI: 10.1063/1.5090222
   * E. Caldeweyher, J.-M. Mewes, S. Ehlert and S. Grimme, Phys. Chem. Chem. Phys.
     2020, 22, 8499-8512. DOI: 10.1039/D0CP00502A
   
   for sTDA-xTB:
   * S. Grimme and C. Bannwarth, J. Chem. Phys., 2016, 145, 054103.
     DOI: 10.1063/1.4959605
   
   in the mass-spec context:
   * V. Asgeirsson, C. Bauer and S. Grimme, Chem. Sci., 2017, 8, 4879.
     DOI: 10.1039/c7sc00601b
   * J. Koopman and S. Grimme, ACS Omega 2019, 4, 12, 15120-15133.
     DOI: 10.1021/acsomega.9b02011
   
   for metadynamics refer to:
   * S. Grimme, J. Chem. Theory Comput., 2019, 155, 2847-2862
     DOI: 10.1021/acs.jctc.9b00143
   
   for SPH calculations refer to:
   * S. Spicher and S. Grimme, J. Chem. Theory Comput., 2021, 17, 1701-1714
     DOI: 10.1021/acs.jctc.0c01306
   
   for ONIOM refer to:
   * C. Plett, A. Katbashev, S. Ehlert, S. Grimme, M. Bursch,
     Phys. Chem. Chem. Phys., 2023, 25, 17860-17868. DOI: 10.1039/D3CP02178E
   
   for DIPRO refer to:
   * J. Kohn, N. Gildemeister, S. Grimme, D. Fazzi, A. Hansen,
     J. Chem. Phys., 2023, just accepted.
   
   for PTB refer to:
   * S. Grimme, M. Mueller, A. Hansen, J. Chem. Phys., 2023, 158, 124111.
     DOI: 10.1063/5.0137838
   
   with help from (in alphabetical order)
   P. Atkinson, C. Bannwarth, F. Bohle, G. Brandenburg, E. Caldeweyher
   M. Checinski, S. Dohm, S. Ehlert, S. Ehrlich, I. Gerasimov, C. Hölzer
   A. Katbashev, J. Kohn, J. Koopman, C. Lavigne, S. Lehtola, F. März, M. Müller,
   F. Musil, H. Neugebauer, J. Pisarek, C. Plett, P. Pracht, F. Pultar,
   J. Seibert, P. Shushkov, S. Spicher, M. Stahn, M. Steiner, T. Strunk,
   J. Stückrath, T. Rose, and J. Unsleber
   
 * started run on 2025/12/08 at 00:49:44.144     
   ID    Z sym.   atoms
    1    6 C      1-165
    2    1 H      166-197
    3   16 S      198-202

           -------------------------------------------------
          |                Calculation Setup                |
           -------------------------------------------------

          program call               : xtb "C:\Users\LENOVO GAMING\Documents\GitHub\molecular-conductivity-sim\results\2nm-5Sdoped-3percent\xtbopt.xyz" --sp
          coordinate file            : C:\Users\LENOVO GAMING\Documents\GitHub\molecular-conductivity-sim\results\2nm-5Sdoped-3percent\xtbopt.xyz
          omp threads                :                    16


           -------------------------------------------------
          |                 G F N 2 - x T B                 |
           -------------------------------------------------

        Reference                      10.1021/acs.jctc.8b01176
      * Hamiltonian:
        H0-scaling (s, p, d)           1.850000    2.230000    2.230000
        zeta-weighting                 0.500000
      * Dispersion:
        s8                             2.700000
        a1                             0.520000
        a2                             5.000000
        s9                             5.000000
      * Repulsion:
        kExp                           1.500000    1.000000
        rExp                           1.000000
      * Coulomb:
        alpha                          2.000000
        third order                    shell-resolved
        anisotropic                    true
        a3                             3.000000
        a5                             4.000000
        cn-shift                       1.200000
        cn-exp                         4.000000
        max-rad                        5.000000

q/qsh data taken from xtbrestart
CAMM data taken from xtbrestart

          ...................................................
          :                      SETUP                      :
          :.................................................:
          :  # basis functions                 742          :
          :  # atomic orbitals                 737          :
          :  # shells                          377          :
          :  # electrons                       722          :
          :  max. iterations                   250          :
          :  Hamiltonian                  GFN2-xTB          :
          :  restarted?                       true          :
          :  GBSA solvation                  false          :
          :  PC potential                    false          :
          :  electronic temp.          300.0000000     K    :
          :  accuracy                    1.0000000          :
          :  -> integral cutoff          0.2500000E+02      :
          :  -> integral neglect         0.1000000E-07      :
          :  -> SCF convergence          0.1000000E-05 Eh   :
          :  -> wf. convergence          0.1000000E-03 e    :
          :  Broyden damping             0.4000000          :
          :  net charge                          0          :
          :  unpaired electrons                  0          :
          ...................................................

 iter      E             dE          RMSdq      gap      omega  full diag
   1   -394.6460685 -0.394646E+03  0.552E-06    0.43       0.0  T
   2   -394.6460685  0.318323E-11  0.583E-06    0.43    1207.2  T
   3   -394.6460685 -0.108571E-10  0.209E-06    0.43    3361.3  T

   *** convergence criteria satisfied after 3 iterations ***

         #    Occupation            Energy/Eh            Energy/eV
      -------------------------------------------------------------
         1        2.0000           -0.7621824             -20.7400
       ...           ...                  ...                  ...
       355        2.0000           -0.3677316             -10.0065
       356        2.0000           -0.3577554              -9.7350
       357        2.0000           -0.3549303              -9.6581
       358        2.0000           -0.3528740              -9.6022
       359        2.0000           -0.3497366              -9.5168
       360        2.0000           -0.3434329              -9.3453
       361        1.9995           -0.3335013              -9.0750 (HOMO)
       362        0.0005           -0.3178523              -8.6492 (LUMO)
       363                         -0.2995092              -8.1501
       364                         -0.2959062              -8.0520
       365                         -0.2919893              -7.9454
       366                         -0.2816172              -7.6632
       ...                                ...                  ...
       737                          0.7861648              21.3926
      -------------------------------------------------------------
                  HL-Gap            0.0156490 Eh            0.4258 eV
             Fermi-level           -0.3256768 Eh           -8.8621 eV

 SCC (total)                   0 d,  0 h,  0 min,  0.726 sec
 SCC setup                      ...        0 min,  0.002 sec (  0.275%)
 Dispersion                     ...        0 min,  0.022 sec (  3.030%)
 classical contributions        ...        0 min,  0.000 sec (  0.000%)
 integral evaluation            ...        0 min,  0.057 sec (  7.851%)
 iterations                     ...        0 min,  0.455 sec ( 62.672%)
 molecular gradient             ...        0 min,  0.180 sec ( 24.793%)
 printout                       ...        0 min,  0.010 sec (  1.377%)

         :::::::::::::::::::::::::::::::::::::::::::::::::::::
         ::                     SUMMARY                     ::
         :::::::::::::::::::::::::::::::::::::::::::::::::::::
         :: total energy            -387.275144733006 Eh    ::
         :: gradient norm              0.000273277553 Eh/a0 ::
         :: HOMO-LUMO gap              0.425831181968 eV    ::
         ::.................................................::
         :: SCC energy              -394.662177625831 Eh    ::
         :: -> isotropic ES            0.008159589532 Eh    ::
         :: -> anisotropic ES          0.014043180812 Eh    ::
         :: -> anisotropic XC          0.131769772131 Eh    ::
         :: -> dispersion             -0.506492248076 Eh    ::
         :: repulsion energy           7.387032892825 Eh    ::
         :: add. restraining           0.000000000000 Eh    ::
         :: total charge              -0.000000000000 e     ::
         :::::::::::::::::::::::::::::::::::::::::::::::::::::

           -------------------------------------------------
          |                Property Printout                |
           -------------------------------------------------

    * Orbital Energies and Occupations

         #    Occupation            Energy/Eh            Energy/eV
      -------------------------------------------------------------
         1        2.0000           -0.7621824             -20.7400
       ...           ...                  ...                  ...
       349        2.0000           -0.3870613             -10.5325
       350        2.0000           -0.3853530             -10.4860
       351        2.0000           -0.3846842             -10.4678
       352        2.0000           -0.3821176             -10.3980
       353        2.0000           -0.3705204             -10.0824
       354        2.0000           -0.3682925             -10.0217
       355        2.0000           -0.3677316             -10.0065
       356        2.0000           -0.3577554              -9.7350
       357        2.0000           -0.3549303              -9.6581
       358        2.0000           -0.3528740              -9.6022
       359        2.0000           -0.3497366              -9.5168
       360        2.0000           -0.3434329              -9.3453
       361        1.9995           -0.3335013              -9.0750 (HOMO)
       362        0.0005           -0.3178523              -8.6492 (LUMO)
       363                         -0.2995092              -8.1501
       364                         -0.2959062              -8.0520
       365                         -0.2919893              -7.9454
       366                         -0.2816172              -7.6632
       367                         -0.2788459              -7.5878
       368                         -0.2774299              -7.5493
       369                         -0.2689019              -7.3172
       370                         -0.2685389              -7.3073
       371                         -0.2648127              -7.2059
       372                         -0.2638286              -7.1791
       ...                                ...                  ...
       737                          0.7861648              21.3926
      -------------------------------------------------------------
                  HL-Gap            0.0156490 Eh            0.4258 eV
             Fermi-level           -0.3256768 Eh           -8.8621 eV

     #   Z          covCN         q      C6AA      α(0)
     1   6 C        3.026    -0.043    29.041     8.839
     2   6 C        2.916    -0.029    28.714     8.787
     3   6 C        2.925    -0.042    29.054     8.840
     4   6 C        2.984     0.007    27.861     8.658
     5   6 C        2.972     0.047    26.939     8.514
     6   6 C        3.003    -0.000    28.018     8.683
     7   6 C        2.971     0.004    27.928     8.668
     8   6 C        3.031    -0.055    29.338     8.884
     9   6 C        2.964     0.045    26.996     8.522
    10   6 C        2.999     0.001    28.001     8.680
    11   6 C        2.990     0.001    28.005     8.681
    12   6 C        2.926    -0.047    29.177     8.858
    13   6 C        2.983     0.014    27.701     8.633
    14   6 C        2.993    -0.003    28.093     8.694
    15   6 C        2.991     0.003    27.954     8.673
    16   6 C        3.029    -0.053    29.295     8.878
    17   6 C        2.984     0.014    27.701     8.633
    18   6 C        2.994    -0.004    28.115     8.698
    19   6 C        2.991     0.001    27.987     8.678
    20   6 C        2.966     0.046    26.961     8.517
    21   6 C        3.001    -0.001    28.045     8.687
    22   6 C        2.973     0.004    27.925     8.668
    23   6 C        3.030    -0.053    29.291     8.877
    24   6 C        2.965     0.045    26.990     8.522
    25   6 C        3.001    -0.000    28.026     8.684
    26   6 C        2.988     0.001    27.997     8.679
    27   6 C        2.923    -0.037    28.930     8.820
    28   6 C        2.988     0.013    27.710     8.635
    29   6 C        2.994    -0.001    28.048     8.688
    30   6 C        2.978     0.007    27.859     8.658
    31   6 C        2.914    -0.029    28.718     8.787
    32   6 C        2.923    -0.038    28.949     8.823
    33   6 C        2.982     0.004    27.927     8.669
    34   6 C        2.920    -0.037    28.920     8.819
    35   6 C        2.920    -0.037    28.926     8.820
    36   6 C        2.984     0.006    27.892     8.663
    37   6 C        2.984    -0.002    28.062     8.690
    38   6 C        2.989     0.002    27.973     8.676
    39   6 C        2.992    -0.000    28.028     8.684
    40   6 C        2.987     0.001    28.000     8.680
    41   6 C        2.989     0.000    28.018     8.683
    42   6 C        2.986     0.001    28.003     8.681
    43   6 C        2.988     0.001    28.006     8.681
    44   6 C        2.991    -0.000    28.022     8.683
    45   6 C        2.992     0.001    27.997     8.680
    46   6 C        2.990    -0.000    28.022     8.683
    47   6 C        2.992    -0.000    28.025     8.684
    48   6 C        2.992    -0.000    28.021     8.683
    49   6 C        2.989     0.000    28.009     8.681
    50   6 C        2.990    -0.000    28.023     8.684
    51   6 C        2.993    -0.000    28.020     8.683
    52   6 C        2.991     0.000    28.016     8.682
    53   6 C        2.985    -0.002    28.059     8.689
    54   6 C        2.987     0.001    28.001     8.680
    55   6 C        2.990     0.000    28.017     8.683
    56   6 C        2.990     0.000    28.015     8.682
    57   6 C        2.986     0.001    28.008     8.681
    58   6 C        2.985     0.000    28.012     8.682
    59   6 C        2.988    -0.000    28.024     8.684
    60   6 C        2.987     0.000    28.015     8.682
    61   6 C        2.980     0.005    27.902     8.665
    62   6 C        2.989     0.001    27.987     8.678
    63   6 C        2.991     0.002    27.983     8.677
    64   6 C        2.981     0.005    27.908     8.666
    65   6 C        2.920    -0.037    28.909     8.817
    66   6 C        2.920    -0.037    28.908     8.817
    67   6 C        2.983     0.001    28.002     8.680
    68   6 C        2.919    -0.036    28.887     8.814
    69   6 C        2.925    -0.039    28.977     8.828
    70   6 C        3.018     0.002    27.969     8.675
    71   6 C        2.986    -0.002    28.070     8.691
    72   6 C        2.989     0.004    27.930     8.669
    73   6 C        2.978    -0.016    28.414     8.744
    74   6 C        3.017    -0.001    28.030     8.684
    75   6 C        2.991    -0.000    28.029     8.684
    76   6 C        2.988     0.001    28.007     8.681
    77   6 C        2.994     0.001    28.001     8.680
    78   6 C        2.988    -0.003    28.080     8.692
    79   6 C        2.992     0.000    28.008     8.681
    80   6 C        2.991     0.000    28.019     8.683
    81   6 C        2.992    -0.001    28.039     8.686
    82   6 C        2.992     0.000    28.015     8.682
    83   6 C        2.992    -0.000    28.025     8.684
    84   6 C        2.992     0.000    28.018     8.683
    85   6 C        2.993     0.000    28.017     8.683
    86   6 C        2.992     0.000    28.018     8.683
    87   6 C        2.991    -0.000    28.029     8.685
    88   6 C        2.992     0.000    28.011     8.682
    89   6 C        2.992     0.000    28.013     8.682
    90   6 C        2.991    -0.000    28.030     8.685
    91   6 C        2.987     0.000    28.017     8.683
    92   6 C        2.989     0.000    28.017     8.683
    93   6 C        2.990    -0.000    28.023     8.684
    94   6 C        2.988     0.000    28.018     8.683
    95   6 C        2.981     0.005    27.906     8.665
    96   6 C        2.991     0.001    27.986     8.678
    97   6 C        2.991     0.001    27.986     8.678
    98   6 C        2.981     0.005    27.904     8.665
    99   6 C        2.919    -0.037    28.909     8.817
   100   6 C        2.919    -0.036    28.907     8.817
   101   6 C        2.957    -0.028    28.700     8.787
   102   6 C        2.969    -0.037    28.915     8.820
   103   6 C        2.910    -0.076    29.894     8.965
   104   6 C        3.021     0.005    27.890     8.663
   105   6 C        2.977    -0.018    28.458     8.751
   106   6 C        2.975    -0.025    28.631     8.777
   107   6 C        3.020    -0.001    28.037     8.686
   108   6 C        2.999     0.001    27.991     8.679
   109   6 C        3.036    -0.001    28.016     8.682
   110   6 C        2.976    -0.022    28.546     8.764
   111   6 C        2.985     0.001    27.997     8.680
   112   6 C        2.992    -0.000    28.027     8.684
   113   6 C        2.992     0.000    28.014     8.682
   114   6 C        2.989    -0.002    28.066     8.690
   115   6 C        2.991     0.001    27.989     8.678
   116   6 C        2.992    -0.000    28.028     8.684
   117   6 C        2.993    -0.000    28.023     8.684
   118   6 C        2.990     0.000    28.017     8.683
   119   6 C        2.990     0.001    28.000     8.680
   120   6 C        2.991     0.000    28.015     8.682
   121   6 C        2.990    -0.000    28.021     8.683
   122   6 C        2.988     0.001    28.007     8.681
   123   6 C        2.986    -0.002    28.064     8.690
   124   6 C        2.988     0.000    28.017     8.683
   125   6 C        2.989     0.000    28.020     8.683
   126   6 C        2.986     0.000    28.016     8.682
   127   6 C        2.987     0.000    28.017     8.683
   128   6 C        2.981     0.005    27.911     8.666
   129   6 C        2.992     0.002    27.983     8.677
   130   6 C        2.989     0.001    27.988     8.678
   131   6 C        2.981     0.005    27.903     8.665
   132   6 C        2.919    -0.037    28.909     8.817
   133   6 C        2.919    -0.036    28.906     8.817
   134   6 C        2.985     0.007    27.856     8.658
   135   6 C        2.923    -0.038    28.942     8.822
   136   6 C        2.914    -0.029    28.722     8.788
   137   6 C        2.924    -0.038    28.938     8.822
   138   6 C        2.993    -0.002    28.058     8.689
   139   6 C        2.991    -0.004    28.103     8.696
   140   6 C        2.988     0.014    27.701     8.634
   141   6 C        3.038    -0.054    29.309     8.880
   142   6 C        2.972    -0.002    28.061     8.689
   143   6 C        2.998     0.001    27.995     8.679
   144   6 C        2.965     0.044    26.999     8.523
   145   6 C        2.993    -0.001    28.040     8.686
   146   6 C        3.001    -0.002    28.060     8.689
   147   6 C        2.968     0.047    26.951     8.515
   148   6 C        3.033    -0.054    29.308     8.880
   149   6 C        2.992     0.002    27.983     8.677
   150   6 C        2.994    -0.007    28.173     8.707
   151   6 C        2.989     0.014    27.700     8.633
   152   6 C        3.034    -0.054    29.295     8.878
   153   6 C        2.973     0.004    27.919     8.667
   154   6 C        3.000    -0.003    28.080     8.692
   155   6 C        2.967     0.046    26.957     8.516
   156   6 C        2.989     0.001    27.999     8.680
   157   6 C        3.001    -0.000    28.023     8.684
   158   6 C        2.965     0.044    27.000     8.523
   159   6 C        3.029    -0.054    29.319     8.882
   160   6 C        2.978     0.007    27.861     8.658
   161   6 C        2.995    -0.001    28.049     8.688
   162   6 C        2.988     0.013    27.707     8.635
   163   6 C        2.922    -0.038    28.940     8.822
   164   6 C        2.923    -0.038    28.957     8.825
   165   6 C        2.914    -0.029    28.718     8.788
   166   1 H        0.926     0.043     2.415     2.430
   167   1 H        0.926     0.037     2.484     2.465
   168   1 H        0.926     0.039     2.466     2.456
   169   1 H        0.926     0.041     2.434     2.440
   170   1 H        0.926     0.036     2.496     2.471
   171   1 H        0.926     0.042     2.421     2.433
   172   1 H        0.926     0.041     2.430     2.438
   173   1 H        0.926     0.034     2.527     2.486
   174   1 H        0.926     0.035     2.516     2.481
   175   1 H        0.926     0.035     2.523     2.484
   176   1 H        0.926     0.036     2.503     2.474
   177   1 H        0.926     0.032     2.560     2.502
   178   1 H        0.926     0.043     2.412     2.429
   179   1 H        0.926     0.029     2.608     2.525
   180   1 H        0.926     0.037     2.490     2.468
   181   1 H        0.926     0.033     2.543     2.494
   182   1 H        0.926     0.035     2.512     2.479
   183   1 H        0.926     0.042     2.423     2.434
   184   1 H        0.926     0.043     2.405     2.425
   185   1 H        0.926     0.043     2.404     2.425
   186   1 H        0.926     0.041     2.437     2.441
   187   1 H        0.926     0.034     2.531     2.488
   188   1 H        0.926     0.032     2.565     2.504
   189   1 H        0.926     0.032     2.562     2.503
   190   1 H        0.926     0.034     2.532     2.488
   191   1 H        0.926     0.035     2.517     2.481
   192   1 H        0.926     0.035     2.522     2.483
   193   1 H        0.926     0.034     2.527     2.486
   194   1 H        0.926     0.034     2.526     2.485
   195   1 H        0.926     0.034     2.525     2.485
   196   1 H        0.926     0.035     2.517     2.481
   197   1 H        0.926     0.034     2.537     2.491
   198  16 S        2.226    -0.115   145.856    20.327
   199  16 S        2.229    -0.108   145.576    20.307
   200  16 S        2.236    -0.108   145.561    20.306
   201  16 S        3.253     0.189   133.584    19.453
   202  16 S        2.225    -0.106   145.505    20.302

 Mol. C6AA /au·bohr⁶  :     971644.623667
 Mol. C8AA /au·bohr⁸  :   28110492.177279
 Mol. α(0) /au        :       1615.851224


Wiberg/Mayer (AO) data.
largest (>0.10) Wiberg bond orders for each atom

 ---------------------------------------------------------------------------
     #   Z sym  total        # sym  WBO       # sym  WBO       # sym  WBO
 ---------------------------------------------------------------------------
     1   6 C    3.971 --     5 C    1.415     2 C    1.403   166 H    0.967
     2   6 C    3.977 --     3 C    1.471     1 C    1.403   167 H    0.969
     3   6 C    3.975 --     2 C    1.471     4 C    1.346   168 H    0.959
     4   6 C    3.974 --     3 C    1.346     6 C    1.280    33 C    1.147
     5   6 C    3.953 --     1 C    1.415     6 C    1.301   202 S    1.061
     6   6 C    3.977 --     5 C    1.301     4 C    1.280     7 C    1.168
     7   6 C    3.948 --    37 C    1.287    10 C    1.273     6 C    1.168
     8   6 C    3.951 --     9 C    1.531    13 C    1.234   169 H    0.964
     9   6 C    3.945 --     8 C    1.531    10 C    1.204   202 S    1.053
    10   6 C    3.947 --     7 C    1.273    11 C    1.253     9 C    1.204
    11   6 C    3.973 --    10 C    1.253    14 C    1.251    41 C    1.240
    12   6 C    3.902 --    13 C    1.367    17 C    1.342   170 H    0.966
    13   6 C    3.977 --    12 C    1.367     8 C    1.234    14 C    1.212
    14   6 C    3.959 --    15 C    1.270    11 C    1.251    13 C    1.212
    15   6 C    3.979 --    14 C    1.270    18 C    1.266    45 C    1.221
    16   6 C    3.938 --    20 C    1.509    17 C    1.250   171 H    0.964
    17   6 C    3.976 --    12 C    1.342    16 C    1.250    18 C    1.219
    18   6 C    3.961 --    15 C    1.266    19 C    1.248    17 C    1.219
    19   6 C    3.974 --    21 C    1.274    18 C    1.248    49 C    1.224
    20   6 C    3.946 --    16 C    1.509    21 C    1.224   198 S    1.054
    21   6 C    3.933 --    19 C    1.274    22 C    1.225    20 C    1.224
    22   6 C    3.949 --    53 C    1.274    25 C    1.232    21 C    1.225
    23   6 C    3.953 --    24 C    1.520    28 C    1.247   172 H    0.964
    24   6 C    3.957 --    23 C    1.520    25 C    1.217   198 S    1.051
    25   6 C    3.947 --    26 C    1.281    22 C    1.232    24 C    1.217
    26   6 C    3.974 --    25 C    1.281    29 C    1.234    57 C    1.229
    27   6 C    3.945 --    31 C    1.479    28 C    1.313   173 H    0.969
    28   6 C    3.984 --    27 C    1.313    29 C    1.249    23 C    1.247
    29   6 C    3.983 --    30 C    1.264    28 C    1.249    26 C    1.234
    30   6 C    3.982 --    32 C    1.387    29 C    1.264    61 C    1.136
    31   6 C    3.982 --    27 C    1.479    32 C    1.407   189 H    0.970
    32   6 C    3.939 --    31 C    1.407    30 C    1.387   190 H    0.961
    33   6 C    3.960 --    34 C    1.318    38 C    1.295     4 C    1.147
    34   6 C    3.963 --    35 C    1.515    33 C    1.318   174 H    0.958
    35   6 C    3.960 --    34 C    1.515    36 C    1.317   175 H    0.961
    36   6 C    3.959 --    35 C    1.317    39 C    1.284    67 C    1.160
    37   6 C    3.966 --     7 C    1.287    42 C    1.251    38 C    1.204
    38   6 C    3.980 --    33 C    1.295    39 C    1.254    37 C    1.204
    39   6 C    3.972 --    36 C    1.284    38 C    1.254    40 C    1.212
    40   6 C    3.956 --    43 C    1.270    71 C    1.259    39 C    1.212
    41   6 C    3.967 --    42 C    1.276    11 C    1.240    46 C    1.228
    42   6 C    3.965 --    41 C    1.276    37 C    1.251    43 C    1.217
    43   6 C    3.958 --    40 C    1.270    44 C    1.256    42 C    1.217
    44   6 C    3.964 --    43 C    1.256    75 C    1.252    47 C    1.238
    45   6 C    3.953 --    46 C    1.272    50 C    1.250    15 C    1.221
    46   6 C    3.963 --    45 C    1.272    47 C    1.244    41 C    1.228
    47   6 C    3.957 --    48 C    1.262    46 C    1.244    44 C    1.238
    48   6 C    3.960 --    47 C    1.262    51 C    1.250    79 C    1.233
    49   6 C    3.958 --    54 C    1.275    50 C    1.242    19 C    1.224
    50   6 C    3.963 --    51 C    1.253    45 C    1.250    49 C    1.242
    51   6 C    3.960 --    50 C    1.253    48 C    1.250    52 C    1.243
    52   6 C    3.961 --    55 C    1.269    51 C    1.243    83 C    1.233
    53   6 C    3.965 --    22 C    1.274    58 C    1.236    54 C    1.234
    54   6 C    3.964 --    49 C    1.275    55 C    1.235    53 C    1.234
    55   6 C    3.953 --    52 C    1.269    56 C    1.237    54 C    1.235
    56   6 C    3.960 --    59 C    1.256    87 C    1.253    55 C    1.237
    57   6 C    3.954 --    58 C    1.296    26 C    1.229    62 C    1.212
    58   6 C    3.968 --    57 C    1.296    53 C    1.236    59 C    1.214
    59   6 C    3.958 --    60 C    1.273    56 C    1.256    58 C    1.214
    60   6 C    3.962 --    59 C    1.273    91 C    1.248    63 C    1.222
    61   6 C    3.954 --    65 C    1.338    62 C    1.287    30 C    1.136
    62   6 C    3.980 --    61 C    1.287    63 C    1.254    57 C    1.212
    63   6 C    3.978 --    64 C    1.278    62 C    1.254    60 C    1.222
    64   6 C    3.964 --    66 C    1.332    63 C    1.278    95 C    1.154
    65   6 C    3.969 --    66 C    1.496    61 C    1.338   191 H    0.960
    66   6 C    3.957 --    65 C    1.496    64 C    1.332   192 H    0.960
    67   6 C    3.948 --    68 C    1.323    72 C    1.269    36 C    1.160
    68   6 C    3.956 --    69 C    1.506    67 C    1.323   176 H    0.960
    69   6 C    3.959 --    68 C    1.506    70 C    1.307   177 H    0.964
    70   6 C    3.953 --    69 C    1.307    73 C    1.258   101 C    1.182
    71   6 C    3.953 --    76 C    1.267    40 C    1.259    72 C    1.210
    72   6 C    3.979 --    73 C    1.278    67 C    1.269    71 C    1.210
    73   6 C    3.966 --    72 C    1.278    70 C    1.258    74 C    1.169
    74   6 C    3.954 --   105 C    1.315    77 C    1.259    73 C    1.169
    75   6 C    3.961 --    76 C    1.258    44 C    1.252    80 C    1.235
    76   6 C    3.959 --    71 C    1.267    75 C    1.258    77 C    1.218
    77   6 C    3.961 --    74 C    1.259    78 C    1.253    76 C    1.218
    78   6 C    3.969 --   108 C    1.260    77 C    1.253    81 C    1.235
    79   6 C    3.957 --    80 C    1.265    84 C    1.246    48 C    1.233
    80   6 C    3.958 --    79 C    1.265    81 C    1.243    75 C    1.235
    81   6 C    3.956 --    82 C    1.264    80 C    1.243    78 C    1.235
    82   6 C    3.959 --    81 C    1.264    85 C    1.247   112 C    1.234
    83   6 C    3.958 --    88 C    1.266    84 C    1.245    52 C    1.233
    84   6 C    3.961 --    85 C    1.254    79 C    1.246    83 C    1.245
    85   6 C    3.959 --    84 C    1.254    82 C    1.247    86 C    1.244
    86   6 C    3.958 --    89 C    1.267    85 C    1.244   116 C    1.233
    87   6 C    3.961 --    92 C    1.253    56 C    1.253    88 C    1.239
    88   6 C    3.958 --    83 C    1.266    87 C    1.239    89 C    1.239
    89   6 C    3.957 --    86 C    1.267    88 C    1.239    90 C    1.238
    90   6 C    3.962 --   120 C    1.254    93 C    1.253    89 C    1.238
    91   6 C    3.957 --    92 C    1.275    60 C    1.248    96 C    1.218
    92   6 C    3.961 --    91 C    1.275    87 C    1.253    93 C    1.216
    93   6 C    3.960 --    94 C    1.275    90 C    1.253    92 C    1.216
    94   6 C    3.958 --    93 C    1.275   124 C    1.249    97 C    1.218
    95   6 C    3.958 --    99 C    1.323    96 C    1.285    64 C    1.154
    96   6 C    3.978 --    95 C    1.285    97 C    1.251    91 C    1.218
    97   6 C    3.978 --    98 C    1.285    96 C    1.251    94 C    1.218
    98   6 C    3.958 --   100 C    1.323    97 C    1.285   128 C    1.154
    99   6 C    3.961 --   100 C    1.508    95 C    1.323   193 H    0.960
   100   6 C    3.961 --    99 C    1.508    98 C    1.323   194 H    0.960
   101   6 C    3.856 --   102 C    1.456    70 C    1.182   201 S    0.954
   102   6 C    3.958 --   101 C    1.456   103 C    1.384   178 H    0.949
   103   6 C    3.918 --   102 C    1.384   104 C    1.328   179 H    0.961
   104   6 C    3.957 --   103 C    1.328   106 C    1.314   134 C    1.117
   105   6 C    3.887 --   109 C    1.319    74 C    1.315   201 S    0.968
   106   6 C    3.880 --   104 C    1.314   107 C    1.309   201 S    0.961
   107   6 C    3.957 --   106 C    1.309   110 C    1.231   138 C    1.197
   108   6 C    3.959 --    78 C    1.260   109 C    1.240   113 C    1.231
   109   6 C    3.958 --   105 C    1.319   108 C    1.240   110 C    1.184
   110   6 C    3.952 --   111 C    1.273   107 C    1.231   109 C    1.184
   111   6 C    3.972 --   110 C    1.273   142 C    1.262   114 C    1.214
   112   6 C    3.960 --   113 C    1.265   117 C    1.244    82 C    1.234
   113   6 C    3.956 --   112 C    1.265   114 C    1.245   108 C    1.231
   114   6 C    3.957 --   115 C    1.279   113 C    1.245   111 C    1.214
   115   6 C    3.958 --   114 C    1.279   118 C    1.240   145 C    1.225
   116   6 C    3.960 --   121 C    1.269   117 C    1.243    86 C    1.233
   117   6 C    3.963 --   118 C    1.260   112 C    1.244   116 C    1.243
   118   6 C    3.960 --   117 C    1.260   119 C    1.243   115 C    1.240
   119   6 C    3.957 --   122 C    1.275   118 C    1.243   149 C    1.225
   120   6 C    3.960 --   125 C    1.258    90 C    1.254   121 C    1.233
   121   6 C    3.955 --   116 C    1.269   122 C    1.240   120 C    1.233
   122   6 C    3.961 --   119 C    1.275   121 C    1.240   123 C    1.228
   123   6 C    3.968 --   153 C    1.280   126 C    1.236   122 C    1.228
   124   6 C    3.961 --   125 C    1.272    94 C    1.249   129 C    1.221
   125   6 C    3.958 --   124 C    1.272   120 C    1.258   126 C    1.213
   126   6 C    3.968 --   127 C    1.296   123 C    1.236   125 C    1.213
   127   6 C    3.958 --   126 C    1.296   156 C    1.232   130 C    1.210
   128   6 C    3.964 --   132 C    1.331   129 C    1.279    98 C    1.154
   129   6 C    3.978 --   128 C    1.279   130 C    1.254   124 C    1.221
   130   6 C    3.981 --   131 C    1.289   129 C    1.254   127 C    1.210
   131   6 C    3.955 --   133 C    1.336   130 C    1.289   160 C    1.137
   132   6 C    3.957 --   133 C    1.497   128 C    1.331   195 H    0.960
   133   6 C    3.969 --   132 C    1.497   131 C    1.336   196 H    0.961
   134   6 C    3.980 --   135 C    1.393   139 C    1.262   104 C    1.117
   135   6 C    3.941 --   136 C    1.402   134 C    1.393   180 H    0.961
   136   6 C    3.980 --   137 C    1.482   135 C    1.402   181 H    0.970
   137   6 C    3.947 --   136 C    1.482   140 C    1.311   182 H    0.968
   138   6 C    3.970 --   143 C    1.287   139 C    1.239   107 C    1.197
   139   6 C    3.983 --   134 C    1.262   140 C    1.248   138 C    1.239
   140   6 C    3.983 --   137 C    1.311   141 C    1.250   139 C    1.248
   141   6 C    3.954 --   144 C    1.517   140 C    1.250   183 H    0.963
   142   6 C    3.932 --   111 C    1.262   143 C    1.229   146 C    1.225
   143   6 C    3.947 --   138 C    1.287   142 C    1.229   144 C    1.216
   144   6 C    3.956 --   141 C    1.517   143 C    1.216   200 S    1.053
   145   6 C    3.964 --   146 C    1.267   150 C    1.249   115 C    1.225
   146   6 C    3.942 --   145 C    1.267   147 C    1.235   142 C    1.225
   147   6 C    3.942 --   148 C    1.488   146 C    1.235   200 S    1.059
   148   6 C    3.950 --   147 C    1.488   151 C    1.273   184 H    0.964
   149   6 C    3.972 --   154 C    1.273   150 C    1.248   119 C    1.225
   150   6 C    3.974 --   145 C    1.249   149 C    1.248   151 C    1.242
   151   6 C    3.970 --   152 C    1.284   148 C    1.273   150 C    1.242
   152   6 C    3.950 --   155 C    1.476   151 C    1.284   185 H    0.964
   153   6 C    3.950 --   123 C    1.280   157 C    1.242   154 C    1.209
   154   6 C    3.945 --   149 C    1.273   155 C    1.245   153 C    1.209
   155   6 C    3.941 --   152 C    1.476   154 C    1.245   199 S    1.059
   156   6 C    3.973 --   157 C    1.276   161 C    1.234   127 C    1.232
   157   6 C    3.950 --   156 C    1.276   153 C    1.242   158 C    1.213
   158   6 C    3.957 --   159 C    1.522   157 C    1.213   199 S    1.053
   159   6 C    3.955 --   158 C    1.522   162 C    1.245   186 H    0.964
   160   6 C    3.982 --   164 C    1.386   161 C    1.264   131 C    1.137
   161   6 C    3.982 --   160 C    1.264   162 C    1.249   156 C    1.234
   162   6 C    3.984 --   163 C    1.315   161 C    1.249   159 C    1.245
   163   6 C    3.946 --   165 C    1.477   162 C    1.315   187 H    0.969
   164   6 C    3.940 --   165 C    1.409   160 C    1.386   197 H    0.962
   165   6 C    3.982 --   163 C    1.477   164 C    1.409   188 H    0.970
   166   1 H    0.997 --     1 C    0.967
   167   1 H    0.997 --     2 C    0.969
   168   1 H    0.997 --     3 C    0.959
   169   1 H    0.997 --     8 C    0.964
   170   1 H    0.997 --    12 C    0.966
   171   1 H    0.997 --    16 C    0.964
   172   1 H    0.997 --    23 C    0.964
   173   1 H    0.998 --    27 C    0.969
   174   1 H    0.998 --    34 C    0.958
   175   1 H    0.997 --    35 C    0.961
   176   1 H    0.997 --    68 C    0.960
   177   1 H    0.998 --    69 C    0.964
   178   1 H    0.996 --   102 C    0.949
   179   1 H    0.998 --   103 C    0.961
   180   1 H    0.998 --   135 C    0.961
   181   1 H    0.997 --   136 C    0.970
   182   1 H    0.998 --   137 C    0.968
   183   1 H    0.997 --   141 C    0.963
   184   1 H    0.997 --   148 C    0.964
   185   1 H    0.997 --   152 C    0.964
   186   1 H    0.997 --   159 C    0.964
   187   1 H    0.998 --   163 C    0.969
   188   1 H    0.998 --   165 C    0.970
   189   1 H    0.998 --    31 C    0.970
   190   1 H    0.998 --    32 C    0.961
   191   1 H    0.998 --    65 C    0.960
   192   1 H    0.998 --    66 C    0.960
   193   1 H    0.998 --    99 C    0.960
   194   1 H    0.998 --   100 C    0.960
   195   1 H    0.998 --   132 C    0.960
   196   1 H    0.998 --   133 C    0.961
   197   1 H    0.998 --   164 C    0.962
   198  16 S    2.414 --    20 C    1.054    24 C    1.051
   199  16 S    2.422 --   155 C    1.059   158 C    1.053
   200  16 S    2.420 --   147 C    1.059   144 C    1.053
   201  16 S    3.170 --   105 C    0.968   106 C    0.961   101 C    0.954
   202  16 S    2.436 --     5 C    1.061     9 C    1.053
 ---------------------------------------------------------------------------

Topologies differ in total number of bonds
Writing topology from bond orders to xtbtopo.mol

molecular dipole:
                 x           y           z       tot (Debye)
 q only:       -0.085      -0.245      -1.081
   full:       -0.136      -0.314      -1.113       2.959
molecular quadrupole (traceless):
                xx          xy          yy          xz          yz          zz
 q only:      -45.385      -3.505      65.678      -2.611       5.198     -20.293
  q+dip:      -37.200      -4.646     116.514       0.110      -1.359     -79.314
   full:      -64.988      -4.648      90.542       0.513      -0.200     -25.555


           -------------------------------------------------
          | TOTAL ENERGY             -387.275144733006 Eh   |
          | GRADIENT NORM               0.000273277553 Eh/α |
          | HOMO-LUMO GAP               0.425831181968 eV   |
           -------------------------------------------------

------------------------------------------------------------------------
 * finished run on 2025/12/08 at 00:49:45.007     
------------------------------------------------------------------------
 total:
 * wall-time:     0 d,  0 h,  0 min,  0.860 sec
 *  cpu-time:     0 d,  0 h,  0 min, 12.062 sec
 * ratio c/w:    14.026 speedup
 SCF:
 * wall-time:     0 d,  0 h,  0 min,  0.733 sec
 *  cpu-time:     0 d,  0 h,  0 min, 10.609 sec
 * ratio c/w:    14.474 speedup

normal termination of xtb
