      -----------------------------------------------------------      
     |                   =====================                   |     
     |                           x T B                           |     
     |                   =====================                   |     
     |                         S. Grimme                         |     
     |          Mulliken Center for Theoretical Chemistry        |     
     |                    University of Bonn                     |     
      -----------------------------------------------------------      

   * xtb version 6.7.1pre (5071a88) compiled by 'Marcel@Raven' on 2024-07-23

   xtb is free software: you can redistribute it and/or modify it under
   the terms of the GNU Lesser General Public License as published by
   the Free Software Foundation, either version 3 of the License, or
   (at your option) any later version.
   
   xtb is distributed in the hope that it will be useful,
   but WITHOUT ANY WARRANTY; without even the implied warranty of
   MERCHANTABILITY or FITNESS FOR A PARTICULAR PURPOSE.  See the
   GNU Lesser General Public License for more details.
   
   Cite this work as:
   * C. Bannwarth, E. Caldeweyher, S. Ehlert, A. Hansen, P. Pracht,
     J. Seibert, S. Spicher, S. Grimme, WIREs Comput. Mol. Sci., 2020, 11,
     e01493. DOI: 10.1002/wcms.1493
   
   for GFN2-xTB:
   * C. Bannwarth, S. Ehlert and S. Grimme., J. Chem. Theory Comput., 2019,
     15, 1652-1671. DOI: 10.1021/acs.jctc.8b01176
   for GFN1-xTB:
   * S. Grimme, C. Bannwarth, P. Shushkov, J. Chem. Theory Comput., 2017,
     13, 1989-2009. DOI: 10.1021/acs.jctc.7b00118
   for GFN0-xTB:
   * P. Pracht, E. Caldeweyher, S. Ehlert, S. Grimme, ChemRxiv, 2019, preprint.
     DOI: 10.26434/chemrxiv.8326202.v1
   for GFN-FF:
   * S. Spicher and S. Grimme, Angew. Chem. Int. Ed., 2020, 59, 15665-15673.
     DOI: 10.1002/anie.202004239
   
   for ALPB and GBSA implicit solvation:
   * S. Ehlert, M. Stahn, S. Spicher, S. Grimme, J. Chem. Theory Comput.,
     2021, 17, 4250-4261. DOI: 10.1021/acs.jctc.1c00471
   
   for ddCOSMO and CPCM-X implicit solvation:
   * M. Stahn, S. Ehlert, S. Grimme, J. Phys. Chem. A,
     2023, XX, XXXX-XXXX. DOI: 10.1021/acs.jpca.3c04382
   
   for DFT-D4:
   * E. Caldeweyher, C. Bannwarth and S. Grimme, J. Chem. Phys., 2017,
     147, 034112. DOI: 10.1063/1.4993215
   * E. Caldeweyher, S. Ehlert, A. Hansen, H. Neugebauer, S. Spicher,
     C. Bannwarth and S. Grimme, J. Chem. Phys., 2019, 150, 154122.
     DOI: 10.1063/1.5090222
   * E. Caldeweyher, J.-M. Mewes, S. Ehlert and S. Grimme, Phys. Chem. Chem. Phys.
     2020, 22, 8499-8512. DOI: 10.1039/D0CP00502A
   
   for sTDA-xTB:
   * S. Grimme and C. Bannwarth, J. Chem. Phys., 2016, 145, 054103.
     DOI: 10.1063/1.4959605
   
   in the mass-spec context:
   * V. Asgeirsson, C. Bauer and S. Grimme, Chem. Sci., 2017, 8, 4879.
     DOI: 10.1039/c7sc00601b
   * J. Koopman and S. Grimme, ACS Omega 2019, 4, 12, 15120-15133.
     DOI: 10.1021/acsomega.9b02011
   
   for metadynamics refer to:
   * S. Grimme, J. Chem. Theory Comput., 2019, 155, 2847-2862
     DOI: 10.1021/acs.jctc.9b00143
   
   for SPH calculations refer to:
   * S. Spicher and S. Grimme, J. Chem. Theory Comput., 2021, 17, 1701-1714
     DOI: 10.1021/acs.jctc.0c01306
   
   for ONIOM refer to:
   * C. Plett, A. Katbashev, S. Ehlert, S. Grimme, M. Bursch,
     Phys. Chem. Chem. Phys., 2023, 25, 17860-17868. DOI: 10.1039/D3CP02178E
   
   for DIPRO refer to:
   * J. Kohn, N. Gildemeister, S. Grimme, D. Fazzi, A. Hansen,
     J. Chem. Phys., 2023, just accepted.
   
   for PTB refer to:
   * S. Grimme, M. Mueller, A. Hansen, J. Chem. Phys., 2023, 158, 124111.
     DOI: 10.1063/5.0137838
   
   with help from (in alphabetical order)
   P. Atkinson, C. Bannwarth, F. Bohle, G. Brandenburg, E. Caldeweyher
   M. Checinski, S. Dohm, S. Ehlert, S. Ehrlich, I. Gerasimov, C. Hölzer
   A. Katbashev, J. Kohn, J. Koopman, C. Lavigne, S. Lehtola, F. März, M. Müller,
   F. Musil, H. Neugebauer, J. Pisarek, C. Plett, P. Pracht, F. Pultar,
   J. Seibert, P. Shushkov, S. Spicher, M. Stahn, M. Steiner, T. Strunk,
   J. Stückrath, T. Rose, and J. Unsleber
   
 * started run on 2025/12/08 at 00:49:01.230     
   ID    Z sym.   atoms
    1    6 C      1-165
    2    1 H      166-197
    3   16 S      198-202

           -------------------------------------------------
          |                Calculation Setup                |
           -------------------------------------------------

          program call               : xtb "C:\Users\LENOVO GAMING\Documents\GitHub\molecular-conductivity-sim\dataset\2nm-5Sdoped-3percent.xyz" --opt --parallel 4
          coordinate file            : C:\Users\LENOVO GAMING\Documents\GitHub\molecular-conductivity-sim\dataset\2nm-5Sdoped-3percent.xyz
          omp threads                :                     4


           -------------------------------------------------
          |                 G F N 2 - x T B                 |
           -------------------------------------------------

        Reference                      10.1021/acs.jctc.8b01176
      * Hamiltonian:
        H0-scaling (s, p, d)           1.850000    2.230000    2.230000
        zeta-weighting                 0.500000
      * Dispersion:
        s8                             2.700000
        a1                             0.520000
        a2                             5.000000
        s9                             5.000000
      * Repulsion:
        kExp                           1.500000    1.000000
        rExp                           1.000000
      * Coulomb:
        alpha                          2.000000
        third order                    shell-resolved
        anisotropic                    true
        a3                             3.000000
        a5                             4.000000
        cn-shift                       1.200000
        cn-exp                         4.000000
        max-rad                        5.000000


          ...................................................
          :                      SETUP                      :
          :.................................................:
          :  # basis functions                 742          :
          :  # atomic orbitals                 737          :
          :  # shells                          377          :
          :  # electrons                       722          :
          :  max. iterations                   250          :
          :  Hamiltonian                  GFN2-xTB          :
          :  restarted?                      false          :
          :  GBSA solvation                  false          :
          :  PC potential                    false          :
          :  electronic temp.          300.0000000     K    :
          :  accuracy                    1.0000000          :
          :  -> integral cutoff          0.2500000E+02      :
          :  -> integral neglect         0.1000000E-07      :
          :  -> SCF convergence          0.1000000E-05 Eh   :
          :  -> wf. convergence          0.1000000E-03 e    :
          :  Broyden damping             0.4000000          :
          :  net charge                          0          :
          :  unpaired electrons                  0          :
          ...................................................

 iter      E             dE          RMSdq      gap      omega  full diag
   1   -394.0517112 -0.394052E+03  0.494E+00    0.32       0.0  T
   2   -394.1167469 -0.650357E-01  0.292E+00    0.46       1.0  T
   3   -393.7909352  0.325812E+00  0.111E+00    0.08       1.0  T
   4   -394.0917735 -0.300838E+00  0.416E-01    0.57       1.0  T
   5   -394.1414688 -0.496953E-01  0.208E-01    0.21       1.0  T
   6   -394.1521960 -0.107273E-01  0.782E-02    0.38       1.0  T
   7   -394.1531698 -0.973733E-03  0.360E-02    0.38       1.0  T
   8   -394.1532842 -0.114455E-03  0.202E-02    0.38       1.0  T
   9   -394.1533617 -0.774424E-04  0.826E-03    0.39       1.0  T
  10   -394.1533760 -0.143674E-04  0.440E-03    0.38       1.6  T
  11   -394.1533792 -0.318772E-05  0.163E-03    0.38       4.3  T
  12   -394.1533797 -0.485171E-06  0.838E-04    0.38       8.4  T
  13   -394.1533798 -0.132882E-06  0.422E-04    0.38      16.7  T

   *** convergence criteria satisfied after 13 iterations ***

         #    Occupation            Energy/Eh            Energy/eV
      -------------------------------------------------------------
         1        2.0000           -0.7605682             -20.6961
       ...           ...                  ...                  ...
       355        2.0000           -0.3673386              -9.9958
       356        2.0000           -0.3589655              -9.7679
       357        2.0000           -0.3558474              -9.6831
       358        2.0000           -0.3539054              -9.6303
       359        2.0000           -0.3505577              -9.5392
       360        2.0000           -0.3438340              -9.3562
       361        1.9988           -0.3321398              -9.0380 (HOMO)
       362        0.0012           -0.3180600              -8.6549 (LUMO)
       363                         -0.3001186              -8.1666
       364                         -0.2968413              -8.0775
       365                         -0.2927842              -7.9671
       366                         -0.2827612              -7.6943
       ...                                ...                  ...
       737                          0.7516533              20.4535
      -------------------------------------------------------------
                  HL-Gap            0.0140798 Eh            0.3831 eV
             Fermi-level           -0.3250999 Eh           -8.8464 eV

 SCC (total)                   0 d,  0 h,  0 min,  3.044 sec
 SCC setup                      ...        0 min,  0.005 sec (  0.164%)
 Dispersion                     ...        0 min,  0.014 sec (  0.460%)
 classical contributions        ...        0 min,  0.001 sec (  0.033%)
 integral evaluation            ...        0 min,  0.093 sec (  3.055%)
 iterations                     ...        0 min,  2.464 sec ( 80.946%)
 molecular gradient             ...        0 min,  0.448 sec ( 14.717%)
 printout                       ...        0 min,  0.019 sec (  0.624%)

         :::::::::::::::::::::::::::::::::::::::::::::::::::::
         ::                     SUMMARY                     ::
         :::::::::::::::::::::::::::::::::::::::::::::::::::::
         :: total energy            -387.246586405108 Eh    ::
         :: gradient norm              0.052611861652 Eh/a0 ::
         :: HOMO-LUMO gap              0.383130706184 eV    ::
         ::.................................................::
         :: SCC energy              -394.169216978823 Eh    ::
         :: -> isotropic ES            0.007304164784 Eh    ::
         :: -> anisotropic ES          0.014557160628 Eh    ::
         :: -> anisotropic XC          0.140853270776 Eh    ::
         :: -> dispersion             -0.499459658642 Eh    ::
         :: repulsion energy           6.922630573715 Eh    ::
         :: add. restraining           0.000000000000 Eh    ::
         :: total charge              -0.000000000000 e     ::
         :::::::::::::::::::::::::::::::::::::::::::::::::::::

      ----------------------------------------------------------- 
     |                   =====================                   |
     |                        A N C O P T                        |
     |                   =====================                   |
     |               Approximate Normal Coordinate               |
     |                Rational Function Optimizer                |
      ----------------------------------------------------------- 
      ----------------------------------------------------------- 
     |                   =====================                   |
     |                        A N C O P T                        |
     |                   =====================                   |
     |               Approximate Normal Coordinate               |
     |                Rational Function Optimizer                |
      ----------------------------------------------------------- 

          ...................................................
          :                      SETUP                      :
          :.................................................:
          :   optimization level            normal          :
          :   max. optcycles                   606          :
          :   ANC micro-cycles                  20          :
          :   degrees of freedom               600          :
          :.................................................:
          :   RF solver                   davidson          :
          :   write xtbopt.log                true          :
          :   linear?                        false          :
          :   energy convergence         0.5000000E-05 Eh   :
          :   grad. convergence          0.1000000E-02 Eh/α :
          :   maxmium RF displ.          1.0000000          :
          :   Hlow (freq-cutoff)         0.1000000E-01      :
          :   Hmax (freq-cutoff)         5.0000000          :
          :   S6 in model hess.         20.0000000          :
          ...................................................

generating ANC from exact Hessian ...
Using Lindh-Hessian (1995)
 Shifting diagonal of input Hessian by   9.939705925505056E-003
 Lowest  eigenvalues of input Hessian
    0.000000    0.000000    0.000000    0.000000    0.000000    0.000000
    0.010000    0.010075    0.010182    0.010199    0.010229    0.010651
    0.010758    0.010825    0.010839    0.011026    0.011633    0.011720
 Highest eigenvalues
    2.095243    2.101947    2.110625    2.123707    2.144202    2.150712
 

........................................................................
.............................. CYCLE    1 ..............................
........................................................................

 iter      E             dE          RMSdq      gap      omega  full diag
   1   -394.1533799 -0.394153E+03  0.170E-04    0.38       0.0  T
   2   -394.1533799  0.299906E-09  0.133E-04    0.38      52.9  T
   3   -394.1533799 -0.299906E-08  0.828E-05    0.38      84.9  T
     SCC iter.                  ...        0 min,  0.568 sec
     gradient                   ...        0 min,  0.439 sec
 * total energy  :  -387.2465865 Eh     change       -0.4728520E-07 Eh
   gradient norm :     0.0526098 Eh/α   predicted     0.0000000E+00 (-100.00%)
   displ. norm   :     0.5579223 α      lambda       -0.2026127E-01
   maximum displ.:     0.2011691 α      in ANC's #50, #42, #43, ...

........................................................................
.............................. CYCLE    2 ..............................
........................................................................

 iter      E             dE          RMSdq      gap      omega  full diag
   1   -394.3414434 -0.394341E+03  0.101E-01    0.39       0.0  T
   2   -394.3414461 -0.270171E-05  0.611E-02    0.40       1.0  T
   3   -394.3410526  0.393561E-03  0.428E-02    0.37       1.0  T
   4   -394.3415060 -0.453444E-03  0.672E-03    0.39       1.0  T
   5   -394.3415080 -0.195764E-05  0.462E-03    0.39       1.5  T
   6   -394.3415117 -0.370148E-05  0.155E-03    0.39       4.6  T
   7   -394.3415124 -0.674072E-06  0.524E-04    0.39      13.4  T
   8   -394.3415124 -0.326648E-07  0.341E-04    0.39      20.6  T
     SCC iter.                  ...        0 min,  1.532 sec
     gradient                   ...        0 min,  0.422 sec
 * total energy  :  -387.2623247 Eh     change       -0.1573828E-01 Eh
   gradient norm :     0.0256443 Eh/α   predicted    -0.1328424E-01 ( -15.59%)
   displ. norm   :     0.6328205 α      lambda       -0.1206690E-01
   maximum displ.:     0.2389290 α      in ANC's #50, #42, #43, ...

........................................................................
.............................. CYCLE    3 ..............................
........................................................................

 iter      E             dE          RMSdq      gap      omega  full diag
   1   -394.5102664 -0.394510E+03  0.897E-02    0.39       0.0  T
   2   -394.5102673 -0.905876E-06  0.536E-02    0.41       1.0  T
   3   -394.5099843  0.283016E-03  0.387E-02    0.38       1.0  T
   4   -394.5103134 -0.329099E-03  0.622E-03    0.40       1.1  T
   5   -394.5103124  0.963565E-06  0.480E-03    0.40       1.5  T
   6   -394.5103171 -0.461552E-05  0.992E-04    0.40       7.1  T
   7   -394.5103173 -0.248329E-06  0.363E-04    0.40      19.4  T
   8   -394.5103173 -0.134983E-07  0.214E-04    0.40      32.9  T
     SCC iter.                  ...        0 min,  1.496 sec
     gradient                   ...        0 min,  0.442 sec
 * total energy  :  -387.2710379 Eh     change       -0.8713138E-02 Eh
   gradient norm :     0.0123019 Eh/α   predicted    -0.8449790E-02 (  -3.02%)
   displ. norm   :     0.4929994 α      lambda       -0.4435099E-02
   maximum displ.:     0.1886333 α      in ANC's #42, #50, #43, ...

........................................................................
.............................. CYCLE    4 ..............................
........................................................................

 iter      E             dE          RMSdq      gap      omega  full diag
   1   -394.6101486 -0.394610E+03  0.676E-02    0.40       0.0  T
   2   -394.6101532 -0.466602E-05  0.398E-02    0.41       1.0  T
   3   -394.6100202  0.133024E-03  0.258E-02    0.40       1.0  T
   4   -394.6101698 -0.149570E-03  0.482E-03    0.41       1.5  T
   5   -394.6101693  0.505188E-06  0.370E-03    0.41       1.9  T
   6   -394.6101724 -0.314619E-05  0.885E-04    0.41       7.9  T
   7   -394.6101725 -0.109601E-06  0.397E-04    0.41      17.7  T
   8   -394.6101726 -0.278740E-07  0.213E-04    0.41      33.0  T
     SCC iter.                  ...        0 min,  1.526 sec
     gradient                   ...        0 min,  0.441 sec
 * total energy  :  -387.2739701 Eh     change       -0.2932233E-02 Eh
   gradient norm :     0.0080729 Eh/α   predicted    -0.2756851E-02 (  -5.98%)
   displ. norm   :     0.2638778 α      lambda       -0.9041862E-03
   maximum displ.:     0.0877849 α      in ANC's #42, #43, #44, ...

........................................................................
.............................. CYCLE    5 ..............................
........................................................................

 iter      E             dE          RMSdq      gap      omega  full diag
   1   -394.6468799 -0.394647E+03  0.396E-02    0.41       0.0  T
   2   -394.6468822 -0.224234E-05  0.234E-02    0.42       1.0  T
   3   -394.6468399  0.422627E-04  0.135E-02    0.41       1.0  T
   4   -394.6468859 -0.459599E-04  0.271E-03    0.41       2.6  T
   5   -394.6468864 -0.538352E-06  0.178E-03    0.41       4.0  T
   6   -394.6468872 -0.764163E-06  0.533E-04    0.41      13.2  T
   7   -394.6468872 -0.306704E-07  0.257E-04    0.41      27.4  T
     SCC iter.                  ...        0 min,  1.335 sec
     gradient                   ...        0 min,  0.453 sec
 * total energy  :  -387.2745294 Eh     change       -0.5593167E-03 Eh
   gradient norm :     0.0050912 Eh/α   predicted    -0.4835741E-03 ( -13.54%)
   displ. norm   :     0.1368543 α      lambda       -0.1916038E-03
   maximum displ.:     0.0541356 α      in ANC's #24, #19, #21, ...

........................................................................
.............................. CYCLE    6 ..............................
........................................................................

 iter      E             dE          RMSdq      gap      omega  full diag
   1   -394.6526083 -0.394653E+03  0.222E-02    0.42       0.0  T
   2   -394.6526088 -0.523517E-06  0.130E-02    0.42       1.0  T
   3   -394.6525992  0.960826E-05  0.630E-03    0.41       1.1  T
   4   -394.6526094 -0.102277E-04  0.121E-03    0.42       5.8  T
   5   -394.6526097 -0.218627E-06  0.647E-04    0.42      10.9  T
   6   -394.6526098 -0.863074E-07  0.227E-04    0.42      31.1  T
     SCC iter.                  ...        0 min,  1.164 sec
     gradient                   ...        0 min,  0.440 sec
 * total energy  :  -387.2746715 Eh     change       -0.1420687E-03 Eh
   gradient norm :     0.0027509 Eh/α   predicted    -0.9762910E-04 ( -31.28%)
   displ. norm   :     0.1850546 α      lambda       -0.1745252E-03
   maximum displ.:     0.0678578 α      in ANC's #24, #19, #21, ...

........................................................................
.............................. CYCLE    7 ..............................
........................................................................

 iter      E             dE          RMSdq      gap      omega  full diag
   1   -394.6508691 -0.394651E+03  0.302E-02    0.42       0.0  T
   2   -394.6508696 -0.557197E-06  0.176E-02    0.42       1.0  T
   3   -394.6508570  0.125980E-04  0.700E-03    0.42       1.0  T
   4   -394.6508703 -0.132730E-04  0.144E-03    0.42       4.9  T
   5   -394.6508706 -0.308837E-06  0.750E-04    0.42       9.4  T
   6   -394.6508707 -0.961722E-07  0.229E-04    0.42      30.8  T
     SCC iter.                  ...        0 min,  1.155 sec
     gradient                   ...        0 min,  0.438 sec
 * total energy  :  -387.2747902 Eh     change       -0.1186824E-03 Eh
   gradient norm :     0.0023019 Eh/α   predicted    -0.9025227E-04 ( -23.95%)
   displ. norm   :     0.1452497 α      lambda       -0.8470494E-04
   maximum displ.:     0.0506602 α      in ANC's #19, #17, #21, ...

........................................................................
.............................. CYCLE    8 ..............................
........................................................................

 iter      E             dE          RMSdq      gap      omega  full diag
   1   -394.6466435 -0.394647E+03  0.236E-02    0.42       0.0  T
   2   -394.6466436 -0.101014E-06  0.138E-02    0.42       1.0  T
   3   -394.6466337  0.989481E-05  0.550E-03    0.42       1.3  T
   4   -394.6466442 -0.104428E-04  0.992E-04    0.42       7.1  T
   5   -394.6466443 -0.103280E-06  0.573E-04    0.42      12.3  T
   6   -394.6466443 -0.564052E-07  0.164E-04    0.42      42.8  T
     SCC iter.                  ...        0 min,  1.159 sec
     gradient                   ...        0 min,  0.420 sec
 * total energy  :  -387.2748499 Eh     change       -0.5973569E-04 Eh
   gradient norm :     0.0027574 Eh/α   predicted    -0.4325672E-04 ( -27.59%)
   displ. norm   :     0.1248662 α      lambda       -0.5406245E-04
   maximum displ.:     0.0413275 α      in ANC's #17, #19, #3, ...

........................................................................
.............................. CYCLE    9 ..............................
........................................................................

 iter      E             dE          RMSdq      gap      omega  full diag
   1   -394.6434693 -0.394643E+03  0.200E-02    0.42       0.0  T
   2   -394.6434693  0.382212E-07  0.117E-02    0.42       1.0  T
   3   -394.6434584  0.108949E-04  0.549E-03    0.42       1.3  T
   4   -394.6434699 -0.115260E-04  0.774E-04    0.42       9.1  T
   5   -394.6434699 -0.295009E-07  0.478E-04    0.42      14.7  T
   6   -394.6434700 -0.506271E-07  0.152E-04    0.42      46.4  T
     SCC iter.                  ...        0 min,  1.158 sec
     gradient                   ...        0 min,  0.477 sec
 * total energy  :  -387.2748876 Eh     change       -0.3770777E-04 Eh
   gradient norm :     0.0019984 Eh/α   predicted    -0.2745593E-04 ( -27.19%)
   displ. norm   :     0.1520157 α      lambda       -0.3285872E-04
   maximum displ.:     0.0551007 α      in ANC's #3, #17, #6, ...

........................................................................
.............................. CYCLE   10 ..............................
........................................................................

 iter      E             dE          RMSdq      gap      omega  full diag
   1   -394.6421043 -0.394642E+03  0.225E-02    0.42       0.0  T
   2   -394.6421042  0.777264E-07  0.132E-02    0.43       1.0  T
   3   -394.6420886  0.155954E-04  0.667E-03    0.42       1.1  T
   4   -394.6421051 -0.165138E-04  0.858E-04    0.42       8.2  T
   5   -394.6421052 -0.314390E-07  0.516E-04    0.42      13.6  T
   6   -394.6421052 -0.698590E-07  0.168E-04    0.42      41.8  T
     SCC iter.                  ...        0 min,  1.162 sec
     gradient                   ...        0 min,  0.450 sec
 * total energy  :  -387.2749163 Eh     change       -0.2873880E-04 Eh
   gradient norm :     0.0010372 Eh/α   predicted    -0.1661041E-04 ( -42.20%)
   displ. norm   :     0.0830042 α      lambda       -0.1706837E-04
   maximum displ.:     0.0344146 α      in ANC's #3, #6, #4, ...

........................................................................
.............................. CYCLE   11 ..............................
........................................................................

 iter      E             dE          RMSdq      gap      omega  full diag
   1   -394.6437830 -0.394644E+03  0.941E-03    0.42       0.0  T
   2   -394.6437830 -0.291768E-07  0.543E-03    0.42       1.3  T
   3   -394.6437819  0.116255E-05  0.201E-03    0.42       3.5  T
   4   -394.6437831 -0.121744E-05  0.407E-04    0.42      17.3  T
   5   -394.6437831 -0.910586E-08  0.261E-04    0.42      27.0  T
   6   -394.6437831 -0.230369E-07  0.573E-05    0.42     122.8  T
     SCC iter.                  ...        0 min,  1.128 sec
     gradient                   ...        0 min,  0.441 sec
 * total energy  :  -387.2749375 Eh     change       -0.2114260E-04 Eh
   gradient norm :     0.0012723 Eh/α   predicted    -0.8580091E-05 ( -59.42%)
   displ. norm   :     0.1973813 α      lambda       -0.3235373E-04
   maximum displ.:     0.0833900 α      in ANC's #3, #6, #4, ...

........................................................................
.............................. CYCLE   12 ..............................
........................................................................

 iter      E             dE          RMSdq      gap      omega  full diag
   1   -394.6455488 -0.394646E+03  0.205E-02    0.42       0.0  T
   2   -394.6455490 -0.207806E-06  0.118E-02    0.42       1.0  T
   3   -394.6455467  0.232978E-05  0.299E-03    0.42       2.4  T
   4   -394.6455490 -0.237754E-05  0.927E-04    0.42       7.6  T
   5   -394.6455491 -0.989663E-07  0.488E-04    0.42      14.4  T
   6   -394.6455492 -0.752202E-07  0.116E-04    0.42      60.8  T
     SCC iter.                  ...        0 min,  1.144 sec
     gradient                   ...        0 min,  0.456 sec
 * total energy  :  -387.2749731 Eh     change       -0.3557077E-04 Eh
   gradient norm :     0.0014782 Eh/α   predicted    -0.1646254E-04 ( -53.72%)
   displ. norm   :     0.2218849 α      lambda       -0.2479536E-04
   maximum displ.:     0.0966549 α      in ANC's #3, #6, #4, ...

........................................................................
.............................. CYCLE   13 ..............................
........................................................................

 iter      E             dE          RMSdq      gap      omega  full diag
   1   -394.6462537 -0.394646E+03  0.218E-02    0.42       0.0  T
   2   -394.6462539 -0.206157E-06  0.126E-02    0.42       1.0  T
   3   -394.6462509  0.298041E-05  0.326E-03    0.42       2.2  T
   4   -394.6462540 -0.305349E-05  0.101E-03    0.42       7.0  T
   5   -394.6462541 -0.131239E-06  0.481E-04    0.42      14.6  T
   6   -394.6462542 -0.617060E-07  0.120E-04    0.42      58.7  T
     SCC iter.                  ...        0 min,  1.126 sec
     gradient                   ...        0 min,  0.423 sec
 * total energy  :  -387.2750019 Eh     change       -0.2884743E-04 Eh
   gradient norm :     0.0012746 Eh/α   predicted    -0.1266953E-04 ( -56.08%)
   displ. norm   :     0.2577699 α      lambda       -0.2633445E-04
   maximum displ.:     0.1137840 α      in ANC's #3, #6, #4, ...

........................................................................
.............................. CYCLE   14 ..............................
........................................................................

 iter      E             dE          RMSdq      gap      omega  full diag
   1   -394.6461780 -0.394646E+03  0.248E-02    0.42       0.0  T
   2   -394.6461783 -0.231599E-06  0.143E-02    0.43       1.0  T
   3   -394.6461737  0.458322E-05  0.387E-03    0.42       1.8  T
   4   -394.6461784 -0.473963E-05  0.112E-03    0.43       6.3  T
   5   -394.6461786 -0.153471E-06  0.556E-04    0.42      12.6  T
   6   -394.6461786 -0.734374E-07  0.142E-04    0.42      49.7  T
     SCC iter.                  ...        0 min,  1.119 sec
     gradient                   ...        0 min,  0.442 sec
 * total energy  :  -387.2750331 Eh     change       -0.3115819E-04 Eh
   gradient norm :     0.0010315 Eh/α   predicted    -0.1355712E-04 ( -56.49%)
   displ. norm   :     0.3110234 α      lambda       -0.2969162E-04
   maximum displ.:     0.1376562 α      in ANC's #3, #6, #4, ...

........................................................................
.............................. CYCLE   15 ..............................
........................................................................

 iter      E             dE          RMSdq      gap      omega  full diag
   1   -394.6456688 -0.394646E+03  0.302E-02    0.43       0.0  T
   2   -394.6456691 -0.288996E-06  0.174E-02    0.43       1.0  T
   3   -394.6456603  0.880494E-05  0.514E-03    0.42       1.4  T
   4   -394.6456695 -0.920603E-05  0.129E-03    0.43       5.4  T
   5   -394.6456696 -0.161864E-06  0.700E-04    0.43      10.1  T
   6   -394.6456698 -0.111985E-06  0.187E-04    0.43      37.5  T
     SCC iter.                  ...        0 min,  1.148 sec
     gradient                   ...        0 min,  0.411 sec
 * total energy  :  -387.2750660 Eh     change       -0.3293250E-04 Eh
   gradient norm :     0.0012057 Eh/α   predicted    -0.1548800E-04 ( -52.97%)
   displ. norm   :     0.2603160 α      lambda       -0.2227329E-04
   maximum displ.:     0.1138287 α      in ANC's #3, #4, #6, ...

........................................................................
.............................. CYCLE   16 ..............................
........................................................................

 iter      E             dE          RMSdq      gap      omega  full diag
   1   -394.6451320 -0.394645E+03  0.264E-02    0.43       0.0  T
   2   -394.6451321 -0.157525E-06  0.153E-02    0.43       1.0  T
   3   -394.6451225  0.963985E-05  0.519E-03    0.42       1.4  T
   4   -394.6451326 -0.101389E-04  0.105E-03    0.43       6.7  T
   5   -394.6451327 -0.891802E-07  0.606E-04    0.43      11.6  T
   6   -394.6451328 -0.771383E-07  0.172E-04    0.43      40.8  T
     SCC iter.                  ...        0 min,  1.154 sec
     gradient                   ...        0 min,  0.444 sec
 * total energy  :  -387.2750898 Eh     change       -0.2375029E-04 Eh
   gradient norm :     0.0012195 Eh/α   predicted    -0.1147592E-04 ( -51.68%)
   displ. norm   :     0.1889602 α      lambda       -0.1650674E-04
   maximum displ.:     0.0778597 α      in ANC's #3, #8, #4, ...

........................................................................
.............................. CYCLE   17 ..............................
........................................................................

 iter      E             dE          RMSdq      gap      omega  full diag
   1   -394.6454257 -0.394645E+03  0.207E-02    0.43       0.0  T
   2   -394.6454258 -0.134867E-06  0.120E-02    0.43       1.0  T
   3   -394.6454202  0.560965E-05  0.404E-03    0.43       1.7  T
   4   -394.6454261 -0.588894E-05  0.842E-04    0.43       8.4  T
   5   -394.6454262 -0.606350E-07  0.502E-04    0.43      14.0  T
   6   -394.6454262 -0.596215E-07  0.146E-04    0.43      48.3  T
     SCC iter.                  ...        0 min,  1.150 sec
     gradient                   ...        0 min,  0.424 sec
 * total energy  :  -387.2751059 Eh     change       -0.1611429E-04 Eh
   gradient norm :     0.0011400 Eh/α   predicted    -0.8391862E-05 ( -47.92%)
   displ. norm   :     0.1366835 α      lambda       -0.1213816E-04
   maximum displ.:     0.0501751 α      in ANC's #3, #4, #1, ...

........................................................................
.............................. CYCLE   18 ..............................
........................................................................

 iter      E             dE          RMSdq      gap      omega  full diag
   1   -394.6454997 -0.394645E+03  0.163E-02    0.43       0.0  T
   2   -394.6454998 -0.852154E-07  0.950E-03    0.43       1.0  T
   3   -394.6454967  0.312647E-05  0.296E-03    0.43       2.4  T
   4   -394.6454999 -0.326355E-05  0.666E-04    0.43      10.6  T
   5   -394.6455000 -0.561219E-07  0.357E-04    0.43      19.7  T
   6   -394.6455000 -0.263319E-07  0.102E-04    0.43      68.8  T
     SCC iter.                  ...        0 min,  1.133 sec
     gradient                   ...        0 min,  0.440 sec
 * total energy  :  -387.2751169 Eh     change       -0.1099370E-04 Eh
   gradient norm :     0.0007220 Eh/α   predicted    -0.6121095E-05 ( -44.32%)
   displ. norm   :     0.0735928 α      lambda       -0.7813581E-05
   maximum displ.:     0.0261718 α      in ANC's #16, #7, #12, ...

........................................................................
.............................. CYCLE   19 ..............................
........................................................................

 iter      E             dE          RMSdq      gap      omega  full diag
   1   -394.6460319 -0.394646E+03  0.101E-02    0.43       0.0  T
   2   -394.6460319 -0.576371E-07  0.582E-03    0.43       1.2  T
   3   -394.6460314  0.490833E-06  0.144E-03    0.43       4.9  T
   4   -394.6460320 -0.520541E-06  0.414E-04    0.43      17.0  T
   5   -394.6460320 -0.833967E-08  0.244E-04    0.43      28.8  T
     SCC iter.                  ...        0 min,  0.924 sec
     gradient                   ...        0 min,  0.418 sec
 * total energy  :  -387.2751255 Eh     change       -0.8634117E-05 Eh
   gradient norm :     0.0007407 Eh/α   predicted    -0.3919515E-05 ( -54.60%)
   displ. norm   :     0.0888289 α      lambda       -0.8249144E-05
   maximum displ.:     0.0322979 α      in ANC's #4, #7, #1, ...

........................................................................
.............................. CYCLE   20 ..............................
........................................................................

 iter      E             dE          RMSdq      gap      omega  full diag
   1   -394.6462840 -0.394646E+03  0.112E-02    0.43       0.0  T
   2   -394.6462840 -0.565249E-07  0.647E-03    0.43       1.1  T
   3   -394.6462822  0.180050E-05  0.241E-03    0.43       2.9  T
   4   -394.6462841 -0.190302E-05  0.515E-04    0.43      13.7  T
   5   -394.6462842 -0.407846E-08  0.355E-04    0.43      19.8  T
   6   -394.6462842 -0.356260E-07  0.901E-05    0.43      78.1  T
     SCC iter.                  ...        0 min,  1.116 sec
     gradient                   ...        0 min,  0.426 sec
 * total energy  :  -387.2751343 Eh     change       -0.8818153E-05 Eh
   gradient norm :     0.0007228 Eh/α   predicted    -0.4140092E-05 ( -53.05%)
   displ. norm   :     0.0842496 α      lambda       -0.6139503E-05
   maximum displ.:     0.0354232 α      in ANC's #4, #1, #7, ...
 * RMSD in coord.:     0.2070750 α      energy gain  -0.2854791E-01 Eh

generating ANC from exact Hessian ...
Using Lindh-Hessian (1995)
 Shifting diagonal of input Hessian by   9.934733860944055E-003
 Lowest  eigenvalues of input Hessian
    0.000000    0.000000    0.000000    0.000000    0.000000    0.000000
    0.010000    0.010079    0.010201    0.010215    0.010253    0.010721
    0.010838    0.010916    0.010929    0.011118    0.011806    0.011879
 Highest eigenvalues
    2.183463    2.189121    2.199500    2.209303    2.235429    2.240004
 

........................................................................
.............................. CYCLE   21 ..............................
........................................................................

 iter      E             dE          RMSdq      gap      omega  full diag
   1   -394.6465030 -0.394647E+03  0.991E-03    0.43       0.0  T
   2   -394.6465030 -0.604419E-07  0.570E-03    0.43       1.2  T
   3   -394.6465019  0.108906E-05  0.193E-03    0.43       3.6  T
   4   -394.6465031 -0.113964E-05  0.495E-04    0.43      14.2  T
   5   -394.6465031 -0.129519E-07  0.335E-04    0.43      21.0  T
   6   -394.6465031 -0.315669E-07  0.817E-05    0.43      86.1  T
     SCC iter.                  ...        0 min,  1.149 sec
     gradient                   ...        0 min,  0.452 sec
 * total energy  :  -387.2751411 Eh     change       -0.6771110E-05 Eh
   gradient norm :     0.0006207 Eh/α   predicted     0.0000000E+00 (-100.00%)
   displ. norm   :     0.0201073 α      lambda       -0.2816360E-05
   maximum displ.:     0.0098772 α      in ANC's #6, #4, #1, ...

........................................................................
.............................. CYCLE   22 ..............................
........................................................................

 iter      E             dE          RMSdq      gap      omega  full diag
   1   -394.6460685 -0.394646E+03  0.295E-03    0.43       0.0  T
   2   -394.6460685 -0.219239E-08  0.170E-03    0.43       4.1  T
   3   -394.6460682  0.298357E-06  0.101E-03    0.43       7.0  T
   4   -394.6460685 -0.318560E-06  0.183E-04    0.43      38.5  T
   5   -394.6460685 -0.218296E-08  0.119E-04    0.43      59.2  T
     SCC iter.                  ...        0 min,  0.948 sec
     gradient                   ...        0 min,  0.432 sec
 * total energy  :  -387.2751447 Eh     change       -0.3646628E-05 Eh
   gradient norm :     0.0002753 Eh/α   predicted    -0.1453499E-05 ( -60.14%)
   displ. norm   :     0.0666882 α      lambda       -0.6719957E-05
   maximum displ.:     0.0349233 α      in ANC's #6, #4, #1, ...

   *** GEOMETRY OPTIMIZATION CONVERGED AFTER 22 ITERATIONS ***

------------------------------------------------------------------------
 total energy gain   :        -0.0285583 Eh      -17.9206 kcal/mol
 total RMSD          :         0.2071166 a0        0.1096 Å
 total power (kW/mol):        -3.4081758 (step)   -1.9465 (real)
------------------------------------------------------------------------

 ANCopt (total)                0 d,  0 h,  0 min, 38.521 sec
 optimizer setup                ...        0 min,  0.003 sec (  0.008%)
 model hessian                  ...        0 min,  0.438 sec (  1.137%)
 ANC generation                 ...        0 min,  0.167 sec (  0.434%)
 coordinate transformation      ...        0 min,  0.009 sec (  0.023%)
 single point calculation       ...        0 min, 37.826 sec ( 98.196%)
 optimization log               ...        0 min,  0.053 sec (  0.138%)
 hessian update                 ...        0 min,  0.004 sec (  0.010%)
 rational function              ...        0 min,  0.016 sec (  0.042%)

================
 final structure:
================
202
 xtb: 6.7.1pre (5071a88)
C           -9.83075295866882       -8.64486974425574       -0.36753837848891
C           -9.16825342841779       -9.70316503124550       -0.95905693186678
C           -7.82526469088700       -9.58708440841064       -1.22526973099327
C           -7.10960173557091       -8.41854485089480       -0.93051806080160
C           -9.14901210712961       -7.47336043894307       -0.08791674808484
C           -7.78364119608406       -7.29985212258854       -0.37911547108480
C           -7.07806756173594       -6.05818170257157       -0.16269839006896
C           -9.77309625491166       -3.66579130326531        0.89053265037872
C           -9.12796245047646       -4.82572692095410        0.58076538176673
C           -7.74674911281400       -4.87074059919327        0.23339461054184
C           -7.04433315192384       -3.63540433718260        0.28475910675437
C           -9.76400611871903       -1.24036970638503        1.16004987750124
C           -9.10335793681861       -2.42720835298742        0.87698491636706
C           -7.71532970376432       -2.41930272237436        0.57535268485521
C           -7.02630212251287       -1.18679562201341        0.56565494193416
C           -9.75180920774852        1.18955612660436        1.40060476961163
C           -9.09513639679125       -0.02075302640515        1.12077634342269
C           -7.71246560144996        0.02471291309407        0.80535263559209
C           -7.04344862306035        1.27435136674625        0.73086508248507
C           -9.10006997322379        2.38688948219482        1.31404445478475
C           -7.73657207912842        2.49372156613724        0.93254638252977
C           -7.07217918536989        3.74454291132529        0.73645307077388
C           -9.83605102517928        6.27130245140405        1.00556506375276
C           -9.14202298710400        5.10191279791219        1.11068271307062
C           -7.76833404510731        4.99046704389532        0.76169812714453
C           -7.10555609610304        6.19097620913006        0.40499435848204
C           -9.93965366617210        8.63883787727951        0.41286299866316
C           -9.21189866783712        7.45246331091121        0.56715298579251
C           -7.82156021433744        7.41727136126328        0.29961548773026
C           -7.17458631936977        8.61672627044454       -0.08296424080063
C           -9.30435820428779        9.78237754617474       -0.00481896478407
C           -7.93872755795545        9.77128431387445       -0.24299517305894
C           -5.68363016016502       -8.35920035192622       -1.12928487824912
C           -4.96288999326545       -9.45927889871652       -1.61340621920665
C           -3.59763982362446       -9.45476208610689       -1.66790135429599
C           -2.85748576156815       -8.33641280011467       -1.26575434634078
C           -5.68195820525331       -6.01491572104241       -0.39297902746076
C           -4.97583702165345       -7.18483983440472       -0.80704069015013
C           -3.55966667349257       -7.16823317248432       -0.90630271180105
C           -2.83099772466623       -5.97468382982364       -0.64798948689045
C           -5.64525590029141       -3.61006476521759        0.06008546402633
C           -4.95758157789202       -4.80757277322347       -0.22500034910717
C           -3.53914817774855       -4.78953999587992       -0.35811688003596
C           -2.83043519600133       -3.57608757813615       -0.20876015547087
C           -5.63016043025767       -1.16672574648504        0.33115598558692
C           -4.94079313047723       -2.37849600168925        0.12346593153424
C           -3.53404801179130       -2.36375852322988       -0.01377394917564
C           -2.83580218930054       -1.13943837808263        0.04431838998210
C           -5.64805925860896        1.29042781973972        0.47110729549503
C           -4.94420844390466        0.06926138109773        0.32003632652423
C           -3.54117147915667        0.07931709715428        0.16712664575677
C           -2.84804993281899        1.31094461913698        0.13789698342695
C           -5.68472072792262        3.74560207819822        0.44791292965976
C           -4.96674234780317        2.52116708305550        0.37585789112895
C           -3.56005800616006        2.52716388368725        0.19429778308054
C           -2.86353007592773        3.75369875756397        0.06690308598831
C           -5.70581780329207        6.18010410566627        0.15810254634355
C           -4.99481376507331        4.96796458038753        0.21885663248424
C           -3.58152368971494        4.96974405800075        0.03413698255163
C           -2.88933734244293        6.18082306945081       -0.18287264117594
C           -5.74445070034577        8.60450912911674       -0.27447486339535
C           -5.02524937150829        7.39739354469173       -0.13935115433286
C           -3.61381293606162        7.39842441855855       -0.29302100312740
C           -2.92618834039943        8.60382266215038       -0.55854363418001
C           -5.03790059614135        9.77252445037057       -0.57206201818699
C           -3.67571950497535        9.77450321251650       -0.70731560928324
C           -1.42243005685271       -8.35857457981287       -1.22189364196281
C           -0.71456605097244       -9.55741040252055       -1.36123576785591
C            0.64882263573570       -9.58523814261745       -1.28780778029371
C            1.40196699283800       -8.41372709847031       -1.12801489740062
C           -1.41602658335788       -5.96753824878014       -0.71677676294422
C           -0.69593415152140       -7.16714387843591       -0.98982153374712
C            0.72190271754403       -7.17369427642370       -1.00213618082889
C            1.43314076410229       -5.94698983275215       -0.75702366449332
C           -1.41750608045121       -3.56860817386017       -0.26162610400585
C           -0.70859826463123       -4.77153640293360       -0.47214976557642
C            0.71301840096294       -4.76627339829413       -0.46392930777001
C            1.41687315151453       -3.55870890305293       -0.23843162843273
C           -1.42157734056079       -1.13289691607760       -0.02037044454539
C           -0.71336713407378       -2.34696239066044       -0.12949847632595
C            0.70081683278217       -2.34198053466757       -0.11989079683299
C            1.39883693540380       -1.12143319238002       -0.01411219166573
C           -1.43469630450845        1.31581440465906        0.04779631300330
C           -0.72288782670016        0.09478938592596        0.01349858286294
C            0.68868010807180        0.10028762756766        0.00525059214817
C            1.38917442424854        1.32799227021755        0.00214741446516
C           -1.45393080957693        3.75781087054824       -0.04685907375894
C           -0.73711162741258        2.53825421903099       -0.01237146632379
C            0.67755866143391        2.54303434971407       -0.04942325357278
C            1.37973529839100        3.76700874705611       -0.15024322679087
C           -1.47646350685579        6.18371124406836       -0.30502548465767
C           -0.75695451361858        4.97645054777161       -0.20536953625377
C            0.66408818904184        4.97898153976393       -0.27154674603986
C            1.36550364421503        6.18526148800494       -0.46475310021831
C           -1.49137776506027        8.60742258996942       -0.66567260006039
C           -0.77493542373566        7.40020961932974       -0.53123630162871
C            0.64202982333353        7.39875784109241       -0.62573011968610
C            1.33745407224676        8.60014842919590       -0.87516858712369
C           -0.76788729749842        9.78588438340251       -0.88622458799112
C            0.59621185660517        9.78210376896670       -0.99094291048661
C            2.81878735898420       -8.53745207667203       -1.07430054644304
C            3.55893291482142       -9.62988525618991       -0.69766994017783
C            4.93015615599637       -9.63664283285696       -0.48126237008995
C            5.69110945849292       -8.47500485767170       -0.30056089756376
C            2.82976639185198       -5.84571452271565       -0.78855821796577
C            5.16399017064918       -7.20069835172634       -0.53287752843937
C            5.69415517405768       -5.99417715853490       -0.06575060087447
C            2.82754070195734       -3.54850886005659       -0.14053515619381
C            3.56540133462319       -4.73754797788700       -0.35560414714401
C            4.97870844111075       -4.76462804291163       -0.09670806066977
C            5.63739322085259       -3.57135859044321        0.28799430862782
C            2.81232712094819       -1.11504229918667        0.06430865538422
C            3.52287285774736       -2.33240663921523        0.06351767240829
C            4.92586686590050       -2.33674538290437        0.24461399097278
C            5.60474287095133       -1.11240156465556        0.39856439536074
C            2.80481041041467        1.33581989655891        0.04400112045661
C            3.51013220340084        0.11307425494525        0.12488487885598
C            4.91310590291447        0.11833440368570        0.26988583129642
C            5.60889486273303        1.35284242933424        0.29653231742039
C            2.79307444345488        3.77277991877562       -0.14102712355495
C            3.50669551385327        2.55780816468773        0.00436079943360
C            4.91914691796607        2.56842679941746        0.11243190851001
C            5.63409274100744        3.79499302999074        0.03025089777470
C            2.78249412135627        6.18571447156897       -0.49690985359896
C            3.49761174631821        4.98631775379211       -0.29319398618378
C            4.92125000443687        4.99412616237482       -0.24318223193447
C            5.61741736823057        6.19293447864628       -0.47640838096609
C            2.77188802403100        8.58798880167997       -0.98691385857159
C            3.48683750357542        7.39251327559648       -0.75436470767768
C            4.90537725867711        7.38802504418306       -0.78935317628394
C            5.60135620257082        8.57055619612039       -1.11729692505761
C            3.49536083588902        9.73743438592384       -1.32017208873642
C            4.86270640552691        9.72498231575103       -1.39150916141645
C            7.02730508992871       -8.51845949950133        0.25307709857919
C            7.72982754036998       -9.71379179689195        0.37594573396291
C            9.01748135861036       -9.75458412012964        0.88836117482341
C            9.62997564741974       -8.59476516680894        1.29243771371886
C            7.00160608060670       -6.04088494023796        0.50807780247696
C            7.65120227425944       -7.30391926064831        0.63558454956047
C            8.96318797419763       -7.36917273706467        1.16739790416992
C            9.58053066615363       -6.17202926985377        1.56670339287963
C            6.98915516925984       -3.58166699654445        0.72275080748221
C            7.64330878321221       -4.84007832908873        0.89316808858908
C            8.95042280576337       -4.96912168175019        1.43755589207847
C            6.98780334054109       -1.10730392597710        0.70508626649471
C            7.64940021850049       -2.33601300859417        0.96134434956786
C            8.98089530018487       -2.24167686970210        1.43639121495000
C            9.64846594076229       -1.05026838191741        1.52204399493240
C            7.00730051740583        1.36646163955374        0.53094247495309
C            7.66388803321408        0.13655797980891        0.79820566235954
C            9.02465718422495        0.15245170665039        1.17246122789309
C            9.71072637389053        1.36890324445846        1.20811530081187
C            7.03759252447630        3.81976359914956        0.21180012347167
C            7.71257529480393        2.59709448990163        0.53487695467081
C            9.08465065135786        2.54159398446693        0.87605569856405
C            7.03413364085958        6.21442067979535       -0.38639866141075
C            7.73074545506350        5.05230439130797        0.03065681353907
C            9.13420395155834        5.18964990046444        0.21700984709367
C            9.81407033282367        6.32365233672023       -0.11790092658385
C            7.04413235179424        8.57264058324277       -1.13700861894500
C            7.73278206742736        7.41162427024510       -0.71066122103463
C            9.14573933109552        7.45262057495200       -0.62559104347310
C            9.85013698746524        8.59840939808241       -1.01425527866466
C            7.78401779430470        9.68306518889124       -1.53948722929065
C            9.16919898258287        9.69393418993432       -1.48695025971184
H          -10.87860733431073       -8.71042925360717       -0.11765031828904
H           -9.69831041682843      -10.61263923513533       -1.19640024175103
H           -7.32450620424226      -10.43141098217318       -1.66625603195359
H          -10.82109309889704       -3.69483943525893        1.14915334397939
H          -10.81532326212572       -1.26144525911282        1.40584955450445
H          -10.79185716934931        1.17287621609949        1.69015098298507
H          -10.88270889100788        6.29202552827678        1.27035306800983
H          -10.99900516681602        8.63397389258355        0.62135739799933
H           -5.47409002458449      -10.34837676871422       -1.94136398081045
H           -3.09931991296222      -10.33328877767641       -2.04332524530430
H           -1.23648701682588      -10.48883930989078       -1.50357982379194
H            1.16239454417299      -10.52719848684584       -1.39590002893566
H            3.02536284308088      -10.54103513064778       -0.46777958114986
H            5.37166923033878      -10.58790816243147       -0.24162208775554
H            7.28394350567036      -10.63932527411478        0.05149552857437
H            9.53141547817717      -10.70120630883287        0.96579790090143
H           10.62831855896556       -8.60557141434972        1.70332004075696
H           10.57522755055930       -6.20422335198044        1.98597954827779
H           10.66916401877673       -1.03731632898771        1.87309997360314
H           10.75240179425032        1.38507876069911        1.49099936559956
H           10.88404872868089        6.36087453265296        0.02305443470700
H           10.92741458498875        8.60068919210536       -0.94189639050273
H            9.70763917596348       10.57354430917182       -1.80797449497465
H           -9.86149205292610       10.69768502778705       -0.14064084789475
H           -7.47758380823357       10.69154298450388       -0.56108502282858
H           -5.55897614957122       10.70802982142956       -0.68953020270007
H           -3.19164971586372       10.71029372038597       -0.93176136769983
H           -1.27729717216606       10.73109000323219       -0.97398283448568
H            1.09368380818414       10.72397036748148       -1.15309872076140
H            2.98497138181199       10.66149098109463       -1.53570589308247
H            5.36580618532059       10.64257676603750       -1.64806006461570
H            7.28652979733595       10.56478144878617       -1.90853397464097
S          -10.06473058067603        3.77085811216988        1.77380502215873
S           10.11662798643817        3.94804596210588        0.96030257078765
S            9.88513954846164       -3.61327972679048        2.02602759222775
S            3.75055160592292       -7.11741871721372       -1.61486268219541
S          -10.12480060985581       -6.25898435239984        0.70240542677213
 
 Bond Distances (Angstroems)
 ---------------------------
C1-C2=1.3816         C1-C5=1.3840         C1-H166=1.0792       C2-C1=1.3816         C2-C3=1.3740         C2-H167=1.0791       
C3-C2=1.3740         C3-C4=1.4016         C3-H168=1.0762       C4-C3=1.4016         C4-C6=1.4177         C4-C33=1.4410        
C5-C1=1.3840         C5-C6=1.4068         C5-S202=1.7468       C6-C4=1.4177         C6-C5=1.4068         C6-C7=1.4444         
C7-C6=1.4444         C7-C10=1.4192        C7-C37=1.4156        C8-C9=1.3629         C8-C13=1.4081        C8-H169=1.0798       
C9-C8=1.3629         C9-C10=1.4249        C9-S202=1.7501       C10-C7=1.4192        C10-C9=1.4249        C10-C11=1.4220       
C11-C10=1.4220       C11-C14=1.4190       C11-C41=1.4172       C12-C13=1.3875       C12-C17=1.3915       C12-H170=1.0799      
C13-C8=1.4081        C13-C12=1.3875       C13-C14=1.4204       C14-C11=1.4190       C14-C13=1.4204       C14-C15=1.4121       
C15-C14=1.4121       C15-C18=1.4128       C15-C45=1.4158       C16-C17=1.4051       C16-C20=1.3660       C16-H171=1.0797      
C17-C12=1.3915       C17-C16=1.4051       C17-C18=1.4189       C18-C15=1.4128       C18-C17=1.4189       C18-C19=1.4194       
C19-C18=1.4194       C19-C21=1.4170       C19-C49=1.4195       C20-C16=1.3660       C20-C21=1.4199       C20-S198=1.7485      
C21-C19=1.4170       C21-C20=1.4199       C21-C22=1.4298       C22-C21=1.4298       C22-C25=1.4274       C22-C53=1.4171       
C23-C24=1.3639       C23-C28=1.4060       C23-H172=1.0798      C24-C23=1.3639       C24-C25=1.4217       C24-S198=1.7501      
C25-C22=1.4274       C25-C24=1.4217       C25-C26=1.4169       C26-C25=1.4169       C26-C29=1.4239       C26-C57=1.4214       
C27-C28=1.4003       C27-C31=1.3732       C27-H173=1.0797      C28-C23=1.4060       C28-C27=1.4003       C28-C29=1.4163       
C29-C26=1.4239       C29-C28=1.4163       C29-C30=1.4155       C30-C29=1.4155       C30-C32=1.3937       C30-C61=1.4430       
C31-C27=1.3732       C31-C32=1.3863       C31-H189=1.0801      C32-C30=1.3937       C32-C31=1.3863       C32-H190=1.0774      
C33-C4=1.4410        C33-C34=1.4014       C33-C38=1.4085       C34-C33=1.4014       C34-C35=1.3663       C34-H174=1.0767      
C35-C34=1.3663       C35-C36=1.4001       C35-H175=1.0775      C36-C35=1.4001       C36-C39=1.4096       C36-C67=1.4359       
C37-C7=1.4156        C37-C38=1.4279       C37-C42=1.4180       C38-C33=1.4085       C38-C37=1.4279       C38-C39=1.4197       
C39-C36=1.4096       C39-C38=1.4197       C39-C40=1.4221       C40-C39=1.4221       C40-C43=1.4107       C40-C71=1.4167       
C41-C11=1.4172       C41-C42=1.4100       C41-C46=1.4202       C42-C37=1.4180       C42-C41=1.4100       C42-C43=1.4248       
C43-C40=1.4107       C43-C42=1.4248       C43-C44=1.4132       C44-C43=1.4132       C44-C47=1.4152       C44-C75=1.4139       
C45-C15=1.4158       C45-C46=1.4095       C45-C50=1.4136       C46-C41=1.4202       C46-C45=1.4095       C46-C47=1.4135       
C47-C44=1.4152       C47-C46=1.4135       C47-C48=1.4106       C48-C47=1.4106       C48-C51=1.4135       C48-C79=1.4157       
C49-C19=1.4195       C49-C50=1.4176       C49-C54=1.4100       C50-C45=1.4136       C50-C49=1.4176       C50-C51=1.4114       
C51-C48=1.4135       C51-C50=1.4114       C51-C52=1.4136       C52-C51=1.4136       C52-C55=1.4104       C52-C83=1.4162       
C53-C22=1.4171       C53-C54=1.4212       C53-C58=1.4222       C54-C49=1.4100       C54-C53=1.4212       C54-C55=1.4184       
C55-C52=1.4104       C55-C54=1.4184       C55-C56=1.4163       C56-C55=1.4163       C56-C59=1.4126       C56-C87=1.4142       
C57-C26=1.4214       C57-C58=1.4066       C57-C62=1.4260       C58-C53=1.4222       C58-C57=1.4066       C58-C59=1.4253       
C59-C56=1.4126       C59-C58=1.4253       C59-C60=1.4117       C60-C59=1.4117       C60-C63=1.4211       C60-C91=1.4181       
C61-C30=1.4430       C61-C62=1.4116       C61-C65=1.3972       C62-C57=1.4260       C62-C61=1.4116       C62-C63=1.4198       
C63-C60=1.4211       C63-C62=1.4198       C63-C64=1.4129       C64-C63=1.4129       C64-C66=1.3980       C64-C95=1.4388       
C65-C61=1.3972       C65-C66=1.3689       C65-H191=1.0773      C66-C64=1.3980       C66-C65=1.3689       C66-H192=1.0772      
C67-C36=1.4359       C67-C68=1.3992       C67-C72=1.4146       C68-C67=1.3992       C68-C69=1.3656       C68-H176=1.0771      
C69-C68=1.3656       C69-C70=1.4019       C69-H177=1.0783      C70-C69=1.4019       C70-C73=1.4199       C70-C101=1.4232      
C71-C40=1.4167       C71-C72=1.4255       C71-C76=1.4109       C72-C67=1.4146       C72-C71=1.4255       C72-C73=1.4179       
C73-C70=1.4199       C73-C72=1.4179       C73-C74=1.4390       C74-C73=1.4390       C74-C77=1.4137       C74-C105=1.4006      
C75-C44=1.4139       C75-C76=1.4121       C75-C80=1.4162       C76-C71=1.4109       C76-C75=1.4121       C76-C77=1.4217       
C77-C74=1.4137       C77-C76=1.4217       C77-C78=1.4158       C78-C77=1.4158       C78-C81=1.4168       C78-C108=1.4141      
C79-C48=1.4157       C79-C80=1.4098       C79-C84=1.4130       C80-C75=1.4162       C80-C79=1.4098       C80-C81=1.4142       
C81-C78=1.4168       C81-C80=1.4142       C81-C82=1.4100       C82-C81=1.4100       C82-C85=1.4133       C82-C112=1.4157      
C83-C52=1.4162       C83-C84=1.4138       C83-C88=1.4088       C84-C79=1.4130       C84-C83=1.4138       C84-C85=1.4116       
C85-C82=1.4133       C85-C84=1.4116       C85-C86=1.4135       C86-C85=1.4135       C86-C89=1.4090       C86-C116=1.4163      
C87-C56=1.4142       C87-C88=1.4150       C87-C92=1.4128       C88-C83=1.4088       C88-C87=1.4150       C88-C89=1.4152       
C89-C86=1.4090       C89-C88=1.4152       C89-C90=1.4147       C90-C89=1.4147       C90-C93=1.4127       C90-C120=1.4134      
C91-C60=1.4181       C91-C92=1.4089       C91-C96=1.4224       C92-C87=1.4128       C92-C91=1.4089       C92-C93=1.4226       
C93-C90=1.4127       C93-C92=1.4226       C93-C94=1.4087       C94-C93=1.4087       C94-C97=1.4219       C94-C124=1.4174      
C95-C64=1.4388       C95-C96=1.4102       C95-C99=1.4003       C96-C91=1.4224       C96-C95=1.4102       C96-C97=1.4201       
C97-C94=1.4219       C97-C96=1.4201       C97-C98=1.4104       C98-C97=1.4104       C98-C100=1.4000      C98-C128=1.4388      
C99-C95=1.4003       C99-C100=1.3681      C99-H193=1.0773      C100-C98=1.4000      C100-C99=1.3681      C100-H194=1.0774     
C101-C70=1.4232      C101-C102=1.3723     C101-S201=1.7824     C102-C101=1.3723     C102-C103=1.3882     C102-H178=1.0806     
C103-C102=1.3882     C103-C104=1.4004     C103-H179=1.0758     C104-C103=1.4004     C104-C106=1.3985     C104-C134=1.4470     
C105-C74=1.4006      C105-C109=1.3988     C105-S201=1.7742     C106-C104=1.3985     C106-C107=1.3982     C106-S201=1.7820     
C107-C106=1.3982     C107-C110=1.4229     C107-C138=1.4286     C108-C78=1.4141      C108-C109=1.4158     C108-C113=1.4156     
C109-C105=1.3988     C109-C108=1.4158     C109-C110=1.4371     C110-C107=1.4229     C110-C109=1.4371     C110-C111=1.4162     
C111-C110=1.4162     C111-C114=1.4256     C111-C142=1.4200     C112-C82=1.4157      C112-C113=1.4096     C112-C117=1.4138     
C113-C108=1.4156     C113-C112=1.4096     C113-C114=1.4146     C114-C111=1.4256     C114-C113=1.4146     C114-C115=1.4084     
C115-C114=1.4084     C115-C118=1.4176     C115-C145=1.4166     C116-C86=1.4163      C116-C117=1.4139     C116-C121=1.4098     
C117-C112=1.4138     C117-C116=1.4139     C117-C118=1.4105     C118-C115=1.4176     C118-C117=1.4105     C118-C119=1.4173     
C119-C118=1.4173     C119-C122=1.4097     C119-C149=1.4180     C120-C90=1.4134      C120-C121=1.4165     C120-C125=1.4115     
C121-C116=1.4098     C121-C120=1.4165     C121-C122=1.4166     C122-C119=1.4097     C122-C121=1.4166     C122-C123=1.4221     
C123-C122=1.4221     C123-C126=1.4216     C123-C153=1.4154     C124-C94=1.4174      C124-C125=1.4112     C124-C129=1.4208     
C125-C120=1.4115     C125-C124=1.4112     C125-C126=1.4245     C126-C123=1.4216     C126-C125=1.4245     C126-C127=1.4058     
C127-C126=1.4058     C127-C130=1.4259     C127-C156=1.4197     C128-C98=1.4388      C128-C129=1.4122     C128-C132=1.3985     
C129-C124=1.4208     C129-C128=1.4122     C129-C130=1.4190     C130-C127=1.4259     C130-C129=1.4190     C130-C131=1.4108     
C131-C130=1.4108     C131-C133=1.3977     C131-C160=1.4429     C132-C128=1.3985     C132-C133=1.3693     C132-H195=1.0774     
C133-C131=1.3977     C133-C132=1.3693     C133-H196=1.0775     C134-C104=1.4470     C134-C135=1.3919     C134-C139=1.4180     
C135-C134=1.3919     C135-C136=1.3865     C135-H180=1.0774     C136-C135=1.3865     C136-C137=1.3724     C136-H181=1.0799     
C137-C136=1.3724     C137-C140=1.4008     C137-H182=1.0796     C138-C107=1.4286     C138-C139=1.4260     C138-C143=1.4149     
C139-C134=1.4180     C139-C138=1.4260     C139-C140=1.4172     C140-C137=1.4008     C140-C139=1.4172     C140-C141=1.4049     
C141-C140=1.4049     C141-C144=1.3641     C141-H183=1.0799     C142-C111=1.4200     C142-C143=1.4285     C142-C146=1.4299     
C143-C138=1.4149     C143-C142=1.4285     C143-C144=1.4218     C144-C141=1.3641     C144-C143=1.4218     C144-S200=1.7488     
C145-C115=1.4166     C145-C146=1.4188     C145-C150=1.4188     C146-C142=1.4299     C146-C145=1.4188     C146-C147=1.4168     
C147-C146=1.4168     C147-C148=1.3684     C147-S200=1.7455     C148-C147=1.3684     C148-C151=1.3992     C148-H184=1.0795     
C149-C119=1.4180     C149-C150=1.4196     C149-C154=1.4184     C150-C145=1.4188     C150-C149=1.4196     C150-C151=1.4114     
C151-C148=1.3992     C151-C150=1.4114     C151-C152=1.3970     C152-C151=1.3970     C152-C155=1.3702     C152-H185=1.0795     
C153-C123=1.4154     C153-C154=1.4335     C153-C157=1.4256     C154-C149=1.4184     C154-C153=1.4335     C154-C155=1.4149     
C155-C152=1.3702     C155-C154=1.4149     C155-S199=1.7465     C156-C127=1.4197     C156-C157=1.4176     C156-C161=1.4236     
C157-C153=1.4256     C157-C156=1.4176     C157-C158=1.4224     C158-C157=1.4224     C158-C159=1.3639     C158-S199=1.7491     
C159-C158=1.3639     C159-C162=1.4068     C159-H186=1.0799     C160-C131=1.4429     C160-C161=1.4156     C160-C164=1.3937     
C161-C156=1.4236     C161-C160=1.4156     C161-C162=1.4161     C162-C159=1.4068     C162-C161=1.4161     C162-C163=1.4000     
C163-C162=1.4000     C163-C165=1.3738     C163-H187=1.0797     C164-C160=1.3937     C164-C165=1.3862     C164-H197=1.0775     
C165-C163=1.3738     C165-C164=1.3862     C165-H188=1.0801     H166-C1=1.0792       H167-C2=1.0791       H168-C3=1.0762       
H169-C8=1.0798       H170-C12=1.0799      H171-C16=1.0797      H172-C23=1.0798      H173-C27=1.0797      H174-C34=1.0767      
H175-C35=1.0775      H176-C68=1.0771      H177-C69=1.0783      H178-C102=1.0806     H179-C103=1.0758     H180-C135=1.0774     
H181-C136=1.0799     H182-C137=1.0796     H183-C141=1.0799     H184-C148=1.0795     H185-C152=1.0795     H186-C159=1.0799     
H187-C163=1.0797     H188-C165=1.0801     H189-C31=1.0801      H190-C32=1.0774      H191-C65=1.0773      H192-C66=1.0772      
H193-C99=1.0773      H194-C100=1.0774     H195-C132=1.0774     H196-C133=1.0775     H197-C164=1.0775     S198-C20=1.7485      
S198-C24=1.7501      S199-C155=1.7465     S199-C158=1.7491     S200-C144=1.7488     S200-C147=1.7455     S201-C101=1.7824     
S201-C105=1.7742     S201-C106=1.7820     S202-C5=1.7468       S202-C9=1.7501       
 C  H  Rav=1.0786 sigma=0.0014  Rmin=1.0758  Rmax=1.0806    32
 C  C  Rav=1.4110 sigma=0.0161  Rmin=1.3629  Rmax=1.4470   226
 S  C  Rav=1.7567 sigma=0.0142  Rmin=1.7455  Rmax=1.7824    11
 
 selected bond angles (degree)
 --------------------
C5-C1-C2=119.91                H166-C1-C2=121.21              H166-C1-C5=118.88              C3-C2-C1=119.14                
H167-C2-C1=120.28              H167-C2-C3=120.58              C4-C3-C2=121.92                H168-C3-C2=117.90              
H168-C3-C4=120.18              C6-C4-C3=119.80                C33-C4-C3=120.70               C33-C4-C6=119.45               
C6-C5-C1=122.73                S202-C5-C1=113.87              S202-C5-C6=123.37              C5-C6-C4=116.40                
C7-C6-C4=120.29                C7-C6-C5=123.30                C10-C7-C6=122.07               C37-C7-C6=118.92               
C37-C7-C10=118.98              C13-C8-C9=121.42               H169-C8-C9=119.40              H169-C8-C13=119.18             
C10-C9-C8=122.76               S202-C9-C8=114.30              S202-C9-C10=122.90             C9-C10-C7=123.45               
C11-C10-C7=120.28              C11-C10-C9=116.27              
 
 selected dihedral angles (degree)
 ---------------------------------
C3-C2-C1-C5=  1.91            C3-C2-C1-H166=181.79          H167-C2-C1-C5=181.14          H167-C2-C1-H166=  1.02        
C4-C3-C2-C1=359.13            C4-C3-C2-H167=179.91          H168-C3-C2-C1=178.67          H168-C3-C2-H167=359.44        
C6-C4-C3-C2=358.03            C6-C4-C3-H168=178.50          C33-C4-C3-C2=175.41           C33-C4-C3-H168=355.88         
C6-C5-C1-C2=359.89            C6-C5-C1-H166=180.00          S202-C5-C1-C2=181.76          S202-C5-C1-H166=  1.88        
C5-C6-C4-C3=  3.59            C5-C6-C4-C33=186.17           C7-C6-C4-C3=184.56            C7-C6-C4-C33=  7.15           
C4-C6-C5-C1=357.38            C4-C6-C5-S202=175.32          C7-C6-C5-C1=176.37            C7-C6-C5-S202=354.32          
C10-C7-C6-C4=172.24           C10-C7-C6-C5=353.29           C37-C7-C6-C4=354.23           C37-C7-C6-C5=175.28           
C10-C9-C8-C13=  0.38          C10-C9-C8-H169=180.19         S202-C9-C8-C13=178.28         S202-C9-C8-H169=358.09        
C9-C10-C7-C6=  6.56           C9-C10-C7-C37=184.57          C11-C10-C7-C6=187.36          C11-C10-C7-C37=  5.37         
C7-C10-C9-C8=183.59           C7-C10-C9-S202=  5.87         C11-C10-C9-C8=  2.82          C11-C10-C9-S202=185.10        
           -------------------------------------------------
          |                Final Singlepoint                |
           -------------------------------------------------

          ...................................................
          :                      SETUP                      :
          :.................................................:
          :  # basis functions                 742          :
          :  # atomic orbitals                 737          :
          :  # shells                          377          :
          :  # electrons                       722          :
          :  max. iterations                   250          :
          :  Hamiltonian                  GFN2-xTB          :
          :  restarted?                      false          :
          :  GBSA solvation                  false          :
          :  PC potential                    false          :
          :  electronic temp.          300.0000000     K    :
          :  accuracy                    1.0000000          :
          :  -> integral cutoff          0.2500000E+02      :
          :  -> integral neglect         0.1000000E-07      :
          :  -> SCF convergence          0.1000000E-05 Eh   :
          :  -> wf. convergence          0.1000000E-03 e    :
          :  Broyden damping             0.4000000          :
          :  net charge                          0          :
          :  unpaired electrons                  0          :
          ...................................................

 iter      E             dE          RMSdq      gap      omega  full diag
   1   -394.6460685 -0.394646E+03  0.306E-05    0.43       0.0  T
   2   -394.6460685  0.767386E-10  0.301E-05    0.43     234.0  T
   3   -394.6460685 -0.338503E-09  0.800E-06    0.43     880.0  T

   *** convergence criteria satisfied after 3 iterations ***

         #    Occupation            Energy/Eh            Energy/eV
      -------------------------------------------------------------
         1        2.0000           -0.7621824             -20.7400
       ...           ...                  ...                  ...
       355        2.0000           -0.3677317             -10.0065
       356        2.0000           -0.3577555              -9.7350
       357        2.0000           -0.3549302              -9.6581
       358        2.0000           -0.3528740              -9.6022
       359        2.0000           -0.3497367              -9.5168
       360        2.0000           -0.3434329              -9.3453
       361        1.9995           -0.3335013              -9.0750 (HOMO)
       362        0.0005           -0.3178523              -8.6492 (LUMO)
       363                         -0.2995093              -8.1501
       364                         -0.2959062              -8.0520
       365                         -0.2919893              -7.9454
       366                         -0.2816172              -7.6632
       ...                                ...                  ...
       737                          0.7861648              21.3926
      -------------------------------------------------------------
                  HL-Gap            0.0156490 Eh            0.4258 eV
             Fermi-level           -0.3256768 Eh           -8.8621 eV

 SCC (total)                   0 d,  0 h,  0 min,  1.113 sec
 SCC setup                      ...        0 min,  0.005 sec (  0.449%)
 Dispersion                     ...        0 min,  0.009 sec (  0.809%)
 classical contributions        ...        0 min,  0.001 sec (  0.090%)
 integral evaluation            ...        0 min,  0.090 sec (  8.086%)
 iterations                     ...        0 min,  0.559 sec ( 50.225%)
 molecular gradient             ...        0 min,  0.433 sec ( 38.904%)
 printout                       ...        0 min,  0.016 sec (  1.438%)

         :::::::::::::::::::::::::::::::::::::::::::::::::::::
         ::                     SUMMARY                     ::
         :::::::::::::::::::::::::::::::::::::::::::::::::::::
         :: total energy            -387.275144732997 Eh    ::
         :: gradient norm              0.000273168321 Eh/a0 ::
         :: HOMO-LUMO gap              0.425830034702 eV    ::
         ::.................................................::
         :: SCC energy              -394.662177625823 Eh    ::
         :: -> isotropic ES            0.008159485362 Eh    ::
         :: -> anisotropic ES          0.014043201949 Eh    ::
         :: -> anisotropic XC          0.131769776834 Eh    ::
         :: -> dispersion             -0.506492255019 Eh    ::
         :: repulsion energy           7.387032892825 Eh    ::
         :: add. restraining           0.000000000000 Eh    ::
         :: total charge              -0.000000000000 e     ::
         :::::::::::::::::::::::::::::::::::::::::::::::::::::

           -------------------------------------------------
          |                Property Printout                |
           -------------------------------------------------

    * Orbital Energies and Occupations

         #    Occupation            Energy/Eh            Energy/eV
      -------------------------------------------------------------
         1        2.0000           -0.7621824             -20.7400
       ...           ...                  ...                  ...
       349        2.0000           -0.3870613             -10.5325
       350        2.0000           -0.3853530             -10.4860
       351        2.0000           -0.3846843             -10.4678
       352        2.0000           -0.3821177             -10.3980
       353        2.0000           -0.3705204             -10.0824
       354        2.0000           -0.3682925             -10.0217
       355        2.0000           -0.3677317             -10.0065
       356        2.0000           -0.3577555              -9.7350
       357        2.0000           -0.3549302              -9.6581
       358        2.0000           -0.3528740              -9.6022
       359        2.0000           -0.3497367              -9.5168
       360        2.0000           -0.3434329              -9.3453
       361        1.9995           -0.3335013              -9.0750 (HOMO)
       362        0.0005           -0.3178523              -8.6492 (LUMO)
       363                         -0.2995093              -8.1501
       364                         -0.2959062              -8.0520
       365                         -0.2919893              -7.9454
       366                         -0.2816172              -7.6632
       367                         -0.2788459              -7.5878
       368                         -0.2774299              -7.5493
       369                         -0.2689019              -7.3172
       370                         -0.2685389              -7.3073
       371                         -0.2648127              -7.2059
       372                         -0.2638287              -7.1791
       ...                                ...                  ...
       737                          0.7861648              21.3926
      -------------------------------------------------------------
                  HL-Gap            0.0156490 Eh            0.4258 eV
             Fermi-level           -0.3256768 Eh           -8.8621 eV

     #   Z          covCN         q      C6AA      α(0)
     1   6 C        3.026    -0.043    29.041     8.839
     2   6 C        2.916    -0.029    28.714     8.787
     3   6 C        2.925    -0.042    29.054     8.840
     4   6 C        2.984     0.007    27.861     8.658
     5   6 C        2.972     0.047    26.939     8.514
     6   6 C        3.003    -0.000    28.018     8.683
     7   6 C        2.971     0.004    27.928     8.668
     8   6 C        3.031    -0.055    29.338     8.884
     9   6 C        2.964     0.045    26.996     8.522
    10   6 C        2.999     0.001    28.001     8.680
    11   6 C        2.990     0.001    28.005     8.681
    12   6 C        2.926    -0.047    29.177     8.858
    13   6 C        2.983     0.014    27.701     8.633
    14   6 C        2.993    -0.003    28.093     8.694
    15   6 C        2.991     0.003    27.954     8.673
    16   6 C        3.029    -0.053    29.295     8.878
    17   6 C        2.984     0.014    27.701     8.633
    18   6 C        2.994    -0.004    28.115     8.698
    19   6 C        2.991     0.001    27.987     8.678
    20   6 C        2.966     0.046    26.961     8.517
    21   6 C        3.001    -0.001    28.045     8.687
    22   6 C        2.973     0.004    27.925     8.668
    23   6 C        3.030    -0.053    29.291     8.877
    24   6 C        2.965     0.045    26.990     8.522
    25   6 C        3.001    -0.000    28.026     8.684
    26   6 C        2.988     0.001    27.997     8.679
    27   6 C        2.923    -0.037    28.930     8.820
    28   6 C        2.988     0.013    27.710     8.635
    29   6 C        2.994    -0.001    28.048     8.688
    30   6 C        2.978     0.007    27.859     8.658
    31   6 C        2.914    -0.029    28.718     8.787
    32   6 C        2.923    -0.038    28.949     8.823
    33   6 C        2.982     0.004    27.927     8.669
    34   6 C        2.920    -0.037    28.920     8.819
    35   6 C        2.920    -0.037    28.926     8.820
    36   6 C        2.984     0.006    27.892     8.663
    37   6 C        2.984    -0.002    28.062     8.690
    38   6 C        2.989     0.002    27.973     8.676
    39   6 C        2.992    -0.000    28.028     8.684
    40   6 C        2.987     0.001    28.000     8.680
    41   6 C        2.989     0.000    28.018     8.683
    42   6 C        2.986     0.001    28.003     8.681
    43   6 C        2.988     0.001    28.006     8.681
    44   6 C        2.991    -0.000    28.022     8.683
    45   6 C        2.992     0.001    27.997     8.680
    46   6 C        2.990    -0.000    28.022     8.683
    47   6 C        2.992    -0.000    28.025     8.684
    48   6 C        2.992    -0.000    28.021     8.683
    49   6 C        2.989     0.000    28.009     8.681
    50   6 C        2.990    -0.000    28.023     8.684
    51   6 C        2.993    -0.000    28.020     8.683
    52   6 C        2.991     0.000    28.016     8.682
    53   6 C        2.985    -0.002    28.059     8.689
    54   6 C        2.987     0.001    28.001     8.680
[...]
    12   6 C       17   6 C                                       1.3915439
    16   6 C       17   6 C                                       1.4051234
    15   6 C       18   6 C                                       1.4128088
    17   6 C       18   6 C                                       1.4189215
    18   6 C       19   6 C                                       1.4194114
    16   6 C       20   6 C                                       1.3659664
    19   6 C       21   6 C                                       1.4170249
    20   6 C       21   6 C                                       1.4198876
    21   6 C       22   6 C                                       1.4298339
    23   6 C       24   6 C                                       1.3638904
    22   6 C       25   6 C                                       1.4274439
    24   6 C       25   6 C                                       1.4217004
    25   6 C       26   6 C                                       1.4169456
    23   6 C       28   6 C                                       1.4060273
    27   6 C       28   6 C                                       1.4003277
    26   6 C       29   6 C                                       1.4239265
    28   6 C       29   6 C                                       1.4162825
    29   6 C       30   6 C                                       1.4154981
    27   6 C       31   6 C                                       1.3732232
    30   6 C       32   6 C                                       1.3937454
    31   6 C       32   6 C                                       1.3862894
    33   6 C       34   6 C                                       1.4014325
    34   6 C       35   6 C                                       1.3663449
    35   6 C       36   6 C                                       1.4000913
     7   6 C       37   6 C                                       1.4156351
    33   6 C       38   6 C                                       1.4085224
    37   6 C       38   6 C                                       1.4278575
    36   6 C       39   6 C                                       1.4095771
    38   6 C       39   6 C                                       1.4197421
    39   6 C       40   6 C                                       1.4220565
    11   6 C       41   6 C                                       1.4172289
    37   6 C       42   6 C                                       1.4179618
    41   6 C       42   6 C                                       1.4100339
    40   6 C       43   6 C                                       1.4106982
    42   6 C       43   6 C                                       1.4247803
    43   6 C       44   6 C                                       1.4131697
    15   6 C       45   6 C                                       1.4158406
    41   6 C       46   6 C                                       1.4202278
    45   6 C       46   6 C                                       1.4095212
    44   6 C       47   6 C                                       1.4152147
    46   6 C       47   6 C                                       1.4135007
    47   6 C       48   6 C                                       1.4106318
    19   6 C       49   6 C                                       1.4194522
    45   6 C       50   6 C                                       1.4136189
    49   6 C       50   6 C                                       1.4175600
    48   6 C       51   6 C                                       1.4135038
    50   6 C       51   6 C                                       1.4113807
    51   6 C       52   6 C                                       1.4135694
    22   6 C       53   6 C                                       1.4171443
    49   6 C       54   6 C                                       1.4099591
    53   6 C       54   6 C                                       1.4212411
    52   6 C       55   6 C                                       1.4104348
    54   6 C       55   6 C                                       1.4183657
    55   6 C       56   6 C                                       1.4162516
    26   6 C       57   6 C                                       1.4213872
    53   6 C       58   6 C                                       1.4221845
    57   6 C       58   6 C                                       1.4065918
    56   6 C       59   6 C                                       1.4125703
    58   6 C       59   6 C                                       1.4253118
    59   6 C       60   6 C                                       1.4117110
    57   6 C       62   6 C                                       1.4259895
    61   6 C       62   6 C                                       1.4116081
    60   6 C       63   6 C                                       1.4211091
    62   6 C       63   6 C                                       1.4197777
    63   6 C       64   6 C                                       1.4129102
    61   6 C       65   6 C                                       1.3971511
    64   6 C       66   6 C                                       1.3980069
    65   6 C       66   6 C                                       1.3688810
    67   6 C       68   6 C                                       1.3991767
    68   6 C       69   6 C                                       1.3656482
    69   6 C       70   6 C                                       1.4018554
    40   6 C       71   6 C                                       1.4166603
    67   6 C       72   6 C                                       1.4146241
    71   6 C       72   6 C                                       1.4255317
    70   6 C       73   6 C                                       1.4198643
    72   6 C       73   6 C                                       1.4179056
    44   6 C       75   6 C                                       1.4139377
    71   6 C       76   6 C                                       1.4109281
    75   6 C       76   6 C                                       1.4120578
    74   6 C       77   6 C                                       1.4137087
    76   6 C       77   6 C                                       1.4216503
    77   6 C       78   6 C                                       1.4157942
    48   6 C       79   6 C                                       1.4157188
    75   6 C       80   6 C                                       1.4162232
    79   6 C       80   6 C                                       1.4097610
    78   6 C       81   6 C                                       1.4167628
    80   6 C       81   6 C                                       1.4142255
    81   6 C       82   6 C                                       1.4100203
    52   6 C       83   6 C                                       1.4162312
    79   6 C       84   6 C                                       1.4129856
    83   6 C       84   6 C                                       1.4137716
    82   6 C       85   6 C                                       1.4132586
    84   6 C       85   6 C                                       1.4116029
    85   6 C       86   6 C                                       1.4134925
    56   6 C       87   6 C                                       1.4141885
    83   6 C       88   6 C                                       1.4087597
    87   6 C       88   6 C                                       1.4150399
    86   6 C       89   6 C                                       1.4090366
    88   6 C       89   6 C                                       1.4151636
    89   6 C       90   6 C                                       1.4146838
    60   6 C       91   6 C                                       1.4181476
    87   6 C       92   6 C                                       1.4127932
    91   6 C       92   6 C                                       1.4089369
    90   6 C       93   6 C                                       1.4127079
    92   6 C       93   6 C                                       1.4225852
    93   6 C       94   6 C                                       1.4086959
    91   6 C       96   6 C                                       1.4223859
    95   6 C       96   6 C                                       1.4102221
    94   6 C       97   6 C                                       1.4219359
    96   6 C       97   6 C                                       1.4201134
    97   6 C       98   6 C                                       1.4103809
    95   6 C       99   6 C                                       1.4003050
    98   6 C      100   6 C                                       1.3999509
    99   6 C      100   6 C                                       1.3681181
    70   6 C      101   6 C                                       1.4232264
   101   6 C      102   6 C                                       1.3722524
   102   6 C      103   6 C                                       1.3882116
   103   6 C      104   6 C                                       1.4003950
    74   6 C      105   6 C                                       1.4006479
   104   6 C      106   6 C                                       1.3984574
   106   6 C      107   6 C                                       1.3982047
    78   6 C      108   6 C                                       1.4140973
   105   6 C      109   6 C                                       1.3988000
   108   6 C      109   6 C                                       1.4158063
   107   6 C      110   6 C                                       1.4228892
   109   6 C      110   6 C                                       1.4370796
   110   6 C      111   6 C                                       1.4162464
    82   6 C      112   6 C                                       1.4156785
   108   6 C      113   6 C                                       1.4156374
   112   6 C      113   6 C                                       1.4095574
   111   6 C      114   6 C                                       1.4256303
   113   6 C      114   6 C                                       1.4146403
   114   6 C      115   6 C                                       1.4084003
    86   6 C      116   6 C                                       1.4162763
   112   6 C      117   6 C                                       1.4138147
   116   6 C      117   6 C                                       1.4139053
   115   6 C      118   6 C                                       1.4176146
   117   6 C      118   6 C                                       1.4104568
   118   6 C      119   6 C                                       1.4173365
    90   6 C      120   6 C                                       1.4133811
   116   6 C      121   6 C                                       1.4097765
   120   6 C      121   6 C                                       1.4165272
   119   6 C      122   6 C                                       1.4097131
   121   6 C      122   6 C                                       1.4166197
   122   6 C      123   6 C                                       1.4220993
    94   6 C      124   6 C                                       1.4173555
   120   6 C      125   6 C                                       1.4114539
   124   6 C      125   6 C                                       1.4111861
   123   6 C      126   6 C                                       1.4215594
   125   6 C      126   6 C                                       1.4245380
   126   6 C      127   6 C                                       1.4057685
   124   6 C      129   6 C                                       1.4208259
   128   6 C      129   6 C                                       1.4122301
   127   6 C      130   6 C                                       1.4258953
   129   6 C      130   6 C                                       1.4189784
   130   6 C      131   6 C                                       1.4107849
   128   6 C      132   6 C                                       1.3984633
   131   6 C      133   6 C                                       1.3976752
   132   6 C      133   6 C                                       1.3692619
   134   6 C      135   6 C                                       1.3919246
   135   6 C      136   6 C                                       1.3864654
   136   6 C      137   6 C                                       1.3724458
   107   6 C      138   6 C                                       1.4285968
   134   6 C      139   6 C                                       1.4179803
   138   6 C      139   6 C                                       1.4260046
   137   6 C      140   6 C                                       1.4008276
   139   6 C      140   6 C                                       1.4171769
   140   6 C      141   6 C                                       1.4048878
   111   6 C      142   6 C                                       1.4199930
   138   6 C      143   6 C                                       1.4149254
   142   6 C      143   6 C                                       1.4284812
   141   6 C      144   6 C                                       1.3640755
   143   6 C      144   6 C                                       1.4218149
   115   6 C      145   6 C                                       1.4166292
   142   6 C      146   6 C                                       1.4298618
   145   6 C      146   6 C                                       1.4188393
   146   6 C      147   6 C                                       1.4168445
   147   6 C      148   6 C                                       1.3683718
   119   6 C      149   6 C                                       1.4179818
   145   6 C      150   6 C                                       1.4187863
   149   6 C      150   6 C                                       1.4195775
   148   6 C      151   6 C                                       1.3992432
   150   6 C      151   6 C                                       1.4113869
   151   6 C      152   6 C                                       1.3970386
   123   6 C      153   6 C                                       1.4154101
   149   6 C      154   6 C                                       1.4184095
   153   6 C      154   6 C                                       1.4334924
   152   6 C      155   6 C                                       1.3701964
   154   6 C      155   6 C                                       1.4149468
   127   6 C      156   6 C                                       1.4197355
   153   6 C      157   6 C                                       1.4256336
   156   6 C      157   6 C                                       1.4176452
   157   6 C      158   6 C                                       1.4224231
   158   6 C      159   6 C                                       1.3639448
   156   6 C      161   6 C                                       1.4235704
   160   6 C      161   6 C                                       1.4156164
   159   6 C      162   6 C                                       1.4067641
   161   6 C      162   6 C                                       1.4161095
   162   6 C      163   6 C                                       1.4000244
   160   6 C      164   6 C                                       1.3937226
   163   6 C      165   6 C                                       1.3737875
   164   6 C      165   6 C                                       1.3862199
     1   6 C      166   1 H                                       1.0792317
     2   6 C      167   1 H                                       1.0790903
     3   6 C      168   1 H                                       1.0761578
     8   6 C      169   1 H                                       1.0798269
    12   6 C      170   1 H                                       1.0798748
    16   6 C      171   1 H                                       1.0797292
    23   6 C      172   1 H                                       1.0798310
    27   6 C      173   1 H                                       1.0796849
    34   6 C      174   1 H                                       1.0767437
    35   6 C      175   1 H                                       1.0775320
    68   6 C      176   1 H                                       1.0771366
    69   6 C      177   1 H                                       1.0782994
   102   6 C      178   1 H                                       1.0806206
   103   6 C      179   1 H                                       1.0757635 (min)
   135   6 C      180   1 H                                       1.0773546
   136   6 C      181   1 H                                       1.0799160
   137   6 C      182   1 H                                       1.0796434
   141   6 C      183   1 H                                       1.0799310
   148   6 C      184   1 H                                       1.0794595
   152   6 C      185   1 H                                       1.0795244
   159   6 C      186   1 H                                       1.0798648
   163   6 C      187   1 H                                       1.0797075
   165   6 C      188   1 H                                       1.0801336
    31   6 C      189   1 H                                       1.0801082
    32   6 C      190   1 H                                       1.0773630
    65   6 C      191   1 H                                       1.0772600
    66   6 C      192   1 H                                       1.0772203
    99   6 C      193   1 H                                       1.0773179
   100   6 C      194   1 H                                       1.0774441
   132   6 C      195   1 H                                       1.0774196
   133   6 C      196   1 H                                       1.0774542
   164   6 C      197   1 H                                       1.0775498
    20   6 C      198  16 S                                       1.7485193
    24   6 C      198  16 S                                       1.7500936
   155   6 C      199  16 S                                       1.7464772
   158   6 C      199  16 S                                       1.7490632
   144   6 C      200  16 S                                       1.7488002
   147   6 C      200  16 S                                       1.7454580
   101   6 C      201  16 S                                       1.7823825 (max)
   105   6 C      201  16 S                                       1.7742200
   106   6 C      201  16 S                                       1.7819755
     5   6 C      202  16 S                                       1.7468492
     9   6 C      202  16 S                                       1.7500600

 * 3 distinct bonds (by element types)

   Z      Z             #   av. dist./Å        max./Å        min./Å
   1 H    6 C          32     1.0785686     1.0806206     1.0757635
   6 C    6 C         217     1.4097244     1.4370796     1.3629396
   6 C   16 S          11     1.7567181     1.7823825     1.7454580


optimized geometry written to: xtbopt.xyz


           -------------------------------------------------
          | TOTAL ENERGY             -387.275144732997 Eh   |
          | GRADIENT NORM               0.000273168321 Eh/α |
          | HOMO-LUMO GAP               0.425830034702 eV   |
           -------------------------------------------------

------------------------------------------------------------------------
 * finished run on 2025/12/08 at 00:49:44.105     
------------------------------------------------------------------------
 total:
 * wall-time:     0 d,  0 h,  0 min, 42.872 sec
 *  cpu-time:     0 d,  0 h,  2 min, 48.359 sec
 * ratio c/w:     3.927 speedup
 SCF:
 * wall-time:     0 d,  0 h,  0 min,  3.050 sec
 *  cpu-time:     0 d,  0 h,  0 min, 12.062 sec
 * ratio c/w:     3.955 speedup
 ANC optimizer:
 * wall-time:     0 d,  0 h,  0 min, 39.642 sec
 *  cpu-time:     0 d,  0 h,  2 min, 35.703 sec
 * ratio c/w:     3.928 speedup

normal termination of xtb
