202
 energy: -387.275144732997 gnorm: 0.000273168321 xtb: 6.7.1pre (5071a88)
C           -9.83075295866882       -8.64486974425574       -0.36753837848891
C           -9.16825342841779       -9.70316503124550       -0.95905693186678
C           -7.82526469088700       -9.58708440841064       -1.22526973099327
C           -7.10960173557091       -8.41854485089480       -0.93051806080160
C           -9.14901210712961       -7.47336043894307       -0.08791674808484
C           -7.78364119608406       -7.29985212258854       -0.37911547108480
C           -7.07806756173594       -6.05818170257157       -0.16269839006896
C           -9.77309625491166       -3.66579130326531        0.89053265037872
C           -9.12796245047646       -4.82572692095410        0.58076538176673
C           -7.74674911281400       -4.87074059919327        0.23339461054184
C           -7.04433315192384       -3.63540433718260        0.28475910675437
C           -9.76400611871903       -1.24036970638503        1.16004987750124
C           -9.10335793681861       -2.42720835298742        0.87698491636706
C           -7.71532970376432       -2.41930272237436        0.57535268485521
C           -7.02630212251287       -1.18679562201341        0.56565494193416
C           -9.75180920774852        1.18955612660436        1.40060476961163
C           -9.09513639679125       -0.02075302640515        1.12077634342269
C           -7.71246560144996        0.02471291309407        0.80535263559209
C           -7.04344862306035        1.27435136674625        0.73086508248507
C           -9.10006997322379        2.38688948219482        1.31404445478475
C           -7.73657207912842        2.49372156613724        0.93254638252977
C           -7.07217918536989        3.74454291132529        0.73645307077388
C           -9.83605102517928        6.27130245140405        1.00556506375276
C           -9.14202298710400        5.10191279791219        1.11068271307062
C           -7.76833404510731        4.99046704389532        0.76169812714453
C           -7.10555609610304        6.19097620913006        0.40499435848204
C           -9.93965366617210        8.63883787727951        0.41286299866316
C           -9.21189866783712        7.45246331091121        0.56715298579251
C           -7.82156021433744        7.41727136126328        0.29961548773026
C           -7.17458631936977        8.61672627044454       -0.08296424080063
C           -9.30435820428779        9.78237754617474       -0.00481896478407
C           -7.93872755795545        9.77128431387445       -0.24299517305894
C           -5.68363016016502       -8.35920035192622       -1.12928487824912
C           -4.96288999326545       -9.45927889871652       -1.61340621920665
C           -3.59763982362446       -9.45476208610689       -1.66790135429599
C           -2.85748576156815       -8.33641280011467       -1.26575434634078
C           -5.68195820525331       -6.01491572104241       -0.39297902746076
C           -4.97583702165345       -7.18483983440472       -0.80704069015013
C           -3.55966667349257       -7.16823317248432       -0.90630271180105
C           -2.83099772466623       -5.97468382982364       -0.64798948689045
C           -5.64525590029141       -3.61006476521759        0.06008546402633
C           -4.95758157789202       -4.80757277322347       -0.22500034910717
C           -3.53914817774855       -4.78953999587992       -0.35811688003596
C           -2.83043519600133       -3.57608757813615       -0.20876015547087
C           -5.63016043025767       -1.16672574648504        0.33115598558692
C           -4.94079313047723       -2.37849600168925        0.12346593153424
C           -3.53404801179130       -2.36375852322988       -0.01377394917564
C           -2.83580218930054       -1.13943837808263        0.04431838998210
C           -5.64805925860896        1.29042781973972        0.47110729549503
C           -4.94420844390466        0.06926138109773        0.32003632652423
C           -3.54117147915667        0.07931709715428        0.16712664575677
C           -2.84804993281899        1.31094461913698        0.13789698342695
C           -5.68472072792262        3.74560207819822        0.44791292965976
C           -4.96674234780317        2.52116708305550        0.37585789112895
C           -3.56005800616006        2.52716388368725        0.19429778308054
C           -2.86353007592773        3.75369875756397        0.06690308598831
C           -5.70581780329207        6.18010410566627        0.15810254634355
C           -4.99481376507331        4.96796458038753        0.21885663248424
C           -3.58152368971494        4.96974405800075        0.03413698255163
C           -2.88933734244293        6.18082306945081       -0.18287264117594
C           -5.74445070034577        8.60450912911674       -0.27447486339535
C           -5.02524937150829        7.39739354469173       -0.13935115433286
C           -3.61381293606162        7.39842441855855       -0.29302100312740
C           -2.92618834039943        8.60382266215038       -0.55854363418001
C           -5.03790059614135        9.77252445037057       -0.57206201818699
C           -3.67571950497535        9.77450321251650       -0.70731560928324
C           -1.42243005685271       -8.35857457981287       -1.22189364196281
C           -0.71456605097244       -9.55741040252055       -1.36123576785591
C            0.64882263573570       -9.58523814261745       -1.28780778029371
C            1.40196699283800       -8.41372709847031       -1.12801489740062
C           -1.41602658335788       -5.96753824878014       -0.71677676294422
C           -0.69593415152140       -7.16714387843591       -0.98982153374712
C            0.72190271754403       -7.17369427642370       -1.00213618082889
C            1.43314076410229       -5.94698983275215       -0.75702366449332
C           -1.41750608045121       -3.56860817386017       -0.26162610400585
C           -0.70859826463123       -4.77153640293360       -0.47214976557642
C            0.71301840096294       -4.76627339829413       -0.46392930777001
C            1.41687315151453       -3.55870890305293       -0.23843162843273
C           -1.42157734056079       -1.13289691607760       -0.02037044454539
C           -0.71336713407378       -2.34696239066044       -0.12949847632595
C            0.70081683278217       -2.34198053466757       -0.11989079683299
C            1.39883693540380       -1.12143319238002       -0.01411219166573
C           -1.43469630450845        1.31581440465906        0.04779631300330
C           -0.72288782670016        0.09478938592596        0.01349858286294
C            0.68868010807180        0.10028762756766        0.00525059214817
C            1.38917442424854        1.32799227021755        0.00214741446516
C           -1.45393080957693        3.75781087054824       -0.04685907375894
C           -0.73711162741258        2.53825421903099       -0.01237146632379
C            0.67755866143391        2.54303434971407       -0.04942325357278
C            1.37973529839100        3.76700874705611       -0.15024322679087
C           -1.47646350685579        6.18371124406836       -0.30502548465767
C           -0.75695451361858        4.97645054777161       -0.20536953625377
C            0.66408818904184        4.97898153976393       -0.27154674603986
C            1.36550364421503        6.18526148800494       -0.46475310021831
C           -1.49137776506027        8.60742258996942       -0.66567260006039
C           -0.77493542373566        7.40020961932974       -0.53123630162871
C            0.64202982333353        7.39875784109241       -0.62573011968610
C            1.33745407224676        8.60014842919590       -0.87516858712369
C           -0.76788729749842        9.78588438340251       -0.88622458799112
C            0.59621185660517        9.78210376896670       -0.99094291048661
C            2.81878735898420       -8.53745207667203       -1.07430054644304
C            3.55893291482142       -9.62988525618991       -0.69766994017783
C            4.93015615599637       -9.63664283285696       -0.48126237008995
C            5.69110945849292       -8.47500485767170       -0.30056089756376
C            2.82976639185198       -5.84571452271565       -0.78855821796577
C            5.16399017064918       -7.20069835172634       -0.53287752843937
C            5.69415517405768       -5.99417715853490       -0.06575060087447
C            2.82754070195734       -3.54850886005659       -0.14053515619381
C            3.56540133462319       -4.73754797788700       -0.35560414714401
C            4.97870844111075       -4.76462804291163       -0.09670806066977
C            5.63739322085259       -3.57135859044321        0.28799430862782
C            2.81232712094819       -1.11504229918667        0.06430865538422
C            3.52287285774736       -2.33240663921523        0.06351767240829
C            4.92586686590050       -2.33674538290437        0.24461399097278
C            5.60474287095133       -1.11240156465556        0.39856439536074
C            2.80481041041467        1.33581989655891        0.04400112045661
C            3.51013220340084        0.11307425494525        0.12488487885598
C            4.91310590291447        0.11833440368570        0.26988583129642
C            5.60889486273303        1.35284242933424        0.29653231742039
C            2.79307444345488        3.77277991877562       -0.14102712355495
C            3.50669551385327        2.55780816468773        0.00436079943360
C            4.91914691796607        2.56842679941746        0.11243190851001
C            5.63409274100744        3.79499302999074        0.03025089777470
C            2.78249412135627        6.18571447156897       -0.49690985359896
C            3.49761174631821        4.98631775379211       -0.29319398618378
C            4.92125000443687        4.99412616237482       -0.24318223193447
C            5.61741736823057        6.19293447864628       -0.47640838096609
C            2.77188802403100        8.58798880167997       -0.98691385857159
C            3.48683750357542        7.39251327559648       -0.75436470767768
C            4.90537725867711        7.38802504418306       -0.78935317628394
C            5.60135620257082        8.57055619612039       -1.11729692505761
C            3.49536083588902        9.73743438592384       -1.32017208873642
C            4.86270640552691        9.72498231575103       -1.39150916141645
C            7.02730508992871       -8.51845949950133        0.25307709857919
C            7.72982754036998       -9.71379179689195        0.37594573396291
C            9.01748135861036       -9.75458412012964        0.88836117482341
C            9.62997564741974       -8.59476516680894        1.29243771371886
C            7.00160608060670       -6.04088494023796        0.50807780247696
C            7.65120227425944       -7.30391926064831        0.63558454956047
C            8.96318797419763       -7.36917273706467        1.16739790416992
C            9.58053066615363       -6.17202926985377        1.56670339287963
C            6.98915516925984       -3.58166699654445        0.72275080748221
C            7.64330878321221       -4.84007832908873        0.89316808858908
C            8.95042280576337       -4.96912168175019        1.43755589207847
C            6.98780334054109       -1.10730392597710        0.70508626649471
C            7.64940021850049       -2.33601300859417        0.96134434956786
C            8.98089530018487       -2.24167686970210        1.43639121495000
C            9.64846594076229       -1.05026838191741        1.52204399493240
C            7.00730051740583        1.36646163955374        0.53094247495309
C            7.66388803321408        0.13655797980891        0.79820566235954
C            9.02465718422495        0.15245170665039        1.17246122789309
C            9.71072637389053        1.36890324445846        1.20811530081187
C            7.03759252447630        3.81976359914956        0.21180012347167
C            7.71257529480393        2.59709448990163        0.53487695467081
C            9.08465065135786        2.54159398446693        0.87605569856405
C            7.03413364085958        6.21442067979535       -0.38639866141075
C            7.73074545506350        5.05230439130797        0.03065681353907
C            9.13420395155834        5.18964990046444        0.21700984709367
C            9.81407033282367        6.32365233672023       -0.11790092658385
C            7.04413235179424        8.57264058324277       -1.13700861894500
C            7.73278206742736        7.41162427024510       -0.71066122103463
C            9.14573933109552        7.45262057495200       -0.62559104347310
C            9.85013698746524        8.59840939808241       -1.01425527866466
C            7.78401779430470        9.68306518889124       -1.53948722929065
C            9.16919898258287        9.69393418993432       -1.48695025971184
H          -10.87860733431073       -8.71042925360717       -0.11765031828904
H           -9.69831041682843      -10.61263923513533       -1.19640024175103
H           -7.32450620424226      -10.43141098217318       -1.66625603195359
H          -10.82109309889704       -3.69483943525893        1.14915334397939
H          -10.81532326212572       -1.26144525911282        1.40584955450445
H          -10.79185716934931        1.17287621609949        1.69015098298507
H          -10.88270889100788        6.29202552827678        1.27035306800983
H          -10.99900516681602        8.63397389258355        0.62135739799933
H           -5.47409002458449      -10.34837676871422       -1.94136398081045
H           -3.09931991296222      -10.33328877767641       -2.04332524530430
H           -1.23648701682588      -10.48883930989078       -1.50357982379194
H            1.16239454417299      -10.52719848684584       -1.39590002893566
H            3.02536284308088      -10.54103513064778       -0.46777958114986
H            5.37166923033878      -10.58790816243147       -0.24162208775554
H            7.28394350567036      -10.63932527411478        0.05149552857437
H            9.53141547817717      -10.70120630883287        0.96579790090143
H           10.62831855896556       -8.60557141434972        1.70332004075696
H           10.57522755055930       -6.20422335198044        1.98597954827779
H           10.66916401877673       -1.03731632898771        1.87309997360314
H           10.75240179425032        1.38507876069911        1.49099936559956
H           10.88404872868089        6.36087453265296        0.02305443470700
H           10.92741458498875        8.60068919210536       -0.94189639050273
H            9.70763917596348       10.57354430917182       -1.80797449497465
H           -9.86149205292610       10.69768502778705       -0.14064084789475
H           -7.47758380823357       10.69154298450388       -0.56108502282858
H           -5.55897614957122       10.70802982142956       -0.68953020270007
H           -3.19164971586372       10.71029372038597       -0.93176136769983
H           -1.27729717216606       10.73109000323219       -0.97398283448568
H            1.09368380818414       10.72397036748148       -1.15309872076140
H            2.98497138181199       10.66149098109463       -1.53570589308247
H            5.36580618532059       10.64257676603750       -1.64806006461570
H            7.28652979733595       10.56478144878617       -1.90853397464097
S          -10.06473058067603        3.77085811216988        1.77380502215873
S           10.11662798643817        3.94804596210588        0.96030257078765
S            9.88513954846164       -3.61327972679048        2.02602759222775
S            3.75055160592292       -7.11741871721372       -1.61486268219541
S          -10.12480060985581       -6.25898435239984        0.70240542677213
