202
 energy: -387.246586452393 gnorm: 0.052609787750 xtb: 6.7.1pre (5071a88)
C           -9.94139000000000       -8.67498700000000       -0.41718500000000
C           -9.25880600000000       -9.75175500000000       -0.98553200000000
C           -7.89662500000000       -9.66137400000000       -1.19321100000000
C           -7.17466700000000       -8.49131800000000       -0.86516100000000
C           -9.25222100000000       -7.51216700000000       -0.09341200000000
C           -7.86210900000000       -7.35749200000000       -0.34351900000000
C           -7.14502100000000       -6.10135600000000       -0.12317400000000
C           -9.88712700000000       -3.66651000000000        0.77077200000000
C           -9.23205300000000       -4.84268900000000        0.53679200000000
C           -7.82136500000000       -4.89428500000000        0.23523500000000
C           -7.10892300000000       -3.65375000000000        0.27436900000000
C           -9.87059800000000       -1.22582200000000        1.01266000000000
C           -9.20063800000000       -2.42399700000000        0.77117500000000
C           -7.79123900000000       -2.42236300000000        0.53008000000000
C           -7.09186500000000       -1.18654700000000        0.53321200000000
C           -9.86341300000000        1.21622900000000        1.26966000000000
C           -9.19112400000000       -0.00289800000000        1.00804900000000
C           -7.78735700000000        0.03373300000000        0.75255600000000
C           -7.10531500000000        1.29103800000000        0.70426100000000
C           -9.19721100000000        2.41296400000000        1.24979500000000
C           -7.80600200000000        2.51321700000000        0.90839600000000
C           -7.13108200000000        3.77764100000000        0.73468700000000
C           -9.93079500000000        6.30673100000000        0.93552000000000
C           -9.23245000000000        5.13920900000000        1.07271300000000
C           -7.83357600000000        5.03577900000000        0.75066400000000
C           -7.16054800000000        6.24030400000000        0.39965700000000
C          -10.01603300000000        8.70222300000000        0.37987400000000
C           -9.28938800000000        7.50536000000000        0.52930200000000
C           -7.88301900000000        7.47893600000000        0.29132200000000
C           -7.22333200000000        8.68977800000000       -0.06678500000000
C           -9.36515100000000        9.86516500000000        0.00308900000000
C           -7.98566600000000        9.85899800000000       -0.21315900000000
C           -5.72911500000000       -8.44646800000000       -1.00901100000000
C           -4.99857900000000       -9.58828900000000       -1.39609300000000
C           -3.62649600000000       -9.58181000000000       -1.45134500000000
C           -2.88450000000000       -8.42435400000000       -1.14094500000000
C           -5.73554400000000       -6.06225400000000       -0.34186600000000
C           -5.02069200000000       -7.25343900000000       -0.72452100000000
C           -3.59169500000000       -7.23730400000000       -0.82099500000000
C           -2.85969800000000       -6.02478900000000       -0.59575300000000
C           -5.69608500000000       -3.63367200000000        0.07406800000000
C           -5.00500100000000       -4.84279700000000       -0.19329300000000
C           -3.57140800000000       -4.82679400000000       -0.32272400000000
C           -2.85787200000000       -3.60284200000000       -0.18349200000000
C           -5.67912800000000       -1.17148400000000        0.33321300000000
C           -4.98425300000000       -2.39133300000000        0.13466500000000
C           -3.56577200000000       -2.37937500000000        0.01059900000000
C           -2.86183000000000       -1.14768000000000        0.06237000000000
C           -5.69389900000000        1.30423600000000        0.47156700000000
C           -4.98487100000000        0.07200200000000        0.32546100000000
C           -3.57145800000000        0.08041400000000        0.18872300000000
C           -2.87251600000000        1.32111000000000        0.15457500000000
C           -5.73113400000000        3.77679900000000        0.45684100000000
C           -5.00716100000000        2.54101500000000        0.38367300000000
C           -3.58755800000000        2.54526800000000        0.21205200000000
C           -2.88564200000000        3.78092200000000        0.07953600000000
C           -5.74755300000000        6.22725400000000        0.16217800000000
C           -5.03433000000000        5.00828500000000        0.22541000000000
C           -3.60692100000000        5.00597900000000        0.04187200000000
C           -2.90998300000000        6.22220500000000       -0.18235500000000
C           -5.77899500000000        8.67419500000000       -0.25444200000000
C           -5.05911800000000        7.45536900000000       -0.13124200000000
C           -3.63750200000000        7.45133500000000       -0.29392400000000
C           -2.94543900000000        8.66302500000000       -0.56620100000000
C           -5.06411500000000        9.84978100000000       -0.54239200000000
C           -3.69513700000000        9.84652300000000       -0.69201900000000
C           -1.43728600000000       -8.43454800000000       -1.13583800000000
C           -0.71881700000000       -9.63592600000000       -1.29982000000000
C            0.65228200000000       -9.66152300000000       -1.27010300000000
C            1.41545200000000       -8.48403400000000       -1.10901000000000
C           -1.43265800000000       -6.01730200000000       -0.66686400000000
C           -0.70740000000000       -7.23072000000000       -0.93407900000000
C            0.72487300000000       -7.23671800000000       -0.96128200000000
C            1.43607800000000       -5.99304000000000       -0.72090400000000
C           -1.43436700000000       -3.59538200000000       -0.23517400000000
C           -0.72203300000000       -4.80739200000000       -0.44462800000000
C            0.71295400000000       -4.80017400000000       -0.44126200000000
C            1.42296700000000       -3.58243800000000       -0.21851500000000
C           -1.43551400000000       -1.14174900000000        0.00665000000000
C           -0.72384000000000       -2.36256200000000       -0.10945100000000
C            0.70144000000000       -2.35682800000000       -0.09253100000000
C            1.40558100000000       -1.12972200000000        0.00829200000000
C           -1.44679200000000        1.32543000000000        0.07410000000000
C           -0.73063000000000        0.09475900000000        0.03425000000000
C            0.69036000000000        0.10056500000000        0.03555600000000
C            1.39660300000000        1.33728800000000        0.02540600000000
C           -1.46588600000000        3.78363500000000       -0.02922600000000
C           -0.74472400000000        2.55390800000000        0.00525200000000
C            0.68164600000000        2.55903000000000       -0.02301600000000
C            1.38985600000000        3.79183900000000       -0.13247700000000
C           -1.48628700000000        6.22274000000000       -0.30477900000000
C           -0.76412800000000        5.00915200000000       -0.19736200000000
C            0.67037900000000        5.01165400000000       -0.25959700000000
C            1.37526900000000        6.22316800000000       -0.46282500000000
C           -1.50023500000000        8.66039900000000       -0.69750400000000
C           -0.78061000000000        7.44753600000000       -0.54592200000000
C            0.64763700000000        7.44535900000000       -0.64010500000000
C            1.34557600000000        8.65176400000000       -0.90547300000000
C           -0.77510300000000        9.83935800000000       -0.96329600000000
C            0.59719700000000        9.83481200000000       -1.06664700000000
C            2.84322600000000       -8.61045900000000       -1.08427100000000
C            3.64239200000000       -9.72095300000000       -0.87485700000000
C            5.03124800000000       -9.70744000000000       -0.69123400000000
C            5.75959300000000       -8.53418200000000       -0.37052900000000
C            2.84187400000000       -5.88826800000000       -0.73189800000000
C            5.20057600000000       -7.25538200000000       -0.50160800000000
C            5.73659800000000       -6.03561400000000       -0.04224100000000
C            2.84469800000000       -3.57080900000000       -0.11692500000000
C            3.58441500000000       -4.77028500000000       -0.31936800000000
C            5.01614500000000       -4.80087200000000       -0.06313200000000
C            5.68376500000000       -3.59564100000000        0.31282000000000
C            2.83150200000000       -1.12329900000000        0.09388800000000
C            3.54730000000000       -2.34603500000000        0.08812900000000
C            4.96299900000000       -2.35065800000000        0.27212300000000
C            5.64632400000000       -1.12025300000000        0.42106700000000
C            2.82411400000000        1.34591200000000        0.07673200000000
C            3.53493200000000        0.11434900000000        0.15396300000000
C            4.94672100000000        0.11987700000000        0.29885400000000
C            5.64929500000000        1.36399400000000        0.32526900000000
C            2.81275800000000        3.79914000000000       -0.11580100000000
C            3.53111300000000        2.57434700000000        0.03343100000000
C            4.95469300000000        2.58580000000000        0.14710400000000
C            5.67607000000000        3.82478700000000        0.06899900000000
C            2.80295000000000        6.22494500000000       -0.48948900000000
C            3.52142400000000        5.02034100000000       -0.27458600000000
C            4.95845700000000        5.03169600000000       -0.21648100000000
C            5.65847600000000        6.23647500000000       -0.44978400000000
C            2.79419600000000        8.64387800000000       -0.99318400000000
C            3.51231500000000        7.44256500000000       -0.74776800000000
C            4.94217700000000        7.44213400000000       -0.76854100000000
C            5.64400800000000        8.63579800000000       -1.08282600000000
C            3.52435400000000        9.80572200000000       -1.30581800000000
C            4.90096500000000        9.79845500000000       -1.35547500000000
C            7.10553100000000       -8.57810600000000        0.19556600000000
C            7.80491800000000       -9.78453700000000        0.34179200000000
C            9.10751800000000       -9.81950200000000        0.84370100000000
C            9.73835600000000       -8.64522000000000        1.21715400000000
C            7.07390100000000       -6.07998700000000        0.48478900000000
C            7.73683500000000       -7.35452600000000        0.58557400000000
C            9.06803800000000       -7.41211400000000        1.09679700000000
C            9.69878500000000       -6.20359800000000        1.48663400000000
C            7.04843300000000       -3.60705200000000        0.73692600000000
C            7.71940300000000       -4.87508100000000        0.87962700000000
C            9.05656700000000       -4.99906600000000        1.39875600000000
C            7.04455500000000       -1.11480200000000        0.71313000000000
C            7.71736500000000       -2.34573400000000        0.96339500000000
C            9.07496600000000       -2.25705600000000        1.40541800000000
C            9.75404800000000       -1.06367800000000        1.44356200000000
C            7.06185600000000        1.37720600000000        0.54777000000000
C            7.73042200000000        0.13710500000000        0.79625500000000
C            9.10949000000000        0.14860800000000        1.12389900000000
C            9.80471800000000        1.37210400000000        1.15491200000000
C            7.08820200000000        3.85159600000000        0.25464700000000
C            7.77251800000000        2.61308100000000        0.56553900000000
C            9.16411300000000        2.55849400000000        0.88678500000000
C            7.08569700000000        6.25934300000000       -0.35693000000000
C            7.78719900000000        5.09476500000000        0.06805900000000
C            9.21022900000000        5.22243300000000        0.24680700000000
C            9.89531300000000        6.34731900000000       -0.12065700000000
C            7.10056500000000        8.64000400000000       -1.09772800000000
C            7.79446200000000        7.46652500000000       -0.68389500000000
C            9.21893700000000        7.49434900000000       -0.61441000000000
C            9.92696400000000        8.64829900000000       -1.00021600000000
C            7.84461800000000        9.76504700000000       -1.48596500000000
C            9.24021900000000        9.76705400000000       -1.44421300000000
H          -11.00866000000000       -8.73878900000000       -0.22676100000000
H           -9.79543900000000      -10.65668500000000       -1.25375900000000
H           -7.38626900000000      -10.51334200000000       -1.62163000000000
H          -10.95463600000000       -3.66903700000000        0.97341100000000
H          -10.93910600000000       -1.24106300000000        1.21017400000000
H          -10.92415900000000        1.18831900000000        1.50284600000000
H          -10.99411400000000        6.33321000000000        1.15746600000000
H          -11.08663600000000        8.69750500000000        0.56444900000000
H           -5.50752000000000      -10.51221900000000       -1.63622200000000
H           -3.12595200000000      -10.49425000000000       -1.74868300000000
H           -1.23939600000000      -10.57497200000000       -1.43691500000000
H            1.15981700000000      -10.60974600000000       -1.40424300000000
H            3.14651200000000      -10.68228200000000       -0.76593500000000
H            5.51139900000000      -10.66935700000000       -0.57841100000000
H            7.34146400000000      -10.71952800000000        0.05306000000000
H            9.62101700000000      -10.77181000000000        0.93789300000000
H           10.75083000000000       -8.65840900000000        1.61090200000000
H           10.71265000000000       -6.25012600000000        1.87529600000000
H           10.79712000000000       -1.04025500000000        1.74641600000000
H           10.86279700000000        1.36849400000000        1.40183200000000
H           10.97537500000000        6.38696400000000       -0.00820700000000
H           11.01192300000000        8.64719500000000       -0.94384900000000
H            9.78372100000000       10.65509700000000       -1.75350800000000
H           -9.92229300000000       10.78929400000000       -0.12014100000000
H           -7.51158300000000       10.78893700000000       -0.50145500000000
H           -5.58264100000000       10.79513900000000       -0.64108800000000
H           -3.20574600000000       10.78863400000000       -0.90370300000000
H           -1.28891000000000       10.78379600000000       -1.08983400000000
H            1.09400500000000       10.77632700000000       -1.26409400000000
H            3.01303400000000       10.73649800000000       -1.51664800000000
H            5.40636200000000       10.72665100000000       -1.59175300000000
H            7.34220700000000       10.65949400000000       -1.83337000000000
S          -10.11728800000000        3.80565600000000        1.81086700000000
S           10.15077600000000        4.00109200000000        1.09799300000000
S            9.94002200000000       -3.63334100000000        2.07494700000000
S            3.76594500000000       -7.15981500000000       -1.55752200000000
S          -10.20145900000000       -6.29658400000000        0.75708800000000
202
 energy: -387.262324728176 gnorm: 0.025644305279 xtb: 6.7.1pre (5071a88)
C           -9.91695493059778       -8.65943572175116       -0.41446629319871
C           -9.24325785033509       -9.72858182056570       -0.98454608998917
C           -7.88632508511075       -9.63756415832466       -1.18749895049113
C           -7.16152664984275       -8.47472359101773       -0.86118948793515
C           -9.22567414224146       -7.50277244378658       -0.09309445294036
C           -7.84368744400300       -7.34286193615389       -0.34339513737825
C           -7.13055161304992       -6.09231360636751       -0.12779659468862
C           -9.85978990980428       -3.66120394111410        0.76925875475517
C           -9.20337061289105       -4.83371110005530        0.53687863612477
C           -7.80348898804291       -4.88833241681638        0.23009584099073
C           -7.09607370808886       -3.64929957021952        0.27063359275959
C           -9.84777219699794       -1.22383063219317        1.00546084740092
C           -9.18005859840198       -2.42003556660405        0.76337677367952
C           -7.77521459308613       -2.42015817026801        0.52461769579664
C           -7.07886152271640       -1.18519977030038        0.53125631237988
C           -9.83617247912638        1.21379526702080        1.26622561420198
C           -9.17084646137020       -0.00297897683885        0.99942715377026
C           -7.77117565594112        0.03466153040036        0.74640448667268
C           -7.09212462898173        1.28957662412302        0.69940990701592
C           -9.16928583750467        2.40704688294299        1.24631369409870
C           -7.78792171224571        2.51195575629460        0.90052547798321
C           -7.11761861890357        3.77282334350707        0.72602766212250
C           -9.90389515260582        6.30148844409106        0.93416734274092
C           -9.20432827311462        5.13761041786976        1.07028605619179
C           -7.81582433093296        5.02776896050617        0.74391126422270
C           -7.14741720396767        6.23128619689450        0.39608994294379
C           -9.99388535141876        8.68721326400862        0.37787623974566
C           -9.26857873112671        7.49440839344405        0.52352508286246
C           -7.86740007669137        7.46522935242093        0.28894386673189
C           -7.21141471219230        8.67321121870169       -0.06456435834349
C           -9.34755399054678        9.84352417953833        0.00451242402477
C           -7.97515381456788        9.83618983395006       -0.20956969504280
C           -5.72075443910543       -8.42961989152444       -1.00282306315912
C           -4.99045357668814       -9.56558351519515       -1.38894017012915
C           -3.62285329484140       -9.55893584267403       -1.44393252770033
C           -2.87882981207029       -8.40749324081448       -1.13477002945885
C           -5.72487360342768       -6.05297100320798       -0.34349923340425
C           -5.01156511679483       -7.24021609758202       -0.72059172443456
C           -3.58628710027243       -7.22412084806389       -0.81685333169096
C           -2.85433979294714       -6.01589732388806       -0.59308758387889
C           -5.68651164308306       -3.62915686783661        0.07186858273366
C           -4.99600019365067       -4.83695051668345       -0.19295481934948
C           -3.56656925784084       -4.82049763395530       -0.32189210171787
C           -2.85457750873447       -3.59838013675225       -0.18286526874175
C           -5.66986338227202       -1.16986915798446        0.33044697318636
C           -4.97701575649699       -2.38940521918049        0.13462637921790
C           -3.56137575177313       -2.37678951319920        0.00785427875755
C           -2.85825202140193       -1.14631070687376        0.06426290138201
C           -5.68470968337235        1.30275645458146        0.46818819797218
C           -4.97786459072000        0.07217224462950        0.32543606596464
C           -3.56664830494679        0.08065599165830        0.18545569602350
C           -2.86865149893919        1.31963638963827        0.15583791965647
C           -5.72112536458300        3.77174458483376        0.45121342126730
C           -4.99932501506241        2.53874981931948        0.38226947491670
C           -3.58298800920471        2.54277662965016        0.20958194369183
C           -2.88197046419774        3.77608056075926        0.07971240949724
C           -5.73845400870450        6.21810075164994        0.16202106613643
C           -5.02608827685120        5.00060489499742        0.22446672813406
C           -3.60284804604044        4.99885061447909        0.04189864025723
C           -2.90656296185412        6.21314363343502       -0.18122561973804
C           -5.77200601982442        8.65636846389227       -0.25139505502770
C           -5.05210950550227        7.44191772987739       -0.12971541888353
C           -3.63390379088239        7.43798860524906       -0.29123820655631
C           -2.94166726729539        8.64528400432044       -0.56273823185654
C           -5.05731202139792        9.82648776778699       -0.53762850202291
C           -3.69287990126987        9.82303847227151       -0.68686479875611
C           -1.43437203585398       -8.41716379472514       -1.13091958803137
C           -0.71532979302867       -9.61266447757554       -1.29515011357943
C            0.65171443660178       -9.63780739111231       -1.26024211420296
C            1.41510475890636       -8.46599827711674       -1.10172302114126
C           -1.42992389183922       -6.00828091003547       -0.66339104524045
C           -0.70345007903894       -7.21758264689266       -0.92521699894071
C            0.72456369517714       -7.22273605644241       -0.95301099185953
C            1.43270393738128       -5.98271980018220       -0.71269874017132
C           -1.43340360836128       -3.59004239231647       -0.23622540102728
C           -0.72120113896742       -4.80045765672473       -0.44032812391829
C            0.70991419312531       -4.79306133182980       -0.43323782882963
C            1.41975000926367       -3.57811970523528       -0.21346290086087
C           -1.43461463076009       -1.13987479631620        0.00313228390207
C           -0.72358530108000       -2.36014414672264       -0.10827129729518
C            0.69966614008951       -2.35392617945433       -0.09631897888814
C            1.40333533778831       -1.12810230515744        0.00970219724724
C           -1.44575935496653        1.32379773313877        0.07060537485889
C           -0.73043196584090        0.09479576693405        0.03603950032306
C            0.68925102633554        0.10069860014499        0.03157171704973
C            1.39473098599789        1.33571898416826        0.02733981314321
C           -1.46425210653373        3.77871218473515       -0.03103838684239
C           -0.74384192498490        2.55154663813718        0.00698291824458
C            0.68014862252258        2.55641206938511       -0.02591983890108
C            1.38752558576248        3.78715852617124       -0.13097156335059
C           -1.48521770662207        6.21376435422974       -0.30336587669751
C           -0.76268510501716        5.00235894878153       -0.19583674543931
C            0.66855806818116        5.00466503619590       -0.25958557909661
C            1.37404167937755        6.21426458528141       -0.46046247948573
C           -1.49956543453846        8.64242038625193       -0.69357526526531
C           -0.77914469394359        7.43381547474917       -0.54323759843324
C            0.64628591148016        7.43176950339767       -0.63681318100831
C            1.34528238964717        8.63376023416385       -0.90132878356877
C           -0.77260787481443        9.81498915469710       -0.95798511540599
C            0.59533681278988        9.81046501398281       -1.06092481573297
C            2.83890082232020       -8.59227636604437       -1.08478051729183
C            3.63651127899783       -9.69767193064694       -0.86479424413143
C            5.01756983230961       -9.67939954693778       -0.67519408159433
C            5.75313111594351       -8.51581646846767       -0.36478488712135
C            2.83553706549790       -5.87716389431972       -0.72773060200276
C            5.19703591574082       -7.24023593429145       -0.50632598853178
C            5.72794148785444       -6.02627917820873       -0.04033637549238
C            2.83893761626581       -3.56562077946279       -0.11020365644075
C            3.57766833075255       -4.76284921741880       -0.31046253158682
C            5.00475031891400       -4.79462156203640       -0.05681728507867
C            5.67079415153574       -3.59242954988895        0.31383843204931
C            2.82671947597434       -1.12112133305827        0.09148779154886
C            3.54090454717881       -2.34340381083933        0.09052873113000
C            4.95337975345179       -2.34943340580356        0.27151490162822
C            5.63542388693371       -1.11944228227693        0.41919472362514
C            2.81972294628448        1.34430499083122        0.07394000136279
C            3.52901233998479        0.11433704812223        0.15392603272727
C            4.93910178022184        0.11931927080009        0.29681681975207
C            5.63886672173014        1.36170260240006        0.32359543195401
C            2.80863015208711        3.79403394679073       -0.11686370034003
C            3.52556189386041        2.57194428908511        0.03391617769424
C            4.94623042184780        2.58318348258316        0.14526488901732
C            5.66528726403662        3.81866101572785        0.06510134045252
C            2.79945325066680        6.21596250385532       -0.48744120577212
C            3.51709718410070        5.01326632275972       -0.27288657977527
C            4.94996711978979        5.02377263439323       -0.21525139045025
C            5.64943573793350        6.22704871272277       -0.44801486217533
C            2.79085604349821        8.62650819000760       -0.98772343208352
C            3.50894871668551        7.42922748089523       -0.74402503663117
C            4.93541923822075        7.42881525577768       -0.76422849134189
C            5.63744987918433        8.61820758325985       -1.07726139769845
C            3.52284695521845        9.78248849075604       -1.29857246479466
C            4.89484334498486        9.77534021458392       -1.34808273560353
C            7.09413412098020       -8.56269353608236        0.19924242664429
C            7.79650742960347       -9.76194520963023        0.34273295893523
C            9.09274254023305       -9.79774228234302        0.84028864575020
C            9.71909325512263       -8.63000732557449        1.20959936984212
C            7.06039184030467       -6.07232225308197        0.48605595462593
C            7.72162937258944       -7.34213767913481        0.58266190573118
C            9.04940818033933       -7.40194919230344        1.08725869610251
C            9.67309391779627       -6.19771123573654        1.48035442685766
C            7.03528152877405       -3.60349968983346        0.72899625967827
C            7.70249400938380       -4.86802437423634        0.87402143171827
C            9.02888355318536       -4.99705608848860        1.39397642594571
C            7.03022174637626       -1.11446404526240        0.70770494553042
C            7.69891743004559       -2.34567434689423        0.95535941576606
C            9.04834866005271       -2.25256031123003        1.39912848286043
C            9.72779557285591       -1.06277128770621        1.43688038353540
C            7.04713324582863        1.37470870456018        0.54475769151145
C            7.71298889621628        0.13577821077922        0.78820322922402
C            9.08966177578470        0.14702821382540        1.11209879912619
C            9.77831833476925        1.36968309327770        1.14986297616195
C            7.07412690677330        3.84513818796852        0.24879539451511
C            7.75299534720269        2.61013987080944        0.56005068814712
C            9.13594382986603        2.55255980159597        0.88503223791758
C            7.07263561483248        6.24967696088777       -0.35767847239600
C            7.76932848721101        5.08563494629791        0.06421522812327
C            9.18243731423850        5.22070137954782        0.24727739309354
C            9.86846007748365        6.34266577666714       -0.11810372126384
C            7.08902653127994        8.62385859363141       -1.09155601607105
C            7.77879027210219        7.45260718194319       -0.68264186476403
C            9.19770965779399        7.48314392460308       -0.61606038256726
C            9.90470188978654        8.63366360178878       -0.99746098165509
C            7.83449092036206        9.74274856882075       -1.47814270971465
C            9.22281801163448        9.74582990558246       -1.43823436343348
H          -10.97921307600317       -8.72196000688259       -0.21784786086692
H           -9.78013231262273      -10.63052842962198       -1.24898516419907
H           -7.38324204302608      -10.49078664439160       -1.61340176327699
H          -10.92285299615892       -3.67123157876980        0.97657016084787
H          -10.91252191163804       -1.23933141387463        1.20381770645273
H          -10.89209569497809        1.19131323494128        1.50576832639627
H          -10.96236516629336        6.32567904517581        1.16261313076427
H          -11.06071222535269        8.68512710252028        0.56215752312524
H           -5.49660142913983      -10.48725543037890       -1.63221318336536
H           -3.12757098063945      -10.47036375839174       -1.74262341833387
H           -1.23179174693516      -10.55030751427330       -1.43471732605617
H            1.15786808032113      -10.58325687192225       -1.39519905260660
H            3.14821974032215      -10.65915999544778       -0.75697573484186
H            5.49761588781641      -10.63996355469174       -0.57772058438600
H            7.34094712068318      -10.69691998623988        0.05471140416125