74
 energy: -126.839973151566 gnorm: 0.000753727614 xtb: 6.7.1pre (5071a88)
C           -2.60268664015291       -5.38218499475782        0.33693859214385
C           -4.85725990640294       -4.62341024683455        0.08306590663923
C            0.26791288637238       -4.84028957914163        0.12372844254301
C           -3.96205660150206       -5.64369841037377        0.30877758296553
C           -2.10071257313663       -4.09291150765519        0.15636122289878
C           -4.39784153858839       -3.31251471570445       -0.07503283323854
C            5.74173788322244       -3.98363658836930        0.40341893435811
C            1.60610391796506       -4.57628925290399        0.13546700967977
C           -0.27391145657650        4.97156521031646        0.26443748983109
C            3.48879443253768       -2.97830648415247        0.18117434134526
C            5.33038422946327       -1.35798632657368       -0.18047483995372
C           -3.98277605119356        1.83812634183320       -0.02981165440514
C           -2.10237398277418        3.39522107965279        0.29652864110142
C           -0.68793885355353       -3.81106225081929        0.13090386432191
C            1.15135117953344       -2.19901700359186        0.07769200563732
C            2.99569956567013       -0.59597296310512       -0.04519096455486
C           -6.25669325333260        2.70847096947931        0.11089930422079
C            4.84055524643679        1.02288436028788       -0.18966093422061
C           -4.43434716643104        4.11271621863377        0.70953273357959
C           -3.01351623323536       -3.02286726004404       -0.00741409336197
C            4.38492062261370        3.40658521871732       -0.15336616727615
C           -1.17514705551889       -1.40109214550012       -0.00122509026827
C            0.67322948395134        0.20902126804888        0.01065173245486
C            2.52238742296419        1.80868478549516       -0.05666550384100
C           -5.28729236573956       -2.25106089387222       -0.34785585685262
C            2.08199060745257        4.23049991251065        0.01785172460174
C           -3.48751514001880       -0.61105473099459       -0.24515017557596
C            3.95231415941443        5.77396771756967       -0.10471240813393
C           -1.66644693444005        0.99671186751561       -0.00467385779125
C            0.20243477053263        2.61521182787811        0.07611168886612
C            4.41171515008959       -4.03062547758849        0.54562041131703
C           -4.85880076158852       -0.96205046549779       -0.44831963931760
C            2.58902292892961        5.52723932404602       -0.00903444158358
C           -3.04821781223082        0.73708825297640       -0.14138675280892
C           -1.18893431860597        2.33903280845469        0.11986891439589
C            0.66691390702271        3.94786248761913        0.12129506731572
C            2.09211694784853       -3.25587466744776        0.15270276481056
C            3.93534480468244       -1.67124820727000       -0.02945282405587
C           -5.37491883197005        1.69073735009763       -0.20276116003457
C            5.74687572318897       -0.06799470884000       -0.26224325383937
C           -3.51615300169934        3.11897202602515        0.34273649550399
C           -1.61275470258295        4.70335529572660        0.36520977755471
C           -0.24063392793940       -2.47819484281144        0.07316555800241
C            1.60583545067434       -0.86031708371941        0.01964478959202
C            3.44371344269174        0.74086356350053       -0.10287937785215
C           -5.78987210899897        3.90626049809745        0.62782761324765
C            5.28182504341179        2.32788766226675       -0.22171544715549
C           -2.56352081328392       -1.67472171851710       -0.08601876662663
C            4.84441455162204        4.73342080668547       -0.17223385761010
C           -0.72695854701554       -0.06851131921082       -0.00386584754533
C            1.13096543127604        1.53746828349876       -0.00094054361180
C            2.98987458681318        3.14724982732226       -0.06520152977753
H           -5.91832988663114       -4.81843653007221        0.03087369656296
H            0.04203189336571        6.00094424845724        0.30336624331598
H           -7.31624616678847        2.55274909639146       -0.04215849364606
H           -4.07927127132954        5.06144939450582        1.07748929194362
H           -6.33543174639665       -2.47922371813096       -0.49485325208808
H            4.30533940729950        6.79485816836086       -0.12420470743088
H            1.92720930399004        6.37641246189396        0.03816658522029
H           -2.29182439846600        5.53416932271176        0.46416281047109
H           -6.48159950524847        4.67883327009210        0.92908817157059
H           -1.93122532627182       -6.20651920808467        0.51391049811493
H           -0.05001941699683       -5.86945881232884        0.08674179310155
H           -4.31427843580934       -6.65454939896841        0.45369146608421
H            6.36358990672196       -4.80414769767973        0.73642987747520
H            2.29655366693229       -5.40368254103797        0.09242527484833
H            3.98277926714097       -4.88619474943162        1.04983705172199
H            6.79955978826763        0.15172698466112       -0.38742812056586
H            6.34060528179412        2.53201537084992       -0.29608392700831
H            5.90638875369680        4.91815075088557       -0.24177794419341
H            7.45520929945371       -2.30666276484571        0.52563978507568
H           -7.06516261273412       -0.03490557432862       -0.12976032577662
P            6.56094671754237       -2.66350925434403       -0.49417186013207
P           -6.05307831740158        0.25129006148430       -1.05585270230017
