74
 energy: -126.828807135542 gnorm: 0.037217168296 xtb: 6.7.1pre (5071a88)
C           -2.60122600000000       -5.43998000000000        0.29421400000000
C           -4.87815200000000       -4.68284600000000        0.07069800000000
C            0.28013400000000       -4.87045600000000        0.16755900000000
C           -3.96852900000000       -5.71269400000000        0.25819800000000
C           -2.10678500000000       -4.13194100000000        0.15354100000000
C           -4.42522400000000       -3.35764900000000       -0.05658200000000
C            5.79916200000000       -4.06327600000000        0.33079600000000
C            1.62447700000000       -4.60452700000000        0.17106300000000
C           -0.27736900000000        5.00795800000000        0.26649000000000
C            3.53007200000000       -2.99962500000000        0.16410600000000
C            5.39275200000000       -1.35341800000000       -0.15306000000000
C           -4.03622700000000        1.86317500000000       -0.01165100000000
C           -2.12299200000000        3.42730100000000        0.27712100000000
C           -0.68414500000000       -3.83736100000000        0.14460400000000
C            1.16699900000000       -2.21274300000000        0.08498000000000
C            3.02095400000000       -0.59714100000000       -0.03587200000000
C           -6.31549100000000        2.76862600000000        0.10710800000000
C            4.87434100000000        1.03985000000000       -0.18185500000000
C           -4.46372900000000        4.19451300000000        0.62784900000000
C           -3.03244500000000       -3.05821100000000        0.00692500000000
C            4.41462400000000        3.43694200000000       -0.15309800000000
C           -1.18726600000000       -1.41176900000000        0.01197600000000
C            0.67492100000000        0.21191300000000        0.01337300000000
C            2.53627800000000        1.82304900000000       -0.05111000000000
C           -5.33272700000000       -2.28923300000000       -0.28939600000000
C            2.09369600000000        4.26273700000000        0.02110200000000
C           -3.53046000000000       -0.62703100000000       -0.20048300000000
C            3.97448600000000        5.82000600000000       -0.10095700000000
C           -1.69406200000000        1.00175800000000        0.00288500000000
C            0.19609300000000        2.63432500000000        0.07687700000000
C            4.45973600000000       -4.09831000000000        0.44302000000000
C           -4.91884200000000       -0.99074300000000       -0.38443800000000
C            2.60068600000000        5.56941300000000       -0.00356400000000
C           -3.09056100000000        0.73851700000000       -0.11134400000000
C           -1.20861200000000        2.35841600000000        0.11749200000000
C            0.66564000000000        3.97522600000000        0.12395000000000
C            2.11943900000000       -3.27580000000000        0.15285100000000
C            3.97792700000000       -1.68001000000000       -0.01510100000000
C           -5.44394900000000        1.72133400000000       -0.17136200000000
C            5.79410900000000       -0.05510300000000       -0.23970800000000
C           -3.55147800000000        3.16250200000000        0.31258200000000
C           -1.62454100000000        4.74220400000000        0.35087500000000
C           -0.23785900000000       -2.49591800000000        0.08329000000000
C            1.62008300000000       -0.86385200000000        0.02238300000000
C            3.46617200000000        0.75123800000000       -0.09415100000000
C           -5.82889100000000        4.00013600000000        0.55248500000000
C            5.31611900000000        2.34892000000000       -0.21909900000000
C           -2.58643500000000       -1.69310500000000       -0.06292400000000
C            4.87474300000000        4.77251900000000       -0.17285100000000
C           -0.74165600000000       -0.07013400000000        0.00422000000000
C            1.13379900000000        1.54745000000000        0.00341500000000
C            3.00823300000000        3.17310000000000       -0.06234300000000
H           -5.94468300000000       -4.88455300000000        0.02050000000000
H            0.04285400000000        6.04139600000000        0.31449000000000
H           -7.38594500000000        2.62615400000000       -0.01980900000000
H           -4.09611000000000        5.16139000000000        0.94692000000000
H           -6.38493900000000       -2.53639600000000       -0.41484600000000
H            4.32851100000000        6.84676000000000       -0.11932300000000
H            1.93125100000000        6.41947300000000        0.04568700000000
H           -2.30248100000000        5.58102600000000        0.44047300000000
H           -6.51356000000000        4.80267700000000        0.81027900000000
H           -1.91916700000000       -6.26809100000000        0.44223800000000
H           -0.03356300000000       -5.90688700000000        0.16031100000000
H           -4.31465400000000       -6.73610400000000        0.37024100000000
H            6.38566800000000       -4.93842900000000        0.59944900000000
H            2.30720800000000       -5.44368700000000        0.14980700000000
H            4.02494000000000       -5.01103200000000        0.83481500000000
H            6.84871200000000        0.18659900000000       -0.35773200000000
H            6.38156800000000        2.55242300000000       -0.29312000000000
H            5.94245500000000        4.96101800000000       -0.24502800000000
H            7.54153000000000       -2.34601400000000        0.68869900000000
H           -7.18535900000000       -0.04554300000000       -0.03304100000000
P            6.67148300000000       -2.65784200000000       -0.39478200000000
P           -6.13884100000000        0.23493000000000       -0.95345100000000
74
 energy: -126.837263023292 gnorm: 0.017027713166 xtb: 6.7.1pre (5071a88)
C           -2.59926771980314       -5.41427750245514        0.29213959686891
C           -4.86154039078704       -4.66080924741612        0.06962689288961
C            0.27466298256218       -4.84926216864962        0.16253126916579
C           -3.95864285698951       -5.68502210220321        0.25656149574365
C           -2.10311922351771       -4.11340960273463        0.15220037319677
C           -4.40957269731429       -3.34028543103789       -0.05412031163924
C            5.78121929910588       -4.02039732119938        0.34007481976400
C            1.61384222693415       -4.58543354863377        0.16436803662089
C           -0.27490247939968        4.98545521708141        0.26188653564668
C            3.51457844054001       -2.98922502270283        0.16290365215858
C            5.36707872644966       -1.35235713462736       -0.13820873440909
C           -4.01482148000618        1.85048510857269       -0.00949748888559
C           -2.11498616613389        3.41171655003849        0.27461520332493
C           -0.68630173334542       -3.82139115675479        0.14380117857525
C            1.16087822603699       -2.20585126425220        0.08462505186724
C            3.01072636996799       -0.59708383040386       -0.03224321043922
C           -6.28903615572101        2.74667352478984        0.10665362450349
C            4.85545986847877        1.03346326686562       -0.17846639852976
C           -4.45171287752472        4.16815703110662        0.62434000960284
C           -3.02302169238855       -3.04225007495694        0.00897647993737
C            4.39670916788644        3.42270532101701       -0.15157924340434
C           -1.18292007098183       -1.40624889420091        0.01216495568625
C            0.67335029154470        0.20978833986272        0.01348068546230
C            2.52849450888541        1.81542438762687       -0.05051394335503
C           -5.31174443558061       -2.27408236433141       -0.28476628659250
C            2.08787559973952        4.24480550868741        0.02135294356468
C           -3.51375466619503       -0.61987485499818       -0.19496233580753
C            3.96132116460892        5.79424899787622       -0.10098973073272
C           -1.68437541884572        0.99855265676448        0.00627664333214
C            0.19739062216259        2.62318239136149        0.07596946334579
C            4.44640526926542       -4.06975073830384        0.44646831523480
C           -4.89597460153298       -0.97806986115945       -0.36932619160371
C            2.59591220639231        5.54500545155725       -0.00407466815464
C           -3.07459511418139        0.73676024335471       -0.10714738040741
C           -1.20134303371523        2.34811916181516        0.11643058092419
C            0.66639026899607        3.95831583339828        0.12216126699488
C            2.10934392470243       -3.26436836113387        0.15331407326135
C            3.96067803937248       -1.67535378957420       -0.01346845415934
C           -5.41607857084896        1.70364920731511       -0.15912255563994
C            5.77026620595776       -0.05846217627641       -0.23157422400625
C           -3.53746732123288        3.14562542511656        0.31132136665138
C           -1.61707449202309        4.72066541106022        0.34570223423614
C           -0.23876425428085       -2.48585595199594        0.08263833300918
C            1.61450437776319       -0.86222106258453        0.02427438724186
C            3.45443851299822        0.74621284932849       -0.09131598558122
C           -5.80999950588076        3.97192848932303        0.54974873964602
C            5.29511532117342        2.34018376717906       -0.21739817602580
C           -2.57763794241423       -1.68426376532778       -0.05815008963313
C            4.85541184859698        4.75276906422688       -0.17152515073992
C           -0.73655954608660       -0.06918793129606        0.00489854435753
C            1.13129336236586        1.54147135551591        0.00306458146825
C            2.99784778770799        3.15941182803447       -0.06159313462432
H           -5.92342800403490       -4.86449101825928        0.01959926804295
H            0.04258038146412        6.01613911578868        0.31093847037638
H           -7.35501306444225        2.60256849388481       -0.02726891769311
H           -4.09277981555175        5.13485508710742        0.94198541088604
H           -6.36156684501342       -2.51593814281600       -0.41513176202282
H            4.31497417287727        6.81750254310993       -0.11906023957123
H            1.93367232818832        6.39594629057713        0.04524802463638
H           -2.29105916706254        5.55831304527568        0.43872964941990
H           -6.49522153017977        4.77083507097799        0.80298179115506
H           -1.92410001168515       -6.24352190134661        0.43927360093368
H           -0.03722793851004       -5.88273197443686        0.15823871853783
H           -4.30463554269682       -6.70496112138902        0.36726905436066
H            6.37693542107090       -4.89179844521188        0.59049783978054
H            2.29287821355951       -5.42399244749469        0.14278103873543
H            4.02040984854834       -4.98213817473172        0.84141399480371
H            6.82321256405907        0.17597239096577       -0.34994213368238
H            6.35630777896167        2.54558366804794       -0.29160098192602
H            5.91868920468442        4.94298274788256       -0.24311006039974
H            7.46925684620755       -2.34133293422990        0.68290973463325
H           -7.12105181958098       -0.03620915580398       -0.01859785115493
P            6.64119738667450       -2.63960087376710       -0.42709318994370
P           -6.10711058100213        0.23555650620350       -0.96473309981988
74
 energy: -126.839385187874 gnorm: 0.006614584600 xtb: 6.7.1pre (5071a88)
C           -2.59443452884349       -5.39535604359299        0.29273619921145
C           -4.85044828004684       -4.64180809915116        0.07269720070915
C            0.27006637821532       -4.83656178289542        0.15863301115977
C           -3.95072809087025       -5.66426624052219        0.25743224530906
C           -2.09835488124129       -4.09900784597389        0.15402903939803
C           -4.39715209217894       -3.32521932880669       -0.04842743430418
C            5.75732624625388       -4.00648894553721        0.32318544425165
C            1.60690158432025       -4.57374445772360        0.15886413099363
C           -0.27268151060699        4.97114576853442        0.25889047566935
C            3.49924161449309       -2.98225523665394        0.16045618272420
C            5.34109409940693       -1.34929939906531       -0.15034280466460
C           -3.99371089297512        1.84136339411096       -0.01188928837590
C           -2.10651521877603        3.40053960130818        0.27547015842587
C           -0.68676819615212       -3.81021262237224        0.14385121466012
C            1.15542914208546       -2.20029700227742        0.08518069988788
C            3.00049084434531       -0.59607557518874       -0.03051546516379
C           -6.26560684996537        2.72911108567553        0.10254716821795
C            4.83992625965046        1.02985340367709       -0.17167693934788
C           -4.43710425948503        4.14840600284247        0.62704563421694
C           -3.01426045865931       -3.02933225008136        0.01351120446109
C            4.38261428823913        3.41162258598733       -0.14958324489292
C           -1.17769932077894       -1.40211801360230        0.01497111187806
C            0.67198079939861        0.20813865757407        0.01591778334321
C            2.52114357240550        1.80976734420388       -0.04895092373297
C           -5.29369022913254       -2.26203663044394       -0.28618275266506
C            2.08108183079822        4.23119216779378        0.02104160060442
C           -3.49723827228921       -0.61490679717463       -0.19542607462050
C            3.94894968182599        5.77669148523103       -0.10076205278136
C           -1.67410191156933        0.99624952389030        0.00781573903422
C            0.19878069113286        2.61476145514515        0.07576894434821
C            4.42600034479308       -4.05593570139982        0.44363270391670
C           -4.87221065890474       -0.97049701887710       -0.37370085562694
C            2.58725583016582        5.52783006423401       -0.00435494530825
C           -3.05909877552188        0.73538663589231       -0.10753042637904
C           -1.19420021929717        2.34024340288267        0.11654058427370
C            0.66597267001962        3.94624098379395        0.12057216620774
C            2.09952847557070       -3.25654634032537        0.15203741246576
C            3.94400343956091       -1.67102313834353       -0.01831054170937
C           -5.38905558120203        1.69462975679788       -0.16623528551026
C            5.74962053976932       -0.05837329728562       -0.23382904489447
C           -3.52255383623788        3.13237061682086        0.31438421931489
C           -1.61200993908724        4.70644987628727        0.34492118332162
C           -0.23892555539728       -2.47827040583418        0.08416312979867
C            1.60877152989175       -0.86064195173967        0.02687829700648
C            3.44405394201152        0.74303022444267       -0.08810536029769
C           -5.79260250261159        3.94919123644099        0.55328292949737
C            5.27981024101492        2.33400074218407       -0.21209773368184
C           -2.56812672597488       -1.67769275635244       -0.05357019298032
C            4.84095702761894        4.73798587972913       -0.17040089760900
C           -0.73111535407254       -0.06861387760453        0.00704514747622
C            1.12881716498222        1.53688926162495        0.00388045158205
C            2.98864814390811        3.14890483977803       -0.06064177464489
H           -5.91002690551436       -4.84344722010292        0.01997286635013
H            0.04471495972016        5.99970261269663        0.30538154997873
H           -7.32777521667470        2.57668823038013       -0.03565815682644
H           -4.08193041110331        5.11541594852424        0.94169574758236
H           -6.34286126760095       -2.49573143578290       -0.41855316135308
H            4.30164098995822        6.79768287562075       -0.11940618791859
H            1.92684936815495        6.37771892447702        0.04491092066470
H           -2.28571973455212        5.54177955088208        0.43883893430010
H           -6.47897128374952        4.74404390528706        0.80520899612910
H           -1.92183284134079       -6.22451178212588        0.43784645952040
H           -0.04299377903255       -5.86748446330693        0.15239739202074
H           -4.29687860209707       -6.68171283728472        0.36648020213752
H            6.36392638872980       -4.85989853205294        0.59866067451237
H            2.28604479054054       -5.41022670593025        0.13435884399660
H            4.00393642173854       -4.95565006329709        0.86880184040619
H            6.80254130740981        0.16844938831710       -0.34673856253361
H            6.33815374604854        2.53959392750087       -0.28832123365457
H            5.90198178112211        4.92669158081888       -0.24132387181679
H            7.43615078874572       -2.31799913500626        0.67296384781702
H           -7.08186268593368       -0.03555567977718       -0.01122010010967
P            6.61620090267482       -2.62434540306428       -0.42742339321551
P           -6.08646095724406        0.23290107516894       -0.96386698216192
74
 energy: -126.839586632722 gnorm: 0.002805744684 xtb: 6.7.1pre (5071a88)
C           -2.59433584264388       -5.39350580664743        0.29611867132104
C           -4.85128888897487       -4.63748813988360        0.07541270441977
C            0.26879976443727       -4.83789922708593        0.15490482894998
C           -3.95174837558580       -5.66119819908693        0.26115533145301
C           -2.09785717678465       -4.09735633700278        0.15700524290431
C           -4.39636082934204       -3.32166106797438       -0.04754229021240
C            5.75476531290351       -3.99840324363704        0.33348117833977
C            1.60607882288977       -4.57525614914333        0.15423355481360
C           -0.27214814718006        4.97154141252369        0.25815515725264
C            3.49593537644035       -2.98196922853616        0.15968933436295
C            5.33671083552621       -1.35034483536272       -0.15615849872704
C           -3.98879393955170        1.83984128907751       -0.01605904395108
C           -2.10444602777128        3.40001774611213        0.27765733797094
C           -0.68677184696838       -3.81015447790320        0.14441801378793
C            1.15435355189691       -2.20020984277515        0.08542061087972
C            2.99836188252028       -0.59601454316344       -0.03195823564225
C           -6.26154843108686        2.72360621232201        0.09950895516190
C            4.83851365364071        1.02870092584198       -0.17233610610954
C           -4.43468995256115        4.14406189406601        0.63256642463271
C           -3.01314035394066       -3.02716756612985        0.01557685338791
C            4.38173182861368        3.41002619021998       -0.14797854091772
C           -1.17620359415138       -1.40190155476082        0.01698308196062
C            0.67218186242054        0.20774105713008        0.01783751898134
C            2.52033520502420        1.80897525588770       -0.04774024496166
C           -5.29142244142514       -2.25881056195602       -0.28955810772455
C            2.07994406894820        4.22999792023857        0.02091928379673
C           -3.49345622565459       -0.61402147639760       -0.19996009985792
C            3.94735427123295        5.77605565094046       -0.10117440847293
C           -1.67080518008413        0.99623555912640        0.00784456428388
C            0.19967579940878        2.61410767426041        0.07685840531362
C            4.42334073760775       -4.05009473066981        0.45839516347753
C           -4.86716075902362       -0.96834688310108       -0.38224927983493
C            2.58492137895649        5.52707496461528       -0.00498762273391
C           -3.05471565402553        0.73547218979172       -0.11190443242198
C           -1.19226545322510        2.33972075950102        0.11790510989293
C            0.66588122054593        3.94581902518915        0.12058184151184
C            2.09730432470318       -3.25721018428825        0.15009817672742
C            3.94067281045695       -1.67070370371628       -0.02227059824290
C           -5.38294761302140        1.69214177576458       -0.17487794108048
C            5.74750232038021       -0.05892214246894       -0.23515895778479
C           -3.51939368771402        3.13058515611461        0.31550658299574
C           -1.61146238197940        4.70656348390910        0.34629228867573
C           -0.23893348356536       -2.47800353863579        0.08562546027222
C            1.60753272510757       -0.86087855229724        0.02771797121079
C            3.44280138042793        0.74235913899078       -0.08815213476379
C           -5.79064606141714        3.94283089530889        0.55709126156301
C            5.27927576819940        2.33287251937773       -0.21118898112267
C           -2.56587605748357       -1.67692410702620       -0.05353103663186
C            4.84015304129904        4.73662955008877       -0.16956860528741
C           -0.72935247818905       -0.06880244597855        0.00879913406715
C            1.12881594958175        1.53637036154306        0.00517685457545
C            2.98771262918260        3.14762904563990       -0.05963611417207
H           -5.91148226000406       -4.83588889155625        0.02229987331383
H            0.04583008277856        5.99990380476025        0.30210004767970
H           -7.32249351636881        2.56610150838326       -0.04178815899847
H           -4.07986955813896        5.10921233441254        0.95333461857322
H           -6.34086627901804       -2.48896743673308       -0.42413707671949
H            4.29940061326220        6.79710547443957       -0.12036687769985
H            1.92305407638495        6.37597456106193        0.04375602415404
H           -2.28592153217057        5.54121651215581        0.43920481496446
H           -6.47814731360810        4.73437905626043        0.81511638344657
H           -1.92133074691865       -6.22251503800146        0.44059309677237
H           -0.04570970577636       -5.86828735286693        0.14481454559650
H           -4.29838424001414       -6.67836546480724        0.36965028032068
H            6.36432131643272       -4.85057647539758        0.60459277546281
H            2.28612743834805       -5.41077590513414        0.12393327380911
H            4.00116356013474       -4.94845954391681        0.88577820917183
H            6.80061935461368        0.16536109969399       -0.34905276524907
H            6.33771714915478        2.53767497500419       -0.28603615506660
H            5.90150169729167        4.92332269683336       -0.24059295541137
H            7.41363915368592       -2.31130148004340        0.66296578747592
H           -7.06365360365487       -0.03593459301010       -0.00671150368263
P            6.60643434278156       -2.62568783527924       -0.44282159794633
P           -6.08193566819775        0.23229888578790       -0.97172225825742
74
 energy: -126.839684614616 gnorm: 0.002028627965 xtb: 6.7.1pre (5071a88)
C           -2.59605937467145       -5.39314146957568        0.30072656660773
C           -4.85307817564735       -4.63495301220427        0.07832556849343
C            0.26849218621796       -4.83984821957197        0.14932108382029
C           -3.95425815480390       -5.65948466509622        0.26639192678404
C           -2.09821364501947       -4.09730998220772        0.15950490834556
C           -4.39654129299290       -3.31979978679473       -0.04804497826501
C            5.75202067793790       -3.99679788612955        0.33883888194423
C            1.60610542519652       -4.57698173778317        0.14807955612185
C           -0.27236155727741        4.97286145578679        0.25755636493880
C            3.49397322703261       -2.98209186986713        0.16053266460404
C            5.33420865991446       -1.35148406370556       -0.16339843832486
C           -3.98629338238217        1.83940616758851       -0.02086028915318
C           -2.10363143046199        3.40018736558484        0.27983120145525
C           -0.68686907808092       -3.81122149962185        0.14468096255661
C            1.15364751191182       -2.20037870870731        0.08554608811201
C            2.99721071362288       -0.59591461488765       -0.03450834803372
C           -6.25962403182808        2.72063894219294        0.09584367582230
C            4.83846006722995        1.02801039604633       -0.17328350760306
C           -4.43462582406834        4.13995876341033        0.64105770480592
C           -3.01289837125567       -3.02643476020250        0.01626924568329
C            4.38226338490132        3.40976069411336       -0.14640193123030
C           -1.17548113118848       -1.40207380966095        0.01817253637908
C            0.67246074937204        0.20781641907521        0.01993737021802
C            2.52040962762997        1.80910799361049       -0.04675210906230
C           -5.29028513594112       -2.25715696461649       -0.29502735805525
C            2.08006680573735        4.23048697502343        0.02125349634574
C           -3.49137797927032       -0.61366584320726       -0.20571816135753
C            3.94795518101535        5.77671261440856       -0.10165904745889
C           -1.66892517892206        0.99648551791697        0.00774838647319
C            0.20044110976065        2.61455788716415        0.07838730676870
C            4.42095026931191       -4.04800592773919        0.46947724050985
C           -4.86430279649358       -0.96713328540609       -0.39174346561750
C            2.58506031654302        5.52791987472995       -0.00578466025449
C           -3.05219214658888        0.73574272784397       -0.11670448114265
C           -1.19122258382565        2.33998918388156        0.11929948332856
C            0.66601643416266        3.94680185216930        0.12104970819768
C            2.09595342933099       -3.25793443059713        0.14916121847869
C            3.93880334367579       -1.67074915623008       -0.02621145221384
C           -5.37965566245801        1.69120385111632       -0.18343970028349
C            5.74666022625077       -0.05973566097938       -0.23910375583791
C           -3.51824326018863        3.12963415634458        0.31698011890228
C           -1.61169657563014        4.70743577075491        0.34739314984487
C           -0.23916985002341       -2.47850089721327        0.08683674806759
C            1.60682538275304       -0.86105807678896        0.02819625995093
C            3.44252981663600        0.74218676111300       -0.08910582729411
C           -5.79073682022511        3.93746603559013        0.56288287097690
C            5.27998023004413        2.33247960719651       -0.20981591338745
C           -2.56478382142143       -1.67689652538513       -0.05492976021608
C            4.84089938474683        4.73671277865356       -0.16859145970548
C           -0.72837517695060       -0.06895036818844        0.01023061327041
C            1.12915867602380        1.53665403948702        0.00683722036534
C            2.98792112021063        3.14771022056821       -0.05846408081047
H           -5.91394973721867       -4.83038074592258        0.02548866922443
H            0.04538036453021        6.00134545607644        0.29920487343165
H           -7.31958503051947        2.55955960510151       -0.04890635968182
H           -4.08012963754396        5.10246155420591        0.97042351731675
H           -6.34001533189725       -2.48464947342738       -0.43156570358922
H            4.29964263580914        6.79790409077084       -0.12181491246771
H            1.92253903463536        6.37641558830886        0.04148859827963
H           -2.28695817912670        5.54154253495577        0.43953483837476
H           -6.47942403387993        4.72560494570549        0.82799876166147
H           -1.92338313089956       -6.22219487175963        0.44665462740018
H           -0.04674221413956       -5.87000049043836        0.13427009951459
H           -4.30170911000562       -6.67624610587123        0.37625350264182
H            6.36440217811019       -4.84386719268444        0.61941258697562
H            2.28770663601821       -5.41117013522805        0.11150390202522
H            3.99835719152280       -4.93920496841772        0.91252453640249
H            6.80004229047309        0.16244993109991       -0.35420993553583
H            6.33871545889324        2.53634922115463       -0.28358647544833
H            5.90263565685182        4.92171250971356       -0.23939307722243
H            7.41228119565165       -2.30585383916649        0.64669638668010
H           -7.05447069790704       -0.03585624417217       -0.00800146385900
P            6.60034044714470       -2.62877877234763       -0.45129735377860
P           -6.08034750605596        0.23215257333959       -0.97962502121125
74
 energy: -126.839775241913 gnorm: 0.002582702924 xtb: 6.7.1pre (5071a88)
C           -2.59812369996107       -5.39275283198869        0.30769542478163
C           -4.85468589677551       -4.63317284747485        0.08145109335109
C            0.26922577012013       -4.84149181495333        0.14137746649602
C           -3.95687100608190       -5.65778069123617        0.27430053034081
C           -2.09855181029417       -4.09771013310054        0.16138864487153
C           -4.39667843525500       -3.31878769998997       -0.05058395817697
C            5.74826369745895       -3.99584148059836        0.34998356287712
C            1.60712623839040       -4.57786057345299        0.14033719953360