      -----------------------------------------------------------      
     |                   =====================                   |     
     |                           x T B                           |     
     |                   =====================                   |     
     |                         S. Grimme                         |     
     |          Mulliken Center for Theoretical Chemistry        |     
     |                    University of Bonn                     |     
      -----------------------------------------------------------      

   * xtb version 6.7.1pre (5071a88) compiled by 'Marcel@Raven' on 2024-07-23

   xtb is free software: you can redistribute it and/or modify it under
   the terms of the GNU Lesser General Public License as published by
   the Free Software Foundation, either version 3 of the License, or
   (at your option) any later version.
   
   xtb is distributed in the hope that it will be useful,
   but WITHOUT ANY WARRANTY; without even the implied warranty of
   MERCHANTABILITY or FITNESS FOR A PARTICULAR PURPOSE.  See the
   GNU Lesser General Public License for more details.
   
   Cite this work as:
   * C. Bannwarth, E. Caldeweyher, S. Ehlert, A. Hansen, P. Pracht,
     J. Seibert, S. Spicher, S. Grimme, WIREs Comput. Mol. Sci., 2020, 11,
     e01493. DOI: 10.1002/wcms.1493
   
   for GFN2-xTB:
   * C. Bannwarth, S. Ehlert and S. Grimme., J. Chem. Theory Comput., 2019,
     15, 1652-1671. DOI: 10.1021/acs.jctc.8b01176
   for GFN1-xTB:
   * S. Grimme, C. Bannwarth, P. Shushkov, J. Chem. Theory Comput., 2017,
     13, 1989-2009. DOI: 10.1021/acs.jctc.7b00118
   for GFN0-xTB:
   * P. Pracht, E. Caldeweyher, S. Ehlert, S. Grimme, ChemRxiv, 2019, preprint.
     DOI: 10.26434/chemrxiv.8326202.v1
   for GFN-FF:
   * S. Spicher and S. Grimme, Angew. Chem. Int. Ed., 2020, 59, 15665-15673.
     DOI: 10.1002/anie.202004239
   
   for ALPB and GBSA implicit solvation:
   * S. Ehlert, M. Stahn, S. Spicher, S. Grimme, J. Chem. Theory Comput.,
     2021, 17, 4250-4261. DOI: 10.1021/acs.jctc.1c00471
   
   for ddCOSMO and CPCM-X implicit solvation:
   * M. Stahn, S. Ehlert, S. Grimme, J. Phys. Chem. A,
     2023, XX, XXXX-XXXX. DOI: 10.1021/acs.jpca.3c04382
   
   for DFT-D4:
   * E. Caldeweyher, C. Bannwarth and S. Grimme, J. Chem. Phys., 2017,
     147, 034112. DOI: 10.1063/1.4993215
   * E. Caldeweyher, S. Ehlert, A. Hansen, H. Neugebauer, S. Spicher,
     C. Bannwarth and S. Grimme, J. Chem. Phys., 2019, 150, 154122.
     DOI: 10.1063/1.5090222
   * E. Caldeweyher, J.-M. Mewes, S. Ehlert and S. Grimme, Phys. Chem. Chem. Phys.
     2020, 22, 8499-8512. DOI: 10.1039/D0CP00502A
   
   for sTDA-xTB:
   * S. Grimme and C. Bannwarth, J. Chem. Phys., 2016, 145, 054103.
     DOI: 10.1063/1.4959605
   
   in the mass-spec context:
   * V. Asgeirsson, C. Bauer and S. Grimme, Chem. Sci., 2017, 8, 4879.
     DOI: 10.1039/c7sc00601b
   * J. Koopman and S. Grimme, ACS Omega 2019, 4, 12, 15120-15133.
     DOI: 10.1021/acsomega.9b02011
   
   for metadynamics refer to:
   * S. Grimme, J. Chem. Theory Comput., 2019, 155, 2847-2862
     DOI: 10.1021/acs.jctc.9b00143
   
   for SPH calculations refer to:
   * S. Spicher and S. Grimme, J. Chem. Theory Comput., 2021, 17, 1701-1714
     DOI: 10.1021/acs.jctc.0c01306
   
   for ONIOM refer to:
   * C. Plett, A. Katbashev, S. Ehlert, S. Grimme, M. Bursch,
     Phys. Chem. Chem. Phys., 2023, 25, 17860-17868. DOI: 10.1039/D3CP02178E
   
   for DIPRO refer to:
   * J. Kohn, N. Gildemeister, S. Grimme, D. Fazzi, A. Hansen,
     J. Chem. Phys., 2023, just accepted.
   
   for PTB refer to:
   * S. Grimme, M. Mueller, A. Hansen, J. Chem. Phys., 2023, 158, 124111.
     DOI: 10.1063/5.0137838
   
   with help from (in alphabetical order)
   P. Atkinson, C. Bannwarth, F. Bohle, G. Brandenburg, E. Caldeweyher
   M. Checinski, S. Dohm, S. Ehlert, S. Ehrlich, I. Gerasimov, C. Hölzer
   A. Katbashev, J. Kohn, J. Koopman, C. Lavigne, S. Lehtola, F. März, M. Müller,
   F. Musil, H. Neugebauer, J. Pisarek, C. Plett, P. Pracht, F. Pultar,
   J. Seibert, P. Shushkov, S. Spicher, M. Stahn, M. Steiner, T. Strunk,
   J. Stückrath, T. Rose, and J. Unsleber
   
 * started run on 2025/12/08 at 00:40:28.601     
   ID    Z sym.   atoms
    1    6 C      1-158
    2    1 H      159-188, 201-206
    3   16 S      189-200

           -------------------------------------------------
          |                Calculation Setup                |
           -------------------------------------------------

          program call               : xtb "C:\Users\LENOVO GAMING\Documents\GitHub\molecular-conductivity-sim\dataset\2nm-12Sdoped-7percent.xyz" --opt --parallel 4
          coordinate file            : C:\Users\LENOVO GAMING\Documents\GitHub\molecular-conductivity-sim\dataset\2nm-12Sdoped-7percent.xyz
          omp threads                :                     4


           -------------------------------------------------
          |                 G F N 2 - x T B                 |
           -------------------------------------------------

        Reference                      10.1021/acs.jctc.8b01176
      * Hamiltonian:
        H0-scaling (s, p, d)           1.850000    2.230000    2.230000
        zeta-weighting                 0.500000
      * Dispersion:
        s8                             2.700000
        a1                             0.520000
        a2                             5.000000
        s9                             5.000000
      * Repulsion:
        kExp                           1.500000    1.000000
        rExp                           1.000000
      * Coulomb:
        alpha                          2.000000
        third order                    shell-resolved
        anisotropic                    true
        a3                             3.000000
        a5                             4.000000
        cn-shift                       1.200000
        cn-exp                         4.000000
        max-rad                        5.000000


          ...................................................
          :                      SETUP                      :
          :.................................................:
          :  # basis functions                 788          :
          :  # atomic orbitals                 776          :
          :  # shells                          388          :
          :  # electrons                       740          :
          :  max. iterations                   250          :
          :  Hamiltonian                  GFN2-xTB          :
          :  restarted?                      false          :
          :  GBSA solvation                  false          :
          :  PC potential                    false          :
          :  electronic temp.          300.0000000     K    :
          :  accuracy                    1.0000000          :
          :  -> integral cutoff          0.2500000E+02      :
          :  -> integral neglect         0.1000000E-07      :
          :  -> SCF convergence          0.1000000E-05 Eh   :
          :  -> wf. convergence          0.1000000E-03 e    :
          :  Broyden damping             0.4000000          :
          :  net charge                          0          :
          :  unpaired electrons                  0          :
          ...................................................

 iter      E             dE          RMSdq      gap      omega  full diag
   1   -402.4839912 -0.402484E+03  0.487E+00    0.35       0.0  T
   2   -402.1968286  0.287163E+00  0.304E+00    0.22       1.0  T
   3   -377.8083907  0.243884E+02  0.435E+00    0.03       1.0  T
   4   -343.7846470  0.340237E+02  0.562E+00    0.02       1.0  T
   5   -402.0693485 -0.582847E+02  0.127E+00    0.14       1.0  T
   6   -401.4864960  0.582852E+00  0.126E+00    0.09       1.0  T
   7   -402.3025961 -0.816100E+00  0.790E-01    0.24       1.0  T
   8   -402.6550198 -0.352424E+00  0.555E-01    0.17       1.0  T
   9   -402.7176804 -0.626605E-01  0.346E-01    0.12       1.0  T
  10   -402.6981128  0.195676E-01  0.277E-01    0.08       1.0  T
  11   -402.7145911 -0.164783E-01  0.179E-01    0.05       1.0  T
  12   -402.7260443 -0.114532E-01  0.101E-01    0.07       1.0  T
  13   -402.7298406 -0.379629E-02  0.809E-02    0.10       1.0  T
  14   -402.7302217 -0.381092E-03  0.471E-02    0.07       1.0  T
  15   -402.7309287 -0.707025E-03  0.442E-02    0.09       1.0  T
  16   -402.7312875 -0.358797E-03  0.207E-02    0.08       1.0  T
  17   -402.7313763 -0.887968E-04  0.129E-02    0.08       1.0  T
  18   -402.7313865 -0.101655E-04  0.869E-03    0.08       1.0  T
  19   -402.7314097 -0.232411E-04  0.491E-03    0.08       1.4  T
  20   -402.7314149 -0.521154E-05  0.260E-03    0.08       2.7  T
  21   -402.7314166 -0.172337E-05  0.121E-03    0.08       5.7  T
  22   -402.7314167 -0.375184E-07  0.788E-04    0.08       8.8  T
  23   -402.7314168 -0.973595E-07  0.494E-04    0.08      14.1  T

   *** convergence criteria satisfied after 23 iterations ***

         #    Occupation            Energy/Eh            Energy/eV
      -------------------------------------------------------------
         1        2.0000           -0.7817869             -21.2735
       ...           ...                  ...                  ...
       364        2.0000           -0.3499645              -9.5230
       365        2.0000           -0.3475603              -9.4576
       366        2.0000           -0.3398959              -9.2490
       367        2.0000           -0.3293829              -8.9630
       368        2.0000           -0.3266754              -8.8893
       369        1.9985           -0.3203168              -8.7163
       370        1.6665           -0.3149937              -8.5714 (HOMO)
       371        0.3329           -0.3119349              -8.4882 (LUMO)
       372        0.0019           -0.3068357              -8.3494
       373        0.0002           -0.3046508              -8.2900
       374                         -0.2960354              -8.0555
       375                         -0.2903433              -7.9006
       ...                                ...                  ...
       776                          0.7143406              19.4382
      -------------------------------------------------------------
                  HL-Gap            0.0030588 Eh            0.0832 eV
             Fermi-level           -0.3134653 Eh           -8.5298 eV

 SCC (total)                   0 d,  0 h,  0 min,  5.529 sec
 SCC setup                      ...        0 min,  0.005 sec (  0.090%)
 Dispersion                     ...        0 min,  0.015 sec (  0.271%)
 classical contributions        ...        0 min,  0.002 sec (  0.036%)
 integral evaluation            ...        0 min,  0.108 sec (  1.953%)
 iterations                     ...        0 min,  4.875 sec ( 88.171%)
 molecular gradient             ...        0 min,  0.503 sec (  9.097%)
 printout                       ...        0 min,  0.021 sec (  0.380%)

         :::::::::::::::::::::::::::::::::::::::::::::::::::::
         ::                     SUMMARY                     ::
         :::::::::::::::::::::::::::::::::::::::::::::::::::::
         :: total energy            -396.246240793394 Eh    ::
         :: gradient norm              0.075244872487 Eh/a0 ::
         :: HOMO-LUMO gap              0.083233860713 eV    ::
         ::.................................................::
         :: SCC energy              -402.742839851943 Eh    ::
         :: -> isotropic ES            0.031731239596 Eh    ::
         :: -> anisotropic ES          0.024837465350 Eh    ::
         :: -> anisotropic XC          0.144153153707 Eh    ::
         :: -> dispersion             -0.525945162933 Eh    ::
         :: repulsion energy           6.496599058549 Eh    ::
         :: add. restraining           0.000000000000 Eh    ::
         :: total charge              -0.000000000335 e     ::
         :::::::::::::::::::::::::::::::::::::::::::::::::::::

      ----------------------------------------------------------- 
     |                   =====================                   |
     |                        A N C O P T                        |
     |                   =====================                   |
     |               Approximate Normal Coordinate               |
     |                Rational Function Optimizer                |
      ----------------------------------------------------------- 
      ----------------------------------------------------------- 
     |                   =====================                   |
     |                        A N C O P T                        |
     |                   =====================                   |
     |               Approximate Normal Coordinate               |
     |                Rational Function Optimizer                |
      ----------------------------------------------------------- 

          ...................................................
          :                      SETUP                      :
          :.................................................:
          :   optimization level            normal          :
          :   max. optcycles                   618          :
          :   ANC micro-cycles                  20          :
          :   degrees of freedom               612          :
          :.................................................:
          :   RF solver                   davidson          :
          :   write xtbopt.log                true          :
          :   linear?                        false          :
          :   energy convergence         0.5000000E-05 Eh   :
          :   grad. convergence          0.1000000E-02 Eh/α :
          :   maxmium RF displ.          1.0000000          :
          :   Hlow (freq-cutoff)         0.1000000E-01      :
          :   Hmax (freq-cutoff)         5.0000000          :
          :   S6 in model hess.         20.0000000          :
          ...................................................

generating ANC from exact Hessian ...
Using Lindh-Hessian (1995)
 Shifting diagonal of input Hessian by   9.930980223577033E-003
 Lowest  eigenvalues of input Hessian
    0.000000    0.000000    0.000000    0.000000    0.000000    0.000000
    0.010000    0.010067    0.010144    0.010194    0.010209    0.010629
    0.010705    0.010778    0.010953    0.011008    0.011595    0.011789
 Highest eigenvalues
    2.052295    2.054168    2.062015    2.066552    2.072406    2.089697
 

........................................................................
.............................. CYCLE    1 ..............................
........................................................................

 iter      E             dE          RMSdq      gap      omega  full diag
   1   -402.7314168 -0.402731E+03  0.377E-04    0.08       0.0  T
   2   -402.7314158  0.966527E-06  0.136E-03    0.08       5.1  T
   3   -402.7314163 -0.440636E-06  0.984E-04    0.08       7.1  T
   4   -402.7314167 -0.456002E-06  0.463E-04    0.08      15.0  T
     SCC iter.                  ...        0 min,  0.850 sec
     gradient                   ...        0 min,  0.496 sec
 * total energy  :  -396.2462408 Eh     change        0.2286282E-07 Eh
   gradient norm :     0.0752321 Eh/α   predicted     0.0000000E+00 (-100.00%)
   displ. norm   :     0.5850212 α      lambda       -0.2720714E-01
   maximum displ.:     0.2313061 α      in ANC's #40, #42, #41, ...

........................................................................
.............................. CYCLE    2 ..............................
........................................................................

 iter      E             dE          RMSdq      gap      omega  full diag
   1   -402.9074710 -0.402907E+03  0.145E-01    0.06       0.0  T
   2   -402.8853490  0.221220E-01  0.215E-01    0.27       1.0  T
   3   -402.8829977  0.235132E-02  0.219E-01    0.02       1.0  T
   4   -402.8987434 -0.157457E-01  0.157E-01    0.17       1.0  T
   5   -402.9024362 -0.369278E-02  0.113E-01    0.15       1.0  T
   6   -402.9065433 -0.410712E-02  0.816E-02    0.12       1.0  T
   7   -402.9084100 -0.186673E-02  0.484E-02    0.10       1.0  T
   8   -402.9094738 -0.106377E-02  0.209E-02    0.09       1.0  T
   9   -402.9096444 -0.170548E-03  0.583E-03    0.08       1.2  T
  10   -402.9096528 -0.840959E-05  0.296E-03    0.08       2.4  T
  11   -402.9096529 -0.118380E-06  0.261E-03    0.08       2.7  T
  12   -402.9096564 -0.347978E-05  0.586E-04    0.08      11.9  T
  13   -402.9096563  0.251245E-07  0.553E-04    0.08      12.6  T
  14   -402.9096564 -0.822504E-07  0.303E-04    0.08      23.0  T
     SCC iter.                  ...        0 min,  2.933 sec
     gradient                   ...        0 min,  0.506 sec
 * total energy  :  -396.2671965 Eh     change       -0.2095571E-01 Eh
   gradient norm :     0.0396801 Eh/α   predicted    -0.1826082E-01 ( -12.86%)
   displ. norm   :     0.6665350 α      lambda       -0.1626003E-01
   maximum displ.:     0.3098981 α      in ANC's #40, #42, #37, ...

........................................................................
.............................. CYCLE    3 ..............................
........................................................................

 iter      E             dE          RMSdq      gap      omega  full diag
   1   -403.0699577 -0.403070E+03  0.128E-01    0.06       0.0  T
   2   -403.0454224  0.245353E-01  0.223E-01    0.26       1.0  T
   3   -403.0642817 -0.188593E-01  0.127E-01    0.04       1.0  T
   4   -403.0643041 -0.223892E-04  0.125E-01    0.13       1.0  T
   5   -403.0697736 -0.546951E-02  0.673E-02    0.11       1.0  T
   6   -403.0716768 -0.190323E-02  0.325E-02    0.09       1.0  T
   7   -403.0719988 -0.321921E-03  0.189E-02    0.08       1.0  T
   8   -403.0721305 -0.131780E-03  0.118E-02    0.08       1.0  T
   9   -403.0721814 -0.508331E-04  0.417E-03    0.08       1.7  T
  10   -403.0721842 -0.282342E-05  0.219E-03    0.08       3.2  T
  11   -403.0721844 -0.207547E-06  0.220E-03    0.08       3.2  T
  12   -403.0721869 -0.252049E-05  0.406E-04    0.08      17.2  T
  13   -403.0721869  0.393986E-07  0.424E-04    0.08      16.5  T
  14   -403.0721869 -0.419776E-07  0.278E-04    0.08      25.1  T
     SCC iter.                  ...        0 min,  2.970 sec
     gradient                   ...        0 min,  0.475 sec
 * total energy  :  -396.2790804 Eh     change       -0.1188391E-01 Eh
   gradient norm :     0.0175954 Eh/α   predicted    -0.1174193E-01 (  -1.19%)
   displ. norm   :     0.5879449 α      lambda       -0.7279830E-02
   maximum displ.:     0.2905561 α      in ANC's #40, #42, #37, ...

........................................................................
.............................. CYCLE    4 ..............................
........................................................................

 iter      E             dE          RMSdq      gap      omega  full diag
   1   -403.1707249 -0.403171E+03  0.907E-02    0.07       0.0  T
   2   -403.1609194  0.980548E-02  0.142E-01    0.17       1.0  T
   3   -403.1480770  0.128424E-01  0.207E-01    0.02       1.0  T
   4   -403.1671312 -0.190542E-01  0.939E-02    0.11       1.0  T
   5   -403.1688890 -0.175779E-02  0.643E-02    0.11       1.0  T
   6   -403.1701885 -0.129949E-02  0.476E-02    0.10       1.0  T
   7   -403.1706328 -0.444234E-03  0.333E-02    0.10       1.0  T
   8   -403.1711652 -0.532431E-03  0.135E-02    0.09       1.0  T
   9   -403.1712129 -0.477262E-04  0.607E-03    0.08       1.1  T
  10   -403.1712323 -0.194323E-04  0.169E-03    0.08       4.1  T
  11   -403.1712332 -0.900183E-06  0.108E-03    0.08       6.5  T
  12   -403.1712336 -0.320858E-06  0.624E-04    0.08      11.2  T
  13   -403.1712336 -0.595694E-07  0.474E-04    0.08      14.7  T
     SCC iter.                  ...        0 min,  2.737 sec
     gradient                   ...        0 min,  0.495 sec
 * total energy  :  -396.2841831 Eh     change       -0.5102677E-02 Eh
   gradient norm :     0.0135283 Eh/α   predicted    -0.4898174E-02 (  -4.01%)
   displ. norm   :     0.4832993 α      lambda       -0.3187112E-02
   maximum displ.:     0.2241471 α      in ANC's #40, #37, #33, ...

........................................................................
.............................. CYCLE    5 ..............................
........................................................................

 iter      E             dE          RMSdq      gap      omega  full diag
   1   -403.2306793 -0.403231E+03  0.754E-02    0.08       0.0  T
   2   -403.2305423  0.137088E-03  0.461E-02    0.08       1.0  T
   3   -403.2277283  0.281399E-02  0.775E-02    0.09       1.0  T
   4   -403.2298982 -0.216991E-02  0.420E-02    0.07       1.0  T
   5   -403.2294176  0.480609E-03  0.497E-02    0.10       1.0  T
   6   -403.2306236 -0.120604E-02  0.148E-02    0.08       1.0  T
   7   -403.2306931 -0.694624E-04  0.103E-02    0.08       1.0  T
   8   -403.2307480 -0.549032E-04  0.323E-03    0.08       2.2  T
   9   -403.2307504 -0.245514E-05  0.168E-03    0.08       4.2  T
  10   -403.2307509 -0.513346E-06  0.116E-03    0.08       6.0  T
  11   -403.2307516 -0.679036E-06  0.533E-04    0.08      13.1  T
  12   -403.2307517 -0.978149E-07  0.264E-04    0.08      26.3  T
     SCC iter.                  ...        0 min,  2.489 sec
     gradient                   ...        0 min,  0.494 sec
 * total energy  :  -396.2860290 Eh     change       -0.1845910E-02 Eh
   gradient norm :     0.0120827 Eh/α   predicted    -0.1965790E-02 (   6.49%)
   displ. norm   :     0.2718635 α      lambda       -0.9847442E-03
   maximum displ.:     0.0996064 α      in ANC's #40, #35, #37, ...

........................................................................
.............................. CYCLE    6 ..............................
........................................................................

 iter      E             dE          RMSdq      gap      omega  full diag
   1   -403.2492275 -0.403249E+03  0.506E-02    0.09       0.0  T
   2   -403.2421507  0.707680E-02  0.118E-01    0.04       1.0  T
   3   -403.2468899 -0.473924E-02  0.706E-02    0.11       1.0  T
   4   -403.2484055 -0.151555E-02  0.404E-02    0.08       1.0  T
   5   -403.2491265 -0.721094E-03  0.179E-02    0.09       1.0  T
   6   -403.2492782 -0.151624E-03  0.103E-02    0.08       1.0  T
   7   -403.2492874 -0.922873E-05  0.748E-03    0.08       1.0  T
   8   -403.2493130 -0.255666E-04  0.331E-03    0.08       2.1  T
   9   -403.2493173 -0.429000E-05  0.102E-03    0.08       6.9  T
  10   -403.2493174 -0.994977E-07  0.652E-04    0.08      10.7  T
  11   -403.2493175 -0.158728E-06  0.381E-04    0.08      18.3  T
     SCC iter.                  ...        0 min,  2.274 sec
     gradient                   ...        0 min,  0.491 sec
 * total energy  :  -396.2865539 Eh     change       -0.5249229E-03 Eh
   gradient norm :     0.0075614 Eh/α   predicted    -0.5287716E-03 (   0.73%)
   displ. norm   :     0.1165112 α      lambda       -0.2198064E-03
   maximum displ.:     0.0354331 α      in ANC's #25, #4, #13, ...

........................................................................
.............................. CYCLE    7 ..............................
........................................................................

 iter      E             dE          RMSdq      gap      omega  full diag
   1   -403.2481708 -0.403248E+03  0.234E-02    0.08       0.0  T
   2   -403.2443982  0.377258E-02  0.850E-02    0.05       1.0  T
   3   -403.2478714 -0.347323E-02  0.271E-02    0.09       1.0  T
   4   -403.2479244 -0.530088E-04  0.237E-02    0.08       1.0  T
   5   -403.2481809 -0.256473E-03  0.819E-03    0.08       1.0  T
   6   -403.2482072 -0.263478E-04  0.427E-03    0.08       1.6  T
   7   -403.2482158 -0.853977E-05  0.226E-03    0.08       3.1  T
   8   -403.2482174 -0.161853E-05  0.134E-03    0.08       5.2  T
   9   -403.2482184 -0.977083E-06  0.366E-04    0.08      19.0  T
  10   -403.2482184 -0.440701E-08  0.341E-04    0.08      20.5  T
     SCC iter.                  ...        0 min,  2.128 sec
     gradient                   ...        0 min,  0.488 sec
 * total energy  :  -396.2867166 Eh     change       -0.1626904E-03 Eh
   gradient norm :     0.0037556 Eh/α   predicted    -0.1114793E-03 ( -31.48%)
   displ. norm   :     0.1509045 α      lambda       -0.1584358E-03
   maximum displ.:     0.0559038 α      in ANC's #4, #14, #13, ...

........................................................................
.............................. CYCLE    8 ..............................
........................................................................

 iter      E             dE          RMSdq      gap      omega  full diag
   1   -403.2441190 -0.403244E+03  0.264E-02    0.09       0.0  T
   2   -403.2408338  0.328514E-02  0.802E-02    0.05       1.0  T
   3   -403.2435736 -0.273977E-02  0.347E-02    0.10       1.0  T
   4   -403.2437005 -0.126958E-03  0.297E-02    0.08       1.0  T
   5   -403.2441203 -0.419756E-03  0.861E-03    0.08       1.0  T
   6   -403.2441521 -0.318333E-04  0.423E-03    0.08       1.6  T
   7   -403.2441598 -0.763274E-05  0.246E-03    0.08       2.8  T
   8   -403.2441617 -0.190385E-05  0.151E-03    0.08       4.6  T
   9   -403.2441629 -0.127342E-05  0.367E-04    0.08      19.0  T
  10   -403.2441630 -0.115156E-07  0.308E-04    0.08      22.6  T
  11   -403.2441630 -0.418999E-07  0.135E-04    0.08      51.6  T
     SCC iter.                  ...        0 min,  2.342 sec
     gradient                   ...        0 min,  0.462 sec
 * total energy  :  -396.2868159 Eh     change       -0.9932082E-04 Eh
   gradient norm :     0.0024896 Eh/α   predicted    -0.8102461E-04 ( -18.42%)
   displ. norm   :     0.0980400 α      lambda       -0.4832341E-04
   maximum displ.:     0.0462677 α      in ANC's #4, #14, #11, ...

........................................................................
.............................. CYCLE    9 ..............................
........................................................................

 iter      E             dE          RMSdq      gap      omega  full diag
   1   -403.2431650 -0.403243E+03  0.133E-02    0.08       0.0  T
   2   -403.2430516  0.113341E-03  0.169E-02    0.08       1.0  T
   3   -403.2426732  0.378409E-03  0.309E-02    0.10       1.0  T
   4   -403.2430173 -0.344038E-03  0.162E-02    0.08       1.0  T
   5   -403.2431600 -0.142744E-03  0.379E-03    0.08       1.8  T
   6   -403.2431661 -0.609649E-05  0.174E-03    0.08       4.0  T
   7   -403.2431669 -0.805847E-06  0.123E-03    0.08       5.7  T
   8   -403.2431677 -0.790329E-06  0.483E-04    0.08      14.4  T
   9   -403.2431678 -0.109911E-06  0.159E-04    0.08      43.8  T
     SCC iter.                  ...        0 min,  1.938 sec
     gradient                   ...        0 min,  0.473 sec
 * total energy  :  -396.2868544 Eh     change       -0.3852296E-04 Eh
   gradient norm :     0.0024852 Eh/α   predicted    -0.2439478E-04 ( -36.67%)
   displ. norm   :     0.1701588 α      lambda       -0.7261202E-04
   maximum displ.:     0.0843811 α      in ANC's #4, #14, #11, ...

........................................................................
.............................. CYCLE   10 ..............................
........................................................................

 iter      E             dE          RMSdq      gap      omega  full diag
   1   -403.2429689 -0.403243E+03  0.212E-02    0.08       0.0  T
   2   -403.2429571  0.118812E-04  0.134E-02    0.08       1.0  T
   3   -403.2421709  0.786158E-03  0.430E-02    0.10       1.0  T
   4   -403.2424874 -0.316513E-03  0.286E-02    0.07       1.0  T
   5   -403.2429509 -0.463479E-03  0.594E-03    0.08       1.2  T
   6   -403.2429665 -0.155528E-04  0.298E-03    0.08       2.3  T
   7   -403.2429694 -0.294159E-05  0.181E-03    0.08       3.8  T
   8   -403.2429711 -0.174942E-05  0.757E-04    0.08       9.2  T
   9   -403.2429714 -0.254212E-06  0.311E-04    0.08      22.4  T
  10   -403.2429714 -0.465479E-07  0.113E-04    0.08      61.8  T
     SCC iter.                  ...        0 min,  2.105 sec
     gradient                   ...        0 min,  0.513 sec
 * total energy  :  -396.2869079 Eh     change       -0.5344564E-04 Eh
   gradient norm :     0.0020845 Eh/α   predicted    -0.3735984E-04 ( -30.10%)
   displ. norm   :     0.1675452 α      lambda       -0.5300368E-04
   maximum displ.:     0.0880728 α      in ANC's #4, #14, #11, ...

........................................................................
.............................. CYCLE   11 ..............................
........................................................................

 iter      E             dE          RMSdq      gap      omega  full diag
   1   -403.2436334 -0.403244E+03  0.197E-02    0.08       0.0  T
   2   -403.2436306  0.274662E-05  0.115E-02    0.08       1.0  T
   3   -403.2434905  0.140154E-03  0.169E-02    0.08       1.0  T
   4   -403.2434190  0.714254E-04  0.202E-02    0.09       1.0  T
   5   -403.2436226 -0.203604E-03  0.473E-03    0.08       1.5  T
   6   -403.2436309 -0.831177E-05  0.262E-03    0.08       2.7  T
   7   -403.2436333 -0.237856E-05  0.177E-03    0.08       3.9  T
   8   -403.2436347 -0.140466E-05  0.817E-04    0.08       8.5  T
   9   -403.2436350 -0.290644E-06  0.337E-04    0.08      20.7  T
  10   -403.2436351 -0.626164E-07  0.950E-05    0.08      73.3  T
     SCC iter.                  ...        0 min,  2.176 sec
     gradient                   ...        0 min,  0.506 sec
 * total energy  :  -396.2869476 Eh     change       -0.3966555E-04 Eh
   gradient norm :     0.0020646 Eh/α   predicted    -0.2725052E-04 ( -31.30%)
   displ. norm   :     0.1531203 α      lambda       -0.4156141E-04
   maximum displ.:     0.0842931 α      in ANC's #4, #14, #11, ...

........................................................................
.............................. CYCLE   12 ..............................
........................................................................

 iter      E             dE          RMSdq      gap      omega  full diag
   1   -403.2444635 -0.403244E+03  0.173E-02    0.08       0.0  T
   2   -403.2444424  0.211174E-04  0.116E-02    0.08       1.0  T
   3   -403.2432983  0.114412E-02  0.450E-02    0.10       1.0  T
   4   -403.2442076 -0.909356E-03  0.218E-02    0.08       1.0  T
   5   -403.2444485 -0.240851E-03  0.547E-03    0.08       1.3  T
   6   -403.2444640 -0.155096E-04  0.172E-03    0.08       4.1  T
   7   -403.2444648 -0.801843E-06  0.121E-03    0.08       5.8  T
   8   -403.2444652 -0.465079E-06  0.640E-04    0.08      10.9  T
   9   -403.2444654 -0.133587E-06  0.302E-04    0.08      23.1  T
     SCC iter.                  ...        0 min,  1.544 sec
     gradient                   ...        0 min,  0.324 sec
 * total energy  :  -396.2869796 Eh     change       -0.3202653E-04 Eh
   gradient norm :     0.0021143 Eh/α   predicted    -0.2126824E-04 ( -33.59%)
   displ. norm   :     0.1474078 α      lambda       -0.3706122E-04
   maximum displ.:     0.0846131 α      in ANC's #4, #2, #14, ...

........................................................................
.............................. CYCLE   13 ..............................
........................................................................

 iter      E             dE          RMSdq      gap      omega  full diag
   1   -403.2450815 -0.403245E+03  0.165E-02    0.08       0.0  T
   2   -403.2449364  0.145174E-03  0.186E-02    0.08       1.0  T
   3   -403.2441609  0.775424E-03  0.408E-02    0.10       1.0  T
   4   -403.2449059 -0.744932E-03  0.185E-02    0.08       1.0  T
   5   -403.2450645 -0.158620E-03  0.583E-03    0.08       1.2  T
   6   -403.2450839 -0.193735E-04  0.179E-03    0.08       3.9  T
   7   -403.2450849 -0.100445E-05  0.122E-03    0.08       5.7  T
   8   -403.2450853 -0.425946E-06  0.686E-04    0.08      10.2  T
   9   -403.2450855 -0.185789E-06  0.254E-04    0.08      27.5  T
     SCC iter.                  ...        0 min,  1.478 sec
     gradient                   ...        0 min,  0.410 sec
 * total energy  :  -396.2870078 Eh     change       -0.2821439E-04 Eh
   gradient norm :     0.0018117 Eh/α   predicted    -0.1893377E-04 ( -32.89%)
   displ. norm   :     0.1878303 α      lambda       -0.2746978E-04
   maximum displ.:     0.1130798 α      in ANC's #4, #5, #2, ...

........................................................................
.............................. CYCLE   14 ..............................
........................................................................

 iter      E             dE          RMSdq      gap      omega  full diag
   1   -403.2454110 -0.403245E+03  0.209E-02    0.09       0.0  T
   2   -403.2449006  0.510346E-03  0.325E-02    0.07       1.0  T
   3   -403.2445303  0.370340E-03  0.408E-02    0.10       1.0  T
   4   -403.2451704 -0.640102E-03  0.217E-02    0.08       1.0  T
   5   -403.2453843 -0.213872E-03  0.774E-03    0.08       1.0  T
   6   -403.2454177 -0.333939E-04  0.252E-03    0.08       2.8  T
   7   -403.2454199 -0.227899E-05  0.164E-03    0.08       4.2  T
   8   -403.2454205 -0.594889E-06  0.102E-03    0.08       6.8  T
   9   -403.2454210 -0.485912E-06  0.321E-04    0.08      21.7  T
  10   -403.2454211 -0.391277E-07  0.129E-04    0.08      53.8  T
     SCC iter.                  ...        0 min,  1.705 sec
     gradient                   ...        0 min,  0.398 sec
 * total energy  :  -396.2870341 Eh     change       -0.2632909E-04 Eh
   gradient norm :     0.0013581 Eh/α   predicted    -0.1395162E-04 ( -47.01%)
   displ. norm   :     0.0846339 α      lambda       -0.1276668E-04
   maximum displ.:     0.0539663 α      in ANC's #4, #5, #2, ...

........................................................................
.............................. CYCLE   15 ..............................
........................................................................

 iter      E             dE          RMSdq      gap      omega  full diag
   1   -403.2453697 -0.403245E+03  0.891E-03    0.08       0.0  T
   2   -403.2453063  0.634328E-04  0.120E-02    0.08       1.0  T
   3   -403.2451578  0.148472E-03  0.199E-02    0.09       1.0  T
   4   -403.2453516 -0.193820E-03  0.584E-03    0.08       1.2  T
   5   -403.2453696 -0.180357E-04  0.160E-03    0.08       4.4  T
   6   -403.2453704 -0.808876E-06  0.103E-03    0.08       6.8  T
   7   -403.2453707 -0.266685E-06  0.715E-04    0.08       9.8  T
   8   -403.2453709 -0.160382E-06  0.487E-04    0.08      14.3  T
     SCC iter.                  ...        0 min,  1.408 sec
     gradient                   ...        0 min,  0.402 sec
 * total energy  :  -396.2870503 Eh     change       -0.1618089E-04 Eh
   gradient norm :     0.0010364 Eh/α   predicted    -0.6405565E-05 ( -60.41%)
   displ. norm   :     0.1387302 α      lambda       -0.2169506E-04
   maximum displ.:     0.0804776 α      in ANC's #4, #5, #2, ...

........................................................................
.............................. CYCLE   16 ..............................
........................................................................

 iter      E             dE          RMSdq      gap      omega  full diag
   1   -403.2454270 -0.403245E+03  0.141E-02    0.08       0.0  T
   2   -403.2454115  0.155416E-04  0.968E-03    0.08       1.0  T
   3   -403.2444182  0.993258E-03  0.433E-02    0.10       1.0  T
   4   -403.2453868 -0.968579E-03  0.850E-03    0.08       1.0  T
   5   -403.2454221 -0.352808E-04  0.320E-03    0.08       2.2  T
   6   -403.2454259 -0.380747E-05  0.201E-03    0.08       3.5  T
   7   -403.2454271 -0.122954E-05  0.130E-03    0.08       5.4  T
   8   -403.2454279 -0.814555E-06  0.410E-04    0.08      17.0  T
   9   -403.2454280 -0.711769E-07  0.152E-04    0.08      45.8  T
     SCC iter.                  ...        0 min,  1.545 sec
     gradient                   ...        0 min,  0.397 sec
 * total energy  :  -396.2870758 Eh     change       -0.2545804E-04 Eh
   gradient norm :     0.0013399 Eh/α   predicted    -0.1094164E-04 ( -57.02%)
   displ. norm   :     0.1759957 α      lambda       -0.1978627E-04
   maximum displ.:     0.1048893 α      in ANC's #4, #5, #2, ...

........................................................................
.............................. CYCLE   17 ..............................
........................................................................

 iter      E             dE          RMSdq      gap      omega  full diag
   1   -403.2453759 -0.403245E+03  0.165E-02    0.08       0.0  T
   2   -403.2453564  0.194709E-04  0.108E-02    0.09       1.0  T
   3   -403.2429902  0.236621E-02  0.645E-02    0.06       1.0  T
   4   -403.2453014 -0.231119E-02  0.119E-02    0.09       1.0  T
   5   -403.2453693 -0.678729E-04  0.358E-03    0.08       1.9  T
   6   -403.2453744 -0.509898E-05  0.235E-03    0.08       3.0  T
   7   -403.2453765 -0.217910E-05  0.962E-04    0.08       7.2  T
   8   -403.2453769 -0.360452E-06  0.245E-04    0.08      28.4  T
   9   -403.2453769 -0.117482E-07  0.145E-04    0.08      47.9  T
     SCC iter.                  ...        0 min,  1.535 sec
     gradient                   ...        0 min,  0.388 sec
 * total energy  :  -396.2870997 Eh     change       -0.2389026E-04 Eh
   gradient norm :     0.0016647 Eh/α   predicted    -0.1003122E-04 ( -58.01%)
   displ. norm   :     0.1993326 α      lambda       -0.1979567E-04
   maximum displ.:     0.1209010 α      in ANC's #4, #5, #2, ...

........................................................................
.............................. CYCLE   18 ..............................
........................................................................

 iter      E             dE          RMSdq      gap      omega  full diag
   1   -403.2454792 -0.403245E+03  0.179E-02    0.08       0.0  T
   2   -403.2454181  0.611034E-04  0.147E-02    0.09       1.0  T
   3   -403.2429113  0.250682E-02  0.688E-02    0.06       1.0  T
   4   -403.2454051 -0.249376E-02  0.108E-02    0.09       1.0  T
   5   -403.2454757 -0.706896E-04  0.327E-03    0.08       2.1  T
   6   -403.2454794 -0.368729E-05  0.153E-03    0.08       4.6  T
   7   -403.2454795 -0.280527E-07  0.152E-03    0.08       4.6  T
   8   -403.2454807 -0.124760E-05  0.465E-04    0.08      15.0  T
   9   -403.2454808 -0.661668E-07  0.243E-04    0.08      28.6  T
  10   -403.2454808 -0.200619E-07  0.129E-04    0.08      53.9  T
     SCC iter.                  ...        0 min,  1.672 sec
     gradient                   ...        0 min,  0.400 sec
 * total energy  :  -396.2871248 Eh     change       -0.2513533E-04 Eh
   gradient norm :     0.0014942 Eh/α   predicted    -0.1007362E-04 ( -59.92%)
   displ. norm   :     0.2454897 α      lambda       -0.2332557E-04
   maximum displ.:     0.1512952 α      in ANC's #4, #5, #2, ...

........................................................................
.............................. CYCLE   19 ..............................
........................................................................

 iter      E             dE          RMSdq      gap      omega  full diag
   1   -403.2456126 -0.403246E+03  0.218E-02    0.08       0.0  T
   2   -403.2454965  0.116045E-03  0.195E-02    0.09       1.0  T
   3   -403.2423503  0.314626E-02  0.781E-02    0.06       1.0  T
   4   -403.2453811 -0.303082E-02  0.184E-02    0.09       1.0  T
   5   -403.2456034 -0.222276E-03  0.552E-03    0.09       1.3  T
   6   -403.2456118 -0.845673E-05  0.278E-03    0.08       2.5  T
   7   -403.2456138 -0.201721E-05  0.173E-03    0.08       4.0  T
   8   -403.2456154 -0.158768E-05  0.598E-04    0.08      11.7  T
   9   -403.2456156 -0.142110E-06  0.294E-04    0.08      23.7  T
  10   -403.2456156 -0.380812E-07  0.133E-04    0.08      52.4  T
     SCC iter.                  ...        0 min,  1.686 sec
     gradient                   ...        0 min,  0.390 sec
 * total energy  :  -396.2871538 Eh     change       -0.2900516E-04 Eh
   gradient norm :     0.0010774 Eh/α   predicted    -0.1197662E-04 ( -58.71%)
   displ. norm   :     0.2749141 α      lambda       -0.2242593E-04
   maximum displ.:     0.1716145 α      in ANC's #4, #5, #2, ...

........................................................................
.............................. CYCLE   20 ..............................
........................................................................

 iter      E             dE          RMSdq      gap      omega  full diag
   1   -403.2458044 -0.403246E+03  0.241E-02    0.08       0.0  T
   2   -403.2456994  0.105075E-03  0.202E-02    0.09       1.0  T
   3   -403.2418375  0.386184E-02  0.871E-02    0.05       1.0  T
   4   -403.2452995 -0.346202E-02  0.272E-02    0.09       1.0  T
   5   -403.2457835 -0.483968E-03  0.720E-03    0.09       1.0  T
   6   -403.2458027 -0.191411E-04  0.333E-03    0.08       2.1  T
   7   -403.2458064 -0.375971E-05  0.173E-03    0.08       4.0  T
   8   -403.2458078 -0.138142E-05  0.610E-04    0.08      11.4  T
   9   -403.2458079 -0.128165E-06  0.332E-04    0.08      21.0  T
  10   -403.2458080 -0.491980E-07  0.149E-04    0.08      46.8  T
     SCC iter.                  ...        0 min,  1.727 sec
     gradient                   ...        0 min,  0.395 sec
 * total energy  :  -396.2871803 Eh     change       -0.2653885E-04 Eh
   gradient norm :     0.0009567 Eh/α   predicted    -0.1159010E-04 ( -56.33%)
   displ. norm   :     0.2453429 α      lambda       -0.1607491E-04
   maximum displ.:     0.1546460 α      in ANC's #4, #5, #2, ...
 * RMSD in coord.:     0.2345146 α      energy gain  -0.4093954E-01 Eh

generating ANC from exact Hessian ...
Using Lindh-Hessian (1995)
 Shifting diagonal of input Hessian by   9.923588796006490E-003
 Lowest  eigenvalues of input Hessian
    0.000000    0.000000    0.000000    0.000000    0.000000    0.000000
    0.010000    0.010073    0.010160    0.010215    0.010240    0.010706
    0.010782    0.010877    0.011062    0.011115    0.011811    0.012027
 Highest eigenvalues
    2.140698    2.147894    2.153141    2.155569    2.169643    2.175896
 

........................................................................
.............................. CYCLE   21 ..............................
........................................................................

 iter      E             dE          RMSdq      gap      omega  full diag
   1   -403.2460336 -0.403246E+03  0.211E-02    0.08       0.0  T
   2   -403.2459661  0.675032E-04  0.168E-02    0.09       1.0  T
   3   -403.2430088  0.295730E-02  0.761E-02    0.06       1.0  T
   4   -403.2456509 -0.264213E-02  0.238E-02    0.09       1.0  T
   5   -403.2460212 -0.370304E-03  0.572E-03    0.08       1.2  T
   6   -403.2460317 -0.104700E-04  0.301E-03    0.08       2.3  T
   7   -403.2460351 -0.340932E-05  0.144E-03    0.08       4.8  T
   8   -403.2460361 -0.957657E-06  0.484E-04    0.08      14.4  T
   9   -403.2460361 -0.626421E-07  0.308E-04    0.08      22.6  T
     SCC iter.                  ...        0 min,  1.553 sec
     gradient                   ...        0 min,  0.412 sec
 * total energy  :  -396.2871990 Eh     change       -0.1868199E-04 Eh
   gradient norm :     0.0009687 Eh/α   predicted     0.0000000E+00 (-100.00%)
   displ. norm   :     0.0238491 α      lambda       -0.4090763E-05
   maximum displ.:     0.0083696 α      in ANC's #5, #15, #8, ...

........................................................................
.............................. CYCLE   22 ..............................
........................................................................

 iter      E             dE          RMSdq      gap      omega  full diag
   1   -403.2462378 -0.403246E+03  0.340E-03    0.08       0.0  T
   2   -403.2462356  0.213940E-05  0.279E-03    0.08       2.5  T
   3   -403.2461798  0.558961E-04  0.100E-02    0.09       1.0  T
   4   -403.2462283 -0.484993E-04  0.417E-03    0.08       1.7  T
   5   -403.2462370 -0.878367E-05  0.131E-03    0.08       5.3  T
   6   -403.2462378 -0.793844E-06  0.496E-04    0.08      14.0  T
   7   -403.2462379 -0.696014E-07  0.321E-04    0.08      21.7  T
     SCC iter.                  ...        0 min,  1.076 sec
     gradient                   ...        0 min,  0.330 sec
 * total energy  :  -396.2872044 Eh     change       -0.5396138E-05 Eh
   gradient norm :     0.0004860 Eh/α   predicted    -0.2155056E-05 ( -60.06%)
   displ. norm   :     0.0878695 α      lambda       -0.1086646E-04
   maximum displ.:     0.0330344 α      in ANC's #5, #15, #8, ...

........................................................................
.............................. CYCLE   23 ..............................
........................................................................

 iter      E             dE          RMSdq      gap      omega  full diag
   1   -403.2462587 -0.403246E+03  0.112E-02    0.08       0.0  T
   2   -403.2462482  0.104926E-04  0.783E-03    0.08       1.0  T
   3   -403.2455779  0.670360E-03  0.345E-02    0.10       1.0  T
   4   -403.2462126 -0.634701E-03  0.919E-03    0.08       1.0  T
   5   -403.2462554 -0.428177E-04  0.281E-03    0.08       2.5  T
   6   -403.2462583 -0.288907E-05  0.148E-03    0.08       4.7  T
   7   -403.2462591 -0.796198E-06  0.979E-04    0.08       7.1  T
   8   -403.2462595 -0.397356E-06  0.350E-04    0.08      19.9  T
     SCC iter.                  ...        0 min,  1.223 sec
     gradient                   ...        0 min,  0.353 sec
 * total energy  :  -396.2872140 Eh     change       -0.9633078E-05 Eh
   gradient norm :     0.0009113 Eh/α   predicted    -0.5452180E-05 ( -43.40%)
   displ. norm   :     0.0856161 α      lambda        0.5184632E-05
   maximum displ.:     0.0320371 α      in ANC's #5, #15, #8, ...

........................................................................
.............................. CYCLE   24 ..............................
........................................................................

 iter      E             dE          RMSdq      gap      omega  full diag
   1   -403.2462011 -0.403246E+03  0.110E-02    0.08       0.0  T
   2   -403.2461891  0.120446E-04  0.789E-03    0.08       1.0  T
   3   -403.2455312  0.657926E-03  0.343E-02    0.10       1.0  T
   4   -403.2461570 -0.625812E-03  0.890E-03    0.08       1.0  T
   5   -403.2461981 -0.411476E-04  0.273E-03    0.08       2.6  T
   6   -403.2462006 -0.249993E-05  0.152E-03    0.08       4.6  T
   7   -403.2462016 -0.918415E-06  0.916E-04    0.08       7.6  T
   8   -403.2462019 -0.340235E-06  0.318E-04    0.08      21.9  T
     SCC iter.                  ...        0 min,  1.264 sec
     gradient                   ...        0 min,  0.364 sec
 * total energy  :  -396.2872104 Eh     change        0.3690764E-05 Eh
   gradient norm :     0.0021603 Eh/α   predicted     0.2598115E-05 ( -29.60%)
   displ. norm   :     0.0257944 α      lambda       -0.8477372E-05
   maximum displ.:     0.0091257 α      in ANC's #15, #12, #8, ...

........................................................................
.............................. CYCLE   25 ..............................
........................................................................

 iter      E             dE          RMSdq      gap      omega  full diag
   1   -403.2462037 -0.403246E+03  0.436E-03    0.08       0.0  T
   2   -403.2461950  0.875364E-05  0.486E-03    0.08       1.4  T
   3   -403.2461332  0.618080E-04  0.114E-02    0.08       1.0  T
   4   -403.2461860 -0.527998E-04  0.552E-03    0.08       1.3  T
   5   -403.2462035 -0.175013E-04  0.107E-03    0.08       6.5  T
   6   -403.2462040 -0.498357E-06  0.490E-04    0.08      14.2  T
   7   -403.2462039  0.532615E-07  0.542E-04    0.08      12.9  T
     SCC iter.                  ...        0 min,  1.122 sec
     gradient                   ...        0 min,  0.327 sec
 * total energy  :  -396.2872162 Eh     change       -0.5812964E-05 Eh
   gradient norm :     0.0012457 Eh/α   predicted    -0.4244667E-05 ( -26.98%)
   displ. norm   :     0.0356599 α      lambda       -0.5710540E-05
   maximum displ.:     0.0121166 α      in ANC's #23, #15, #12, ...

........................................................................
.............................. CYCLE   26 ..............................
........................................................................

 iter      E             dE          RMSdq      gap      omega  full diag
   1   -403.2463432 -0.403246E+03  0.647E-03    0.08       0.0  T
   2   -403.2463101  0.330335E-04  0.905E-03    0.09       1.0  T
   3   -403.2462296  0.805305E-04  0.146E-02    0.08       1.0  T
   4   -403.2462994 -0.698548E-04  0.841E-03    0.09       1.0  T
   5   -403.2463427 -0.432765E-04  0.193E-03    0.08       3.6  T
   6   -403.2463441 -0.140684E-05  0.777E-04    0.08       9.0  T
   7   -403.2463443 -0.182474E-06  0.384E-04    0.08      18.1  T
   8   -403.2463444 -0.382539E-07  0.213E-04    0.08      32.7  T
     SCC iter.                  ...        0 min,  1.274 sec
     gradient                   ...        0 min,  0.362 sec
 * total energy  :  -396.2872196 Eh     change       -0.3402209E-05 Eh
   gradient norm :     0.0004501 Eh/α   predicted    -0.2874144E-05 ( -15.52%)
   displ. norm   :     0.0382246 α      lambda       -0.2480712E-05
   maximum displ.:     0.0189036 α      in ANC's #5, #4, #8, ...

   *** GEOMETRY OPTIMIZATION CONVERGED AFTER 26 ITERATIONS ***

------------------------------------------------------------------------
 total energy gain   :        -0.0409788 Eh      -25.7146 kcal/mol
 total RMSD          :         0.2371603 a0        0.1255 Å
 total power (kW/mol):        -4.1380676 (step)   -1.7469 (real)
------------------------------------------------------------------------

 ANCopt (total)                0 d,  0 h,  1 min,  1.590 sec
 optimizer setup                ...        0 min,  0.003 sec (  0.005%)
 model hessian                  ...        0 min,  0.422 sec (  0.685%)
 ANC generation                 ...        0 min,  0.167 sec (  0.271%)
 coordinate transformation      ...        0 min,  0.009 sec (  0.015%)
 single point calculation       ...        1 min,  0.897 sec ( 98.875%)
 optimization log               ...        0 min,  0.057 sec (  0.093%)
 hessian update                 ...        0 min,  0.006 sec (  0.010%)
 rational function              ...        0 min,  0.019 sec (  0.031%)

================
 final structure:
================
206
 xtb: 6.7.1pre (5071a88)
C           -8.35507133442515       10.07294624857737       -0.30055368031579
C           -7.50080472034555       11.06854017138805       -0.73892818870171
C           -6.14579270721313       10.84362461711117       -0.71579087990181
C           -5.60959990070334        9.62255978439675       -0.28751520584260
C           -7.84810121913962        8.84613106969866        0.08835349926676
C           -6.47253082008124        8.54671209874731        0.05874152508961
C           -5.95166305319832        7.22426453778837        0.30079860948237
C           -8.95289683021615        5.18749096055630        1.31351992991244
C           -8.17187700696240        6.24300337409495        0.89373594554384
C           -6.79184513337311        6.12214651321219        0.64668580912350
C           -6.23113806326668        4.82573266960031        0.81230884023713
C           -9.32969514166781        2.82959924384652        1.69584790190642
C           -8.43568203807409        3.90700325817070        1.50242159601613
C           -7.03475700732037        3.74233708629986        1.25819723716805
C           -6.43469742357701        2.48418788437262        1.33705598327376
C           -9.72259267307924        0.34754624318673        1.71312985674089
C           -8.97631958456622        1.50778352422273        1.79654018353983
C           -7.04538172543764       -0.02278077832645        0.78389031349656
C           -9.17848342900025       -0.93675126423573        1.51069709870289
C           -7.90654995744831       -1.21764579328806        1.03159282316642
C           -7.42460503008097       -2.49513439021386        0.62809740350204
C          -10.46384130133803       -4.66339407126357        0.97796777103959
C           -9.61640427241163       -3.60035812258553        1.07633346281783
C           -8.28428941921593       -3.62097343136922        0.58024858014114
C           -7.84497477215537       -4.82970088254190       -0.02970799407558
C          -10.95254937080624       -6.91223720301647        0.14305315013793
C          -10.07031412139278       -5.84360260145443        0.31941867132313
C           -8.75050744373175       -5.90658125663338       -0.19213188951026
C           -8.36218185545400       -7.06067194620201       -0.91082830037460
C          -10.55319682899377       -8.03377692814996       -0.55528231613398
C           -9.28174221355525       -8.10631695393029       -1.08298406598130
C           -4.18436149196368        9.45327198353282       -0.14245035523669
C           -3.27089200567496       10.51067273211244       -0.37272847397899
C           -1.92765513336095       10.32032932886655       -0.60677110443620
C           -1.24820730960676        9.12686476449787       -0.41144227078904
C           -4.56016082505856        7.01909282587620        0.21998245232442
C           -3.74954115053873        8.16886299681102        0.14677021691965
C           -1.75875780303099        6.51567060390065       -0.49852385949123
C           -4.85456916377137        4.59477562171943        0.54142803551371
C           -3.99172037024306        5.68414231031776        0.24577335484070
C           -2.64645641501403        5.41291537483080       -0.04976816941759
C           -2.09444249910611        4.12171684824119        0.04441053157213
C           -5.16733364624833        2.18460987323331        0.88488524750975
C           -4.33077820768166        3.27978933089860        0.54441846711044
C           -2.95820434521416        3.03952992555237        0.32270463456193
C           -2.42728344458393        1.73543838245642        0.51135380225077
C           -5.58532913381444       -0.25910457157188        0.64233643052944
C           -4.69579194447273        0.82436386829084        0.74188294584219
C           -3.31477642426902        0.61207401261751        0.62672271660358
C           -2.85550365134419       -0.71508822632925        0.37395852982385
C           -6.07203234796523       -2.64305784439510        0.20615300272098
C           -5.15762000182938       -1.54573454500446        0.30092776312283
C           -3.77479254325119       -1.75352640977133        0.06349139660279
C           -3.31038250647521       -2.99270406202397       -0.42328587107444
C           -6.50417074339786       -4.96359090506748       -0.47620485186407
C           -5.60077016306172       -3.88823955208415       -0.28538401025141
C           -4.23691413609349       -4.04345018959083       -0.66108380871962
C           -3.81706443953699       -5.25629015242529       -1.27396195050090
C           -7.04471715416497       -7.12328689823233       -1.42836433991771
C           -6.08081730166280       -6.15711710440463       -1.14594997250246
C           -4.69078007976663       -6.30193048838900       -1.50905170835767
C           -4.23934769596617       -7.59015673420712       -2.02456901719752
C           -5.06421711397855       -8.53359021424269       -2.53376803257355
C            0.06053010316825        8.75088716684741       -0.79294918774917
C            0.93375571235998        9.70628878401096       -1.32651234396846
C            2.28523799982277        9.48814579604134       -1.39196051641840
C            2.85684401558750        8.29745156085428       -0.93410021189136
C           -0.28576229289205        6.29263588496178       -0.48832107885742
C            0.56571940746076        7.40808722495855       -0.63003279332135
C            1.97259048648485        7.18628460323699       -0.68895984769971
C            2.44535982550128        5.86389499541973       -0.58241783756960
C           -0.69651020783463        3.89139532383144       -0.13641226880972
C            0.19543586196073        4.99394834543768       -0.35482127244083
C            1.60019421729478        4.77932156793428       -0.39803222552957
C            2.11967623499409        3.44236952763410       -0.35460143667563
C           -1.04014634707021        1.59010210109570        0.49739589356603
C           -0.16698008733940        2.59360444324834        0.01650048950604
C            1.23995731900067        2.37472462206548       -0.27469989186498
C            1.76879067182757        1.05544946000697       -0.49322391648040
C           -1.49190471019852       -1.00758664699691        0.36635910412615
C            0.93090266019190       -0.00835808053396       -0.78258714305612
C            1.36108584027013       -1.33765883598630       -0.62435263810110
C           -1.90390011559806       -3.18244228604141       -0.60410660655589
C           -0.98136185098066       -2.16140850836102       -0.23519442572733
C            0.40288857013701       -2.38871893151592       -0.50196875237489
C            0.84502911190833       -3.71131121686234       -0.62172147369509
C           -2.43570192932413       -5.18117251573906       -1.87802590997831
C           -1.41929540832112       -4.39989241941557       -1.10368432149928
C           -0.07024864821462       -4.74155171814374       -0.95309969577417
C            0.44305801555897       -6.08159506403715       -1.03879783110300
C           -2.84831696906724       -7.95895566566588       -1.94393569794805
C           -0.34945198763688       -7.12270117799019       -1.48523945847075
C           -0.02915017029583       -8.48370791126226       -1.31526425198061
C           -2.33634023300547       -9.20130132439027       -1.65881858916468
C           -0.99064620795893       -9.49161822613646       -1.49463399312259
C            4.25342396474582        8.23387543829435       -0.68803048980828
C            5.25753995192715        9.12030308802323       -1.00229403925485
C            6.61756293600724        8.88328755494613       -0.83920190764700
C            7.17382998458457        7.62221656943465       -0.58539965698824
C            3.90911691157240        5.61833099326727       -0.73330892396985
C            6.36298891431290        6.52378164582829       -0.27709574818524
C            6.75461791967858        5.18153011830171       -0.25893883407855
C            3.54399510784845        3.21132090509522       -0.36251413568854
C            4.44224437318225        4.26622781771918       -0.40339359250725
C            5.83256589840663        4.07922861788314       -0.22999558589642
C            6.34543983033170        2.75500757593775       -0.11320527398902
C            3.15756983885398        0.80742977606954       -0.37459967363408
C            4.05860483878580        1.88625251904554       -0.28250207791479
C            5.44787308475375        1.65310322827866       -0.20340691165675
C            5.93786531352518        0.31089048473497       -0.27354265134816
C            2.73248346059272       -1.60236782895642       -0.54242909042166
C            3.64902133499857       -0.51574929450219       -0.47367013135186
C            5.03910575118878       -0.73947516538067       -0.46311954815435
C            5.40478447887161       -2.14585316729162       -0.86248279663586
C            2.22531888525529       -3.99955509558058       -0.46521552090768
C            3.17000183067320       -2.95678715046910       -0.42437286013334
C            4.53423611156397       -3.25457831125844       -0.33278177335230
C            4.96430633806829       -4.54617006732662        0.02223105037639
C            1.74935363863708       -6.38825003402665       -0.57587410842610
C            2.66417199420351       -5.33333774023112       -0.34153188299777
C            4.00259246720018       -5.59767165464415        0.01707290848181
C            4.36402061532961       -6.93613020784842        0.34027418795089
C            1.27143740353358       -8.75143324747216       -0.81562320842431
C            2.17201891204072       -7.74286699541771       -0.44818797191873
C            3.46788766359461       -7.99561319842470        0.11375550567623
C            3.86256247624204       -9.33717864749620        0.45884185153630
C            3.18504370121543      -10.43449270881876        0.02421197280866
C            8.58707561157308        7.34651305389551       -0.72294967248687
C            9.51302450686817        8.33754811963725       -1.04126819906272
C           10.87456846428247        8.08073713489868       -1.06020017586784
C           11.34517456655888        6.83204872044462       -0.73082165354135
C            8.15484789028239        4.94020171785284       -0.25136789124406
C            9.04941851454686        6.03164079235030       -0.45867574471692
C           10.44684145635972        5.80438809877229       -0.42249117914732
C           10.90363724967986        4.53337270883025       -0.01718431045483
C            7.73403024928824        2.53651582331395        0.08068670531952
C            8.63024425062275        3.63900247991568        0.03217007801646
C           10.03175524112373        3.51948939994438        0.24031683974299
C            7.34309604954695        0.09732080394839       -0.02322784185178
C            8.20043559758294        1.19475795808988        0.25818450224120
C            9.51336031535852        0.88540459175117        0.68755258181359
C            9.92893069596723       -0.39478991543848        0.96270517564752
C            7.87795940009178       -1.18704768072045        0.06954648051303
C            9.11380930060687       -1.48784893304234        0.65601886581325
C            9.46624125560310       -2.80774413700724        1.01729567803737
C            6.29756463146573       -4.82775534333680        0.48867836315789
C            7.29695306803483       -3.85156051709657        0.45158567403415
C            8.56136526776585       -3.84462051217630        1.05730561671089
C            5.64920834239380       -7.17283842609643        0.91958930884745
C            6.57476348599477       -6.11470775032030        1.05030158792351
C            7.79473257363928       -6.39744793072621        1.72436375912169
C            8.08233024233999       -7.63018515565805        2.23293486153902
C            5.05809311964882       -9.54137186444339        1.25802680061882
C            5.96049698699825       -8.46683216190940        1.41678942523767
C            7.17692286052609       -8.69848180798635        2.10464215551761
C            7.45121085179747       -9.95519426640249        2.65918247706290
C            5.33826486702170      -10.75677056854999        1.87247076072093
C            6.52441532815900      -10.96316847620376        2.56403907746575
H           -9.42216132148718       10.23090300051875       -0.26362900500591
H           -7.89585644848513       12.01369421569275       -1.07762149146482
H           -5.48807807131224       11.63073708070934       -1.04197496611608
H          -10.00877751229079        5.35769233961337        1.46310553692984
H          -10.38383814810059        3.04947681175179        1.60154746126762
H          -10.79639400921902        0.42211429006997        1.79565787495381
H          -11.46152479256832       -4.58949107999591        1.38414443917625
H          -11.94909437683810       -6.84145896950992        0.55230757523149
H           -3.65303010673670       11.50587913024513       -0.51269841899263
H           -1.37959286454776       11.14584082776140       -1.03666309959604
H            0.55068571111109       10.67124886656021       -1.61476611152030
H            2.92409002626478       10.28957058830812       -1.72533433937581
H            4.97909951290704       10.04517887098933       -1.48585651109474
H            7.27623592488913        9.69887702486694       -1.08146160322229
H            9.18044942568317        9.33610225667456       -1.27147155317853
H           11.56291607122775        8.87322034406920       -1.31440214643439
H           12.40472537000110        6.62603896694334       -0.70621001162974
H           11.96167621962110        4.37464567737392        0.12757733461761
H           10.90885976295983       -0.55865963014327        1.38261693099944
H           10.42341609183990       -2.95623525014079        1.49173596365601
H            9.01311634981324       -7.78471722792033        2.75783885574848
H            8.38689935385364      -10.10578557875430        3.17615204813664
H            6.71207470837239      -11.92265804315834        3.02256672151231
H          -11.23698932174579       -8.85851791031184       -0.69249829129071
H           -8.98397135382315       -8.99057106484497       -1.62461564604676
H           -4.67526582222604       -9.44297684056720       -2.96019486544643
H           -3.04692176481979       -9.98887545449848       -1.45059034774504
H           -0.71032857332408      -10.51382988936963       -1.30329272969452
H            3.55424418993146      -11.43235556415537        0.18527462177190
H            4.62491300371553      -11.56436387226407        1.83644770681217
S           -6.77643164804758       -8.47442843459839       -2.52041636782166
S           -1.72368684458303       -6.74452659859766       -2.53378304224948
S            1.70204845066190      -10.44803922129211       -0.81603587530966
S            9.02045665736206       -5.18820908578130        2.07910441011492
S            7.16938241784092       -2.56248270655574       -0.77759440610828
S           10.74162881053542        2.09354947082972        0.96832520608352
S            4.73359269496342        6.85609388667236        0.33313280428388
S           -0.46693581068543        0.10877807913027        1.29844394549809
S          -10.31188616443097       -2.20897832482701        1.88978191307275
S           -7.26316065076600        1.16544818093369        2.18584548623147
S           -9.06588345552587        7.72505288106647        0.65635611104719
S           -2.05800926413224        7.94850443388462        0.63294854469822
H           -7.43412075120398        0.55978438839160       -0.06979793537402
H           -2.08633364404400        6.90391958048714       -1.47338647324369
H           -0.05332561759225        0.17660348403781       -1.18453957081686
H           -2.56795171449256       -4.62769547455778       -2.82631945083234
H            4.23431069317304        5.89983059243914       -1.74749944420324
H            5.25107213542686       -2.17096424901159       -1.95797124800159
 
 Bond Distances (Angstroems)
 ---------------------------
C1-C2=1.3832         C1-C5=1.3832         C1-H159=1.0793       C2-C1=1.3832         C2-C3=1.3737         C2-H160=1.0789       
C3-C2=1.3737         C3-C4=1.4007         C3-H161=1.0764       C4-C3=1.4007         C4-C6=1.4220         C4-C32=1.4426        
C5-C1=1.3832         C5-C6=1.4081         C5-S199=1.7500       C6-C4=1.4220         C6-C5=1.4081         C6-C7=1.4418         
C7-C6=1.4418         C7-C10=1.4284        C7-C36=1.4089        C8-C9=1.3785         C8-C13=1.3939        C8-H162=1.0799       
C9-C8=1.3785         C9-C10=1.4072        C9-S199=1.7470       C10-C7=1.4284        C10-C9=1.4072        C10-C11=1.4222       
C11-C10=1.4222       C11-C14=1.4207       C11-C39=1.4219       C12-C13=1.4133       C12-C17=1.3719       C12-H163=1.0810      
C13-C8=1.3939        C13-C12=1.4133       C13-C14=1.4316       C14-C11=1.4207       C14-C13=1.4316       C14-C15=1.3961       
C15-C14=1.3961       C15-C43=1.3786       C15-S198=1.7737      C16-C17=1.3820       C16-C19=1.4094       C16-H164=1.0795      
C17-C12=1.3719       C17-C16=1.3820       C17-S198=1.7899      C18-C20=1.4935       C18-C47=1.4858       C18-S198=1.8506      
C18-H201=1.1042      C19-C16=1.4094       C19-C20=1.3879       C19-S197=1.7455      C20-C18=1.4935       C20-C19=1.3879       
C20-C21=1.4237       C21-C20=1.4237       C21-C24=1.4173       C21-C51=1.4246       C22-C23=1.3630       C22-C27=1.4076       
C22-H165=1.0797      C23-C22=1.3630       C23-C24=1.4216       C23-S197=1.7554      C24-C21=1.4173       C24-C23=1.4216       
C24-C25=1.4234       C25-C24=1.4234       C25-C28=1.4163       C25-C55=1.4195       C26-C27=1.3969       C26-C30=1.3802       
C26-H166=1.0796      C27-C22=1.4076       C27-C26=1.3969       C27-C28=1.4169       C28-C25=1.4163       C28-C27=1.4169       
C28-C29=1.4139       C29-C28=1.4139       C29-C31=1.4031       C29-C59=1.4169       C30-C26=1.3802       C30-C31=1.3785       
C30-H182=1.0801      C31-C29=1.4031       C31-C30=1.3785       C31-H183=1.0789      C32-C4=1.4426        C32-C33=1.4162       
C32-C37=1.3865       C33-C32=1.4162       C33-C34=1.3767       C33-H167=1.0752      C34-C33=1.3767       C34-C35=1.3871       
C34-H168=1.0801      C35-C34=1.3871       C35-C64=1.4141       C35-S200=1.7706      C36-C7=1.4089        C36-C37=1.4087       
C36-C40=1.4512       C37-C32=1.3865       C37-C36=1.4087       C37-S200=1.7738      C38-C41=1.4851       C38-C68=1.4898       
C38-S200=1.8501      C38-H202=1.0993      C39-C11=1.4219       C39-C40=1.4208       C39-C44=1.4155       C40-C36=1.4512       
C40-C39=1.4208       C40-C41=1.4038       C41-C38=1.4851       C41-C40=1.4038       C41-C42=1.4074       C42-C41=1.4074       
C42-C45=1.4123       C42-C72=1.4283       C43-C15=1.3786       C43-C44=1.4196       C43-C48=1.4467       C44-C39=1.4155       
C44-C43=1.4196       C44-C45=1.4110       C45-C42=1.4123       C45-C44=1.4110       C45-C46=1.4206       C46-C45=1.4206       
C46-C49=1.4363       C46-C76=1.3948       C47-C18=1.4858       C47-C48=1.4054       C47-C52=1.3982       C48-C43=1.4467       
C48-C47=1.4054       C48-C49=1.4020       C49-C46=1.4363       C49-C48=1.4020       C49-C50=1.4269       C50-C49=1.4269       
C50-C53=1.4212       C50-C80=1.3946       C51-C21=1.4246       C51-C52=1.4315       C51-C56=1.4192       C52-C47=1.3982       
C52-C51=1.4315       C52-C53=1.4184       C53-C50=1.4212       C53-C52=1.4184       C53-C54=1.4100       C54-C53=1.4100       
C54-C57=1.4209       C54-C83=1.4307       C55-C25=1.4195       C55-C56=1.4174       C55-C60=1.4326       C56-C51=1.4192       
C56-C55=1.4174       C56-C57=1.4231       C57-C54=1.4209       C57-C56=1.4231       C57-C58=1.4223       C58-C57=1.4223       
C58-C61=1.3828       C58-C87=1.5095       C59-C29=1.4169       C59-C60=1.3937       C59-S189=1.7579      C60-C55=1.4326       
C60-C59=1.3937       C60-C61=1.4440       C61-C58=1.3828       C61-C60=1.4440       C61-C62=1.4591       C62-C61=1.4591       
C62-C63=1.3527       C62-C91=1.4413       C63-C62=1.3527       C63-H184=1.0771      C63-S189=1.7133      C64-C35=1.4141       
C64-C65=1.4000       C64-C69=1.4439       C65-C64=1.4000       C65-C66=1.3705       C65-H169=1.0775      C66-C65=1.3705       
C66-C67=1.3979       C66-H170=1.0778      C67-C66=1.3979       C67-C70=1.4411       C67-C96=1.4195       C68-C38=1.4898       
C68-C69=1.4104       C68-C73=1.3914       C69-C64=1.4439       C69-C68=1.4104       C69-C70=1.4255       C70-C67=1.4411       
C70-C69=1.4255       C70-C71=1.4084       C71-C70=1.4084       C71-C74=1.3873       C71-C100=1.4919      C72-C42=1.4283       
C72-C73=1.4349       C72-C77=1.4100       C73-C68=1.3914       C73-C72=1.4349       C73-C74=1.4217       C74-C71=1.3873       
C74-C73=1.4217       C74-C75=1.4350       C75-C74=1.4350       C75-C78=1.3857       C75-C103=1.4430      C76-C46=1.3948       
C76-C77=1.4145       C76-S196=1.7789      C77-C72=1.4100       C77-C76=1.4145       C77-C78=1.4533       C78-C75=1.3857       
C78-C77=1.4533       C78-C79=1.4380       C79-C78=1.4380       C79-C81=1.3847       C79-C107=1.4157      C80-C50=1.3946       
C80-C84=1.3978       C80-S196=1.7792      C81-C79=1.3847       C81-C82=1.4061       C81-H203=1.0791      C82-C81=1.4061       
C82-C85=1.4275       C82-C111=1.3991      C83-C54=1.4307       C83-C84=1.4247       C83-C88=1.4024       C84-C80=1.3978       
C84-C83=1.4247       C84-C85=1.4279       C85-C82=1.4275       C85-C84=1.4279       C85-C86=1.3997       C86-C85=1.3997       
C86-C89=1.4174       C86-C115=1.4187      C87-C58=1.5095       C87-C88=1.4977       C87-S190=1.8388      C87-H204=1.1059      
C88-C83=1.4024       C88-C87=1.4977       C88-C89=1.3998       C89-C86=1.4174       C89-C88=1.3998       C89-C90=1.4375       
C90-C89=1.4375       C90-C92=1.3825       C90-C119=1.4194      C91-C62=1.4413       C91-C94=1.3736       C91-S190=1.7571      
C92-C90=1.3825       C92-C93=1.4085       C92-S190=1.7695      C93-C92=1.4085       C93-C95=1.4045       C93-C123=1.4187      
C94-C91=1.3736       C94-C95=1.3864       C94-H185=1.0810      C95-C93=1.4045       C95-C94=1.3864       C95-H186=1.0771      
C96-C67=1.4195       C96-C97=1.3758       C96-S195=1.7809      C97-C96=1.3758       C97-C98=1.3901       C97-H171=1.0802      
C98-C97=1.3901       C98-C99=1.4015       C98-H172=1.0760      C99-C98=1.4015       C99-C101=1.3997      C99-C128=1.4464      
C100-C71=1.4919      C100-C104=1.4904     C100-S195=1.8301     C100-H205=1.1016     C101-C99=1.3997      C101-C102=1.3983     
C101-S195=1.7714     C102-C101=1.3983     C102-C105=1.4374     C102-C132=1.4209     C103-C75=1.4430      C103-C104=1.3861     
C103-C108=1.4237     C104-C100=1.4904     C104-C103=1.3861     C104-C105=1.4135     C105-C102=1.4374     C105-C104=1.4135     
C105-C106=1.4249     C106-C105=1.4249     C106-C109=1.4241     C106-C136=1.4190     C107-C79=1.4157      C107-C108=1.4086     
C107-C112=1.4150     C108-C103=1.4237     C108-C107=1.4086     C108-C109=1.4109     C109-C106=1.4241     C109-C108=1.4109     
C109-C110=1.4306     C110-C109=1.4306     C110-C113=1.3953     C110-C139=1.4432     C111-C82=1.3991      C111-C112=1.4232     
C111-C116=1.4282     C112-C107=1.4150     C112-C111=1.4232     C112-C113=1.4080     C113-C110=1.3953     C113-C112=1.4080     
C113-C114=1.5070     C114-C113=1.5070     C114-C117=1.5059     C114-S193=1.8151     C114-H206=1.1065     C115-C86=1.4187      
C115-C116=1.4076     C115-C120=1.4096     C116-C111=1.4282     C116-C115=1.4076     C116-C117=1.3994     C117-C114=1.5059     
C117-C116=1.3994     C117-C118=1.4068     C118-C117=1.4068     C118-C121=1.4250     C118-C146=1.4403     C119-C90=1.4194      
C119-C120=1.4159     C119-C124=1.4248     C120-C115=1.4096     C120-C119=1.4159     C120-C121=1.4106     C121-C118=1.4250     
C121-C120=1.4106     C121-C122=1.4236     C122-C121=1.4236     C122-C125=1.4060     C122-C149=1.4295     C123-C93=1.4187      
C123-C124=1.4012     C123-S191=1.7504     C124-C119=1.4248     C124-C123=1.4012     C124-C125=1.4349     C125-C122=1.4060     
C125-C124=1.4349     C125-C126=1.4404     C126-C125=1.4404     C126-C127=1.3609     C126-C153=1.4525     C127-C126=1.3609     
C127-H187=1.0761     C127-S191=1.7045     C128-C99=1.4464      C128-C129=1.3931     C128-C133=1.4186     C129-C128=1.3931     
C129-C130=1.3857     C129-H173=1.0774     C130-C129=1.3857     C130-C131=1.3745     C130-H174=1.0800     C131-C130=1.3745     
C131-C134=1.3993     C131-H175=1.0797     C132-C102=1.4209     C132-C133=1.4263     C132-C137=1.4140     C133-C128=1.4186     
C133-C132=1.4263     C133-C134=1.4162     C134-C131=1.3993     C134-C133=1.4162     C134-C135=1.4101     C135-C134=1.4101     
C135-C138=1.3618     C135-H176=1.0796     C136-C106=1.4190     C136-C137=1.4216     C136-C140=1.4316     C137-C132=1.4140     
C137-C136=1.4216     C137-C138=1.4219     C138-C135=1.3618     C138-C137=1.4219     C138-S194=1.7513     C139-C110=1.4432     
C139-C140=1.4208     C139-C143=1.3944     C140-C136=1.4316     C140-C139=1.4208     C140-C141=1.4156     C141-C140=1.4156     
C141-C142=1.3738     C141-S194=1.7456     C142-C141=1.3738     C142-C144=1.3976     C142-H177=1.0786     C143-C139=1.3944     
C143-C144=1.4006     C143-S193=1.7640     C144-C142=1.3976     C144-C143=1.4006     C144-C145=1.4131     C145-C144=1.4131     
C145-C148=1.3768     C145-H178=1.0786     C146-C118=1.4403     C146-C147=1.3975     C146-C150=1.4313     C147-C146=1.3975     
C147-C148=1.4020     C147-S193=1.7857     C148-C145=1.3768     C148-C147=1.4020     C148-S192=1.7493     C149-C122=1.4295     
C149-C150=1.4119     C149-C154=1.4207     C150-C146=1.4313     C150-C149=1.4119     C150-C151=1.4222     C151-C150=1.4222     
C151-C152=1.3642     C151-S192=1.7580     C152-C151=1.3642     C152-C155=1.4062     C152-H179=1.0797     C153-C126=1.4525     
C153-C154=1.4122     C153-C157=1.3904     C154-C149=1.4207     C154-C153=1.4122     C154-C155=1.4165     C155-C152=1.4062     
C155-C154=1.4165     C155-C156=1.4007     C156-C155=1.4007     C156-C158=1.3726     C156-H180=1.0796     C157-C153=1.3904     
C157-C158=1.3885     C157-H188=1.0781     C158-C156=1.3726     C158-C157=1.3885     C158-H181=1.0799     H159-C1=1.0793       
H160-C2=1.0789       H161-C3=1.0764       H162-C8=1.0799       H163-C12=1.0810      H164-C16=1.0795      H165-C22=1.0797      
H166-C26=1.0796      H167-C33=1.0752      H168-C34=1.0801      H169-C65=1.0775      H170-C66=1.0778      H171-C97=1.0802      
H172-C98=1.0760      H173-C129=1.0774     H174-C130=1.0800     H175-C131=1.0797     H176-C135=1.0796     H177-C142=1.0786     
H178-C145=1.0786     H179-C152=1.0797     H180-C156=1.0796     H181-C158=1.0799     H182-C30=1.0801      H183-C31=1.0789      
H184-C63=1.0771      H185-C94=1.0810      H186-C95=1.0771      H187-C127=1.0761     H188-C157=1.0781     S189-C59=1.7579      
S189-C63=1.7133      S190-C87=1.8388      S190-C91=1.7571      S190-C92=1.7695      S191-C123=1.7504     S191-C127=1.7045     
S192-C148=1.7493     S192-C151=1.7580     S193-C114=1.8151     S193-C143=1.7640     S193-C147=1.7857     S194-C138=1.7513     
S194-C141=1.7456     S195-C96=1.7809      S195-C100=1.8301     S195-C101=1.7714     S196-C76=1.7789      S196-C80=1.7792      
S197-C19=1.7455      S197-C23=1.7554      S198-C15=1.7737      S198-C17=1.7899      S198-C18=1.8506      S199-C5=1.7500       
S199-C9=1.7470       S200-C35=1.7706      S200-C37=1.7738      S200-C38=1.8501      H201-C18=1.1042      H202-C38=1.0993      
H203-C81=1.0791      H204-C87=1.1059      H205-C100=1.1016     H206-C114=1.1065     
 C  H  Rav=1.0822 sigma=0.0087  Rmin=1.0752  Rmax=1.1065    36
 C  C  Rav=1.4145 sigma=0.0271  Rmin=1.3527  Rmax=1.5095   207
 S  C  Rav=1.7727 sigma=0.0350  Rmin=1.7045  Rmax=1.8506    29
 
 selected bond angles (degree)
 --------------------
C5-C1-C2=120.08                H159-C1-C2=121.07              H159-C1-C5=118.85              C3-C2-C1=119.08                
H160-C2-C1=120.26              H160-C2-C3=120.66              C4-C3-C2=121.70                H161-C3-C2=118.55              
H161-C3-C4=119.75              C6-C4-C3=120.11                C32-C4-C3=120.75               C32-C4-C6=119.10               
C6-C5-C1=122.73                S199-C5-C1=113.85              S199-C5-C6=123.40              C5-C6-C4=115.92                
C7-C6-C4=121.04                C7-C6-C5=122.99                C10-C7-C6=122.40               C36-C7-C6=118.73               
C36-C7-C10=118.85              C13-C8-C9=122.31               H162-C8-C9=118.39              H162-C8-C13=119.26             
C10-C9-C8=122.91               S199-C9-C8=113.64              S199-C9-C10=123.43             C9-C10-C7=123.58               
C11-C10-C7=119.98              C11-C10-C9=116.39              
 
 selected dihedral angles (degree)
 ---------------------------------
C3-C2-C1-C5=356.67            C3-C2-C1-H159=177.27          H160-C2-C1-C5=177.72          H160-C2-C1-H159=358.31        
[...]
     1   6 C        2   6 C                                       1.3831671
     2   6 C        3   6 C                                       1.3737468
     3   6 C        4   6 C                                       1.4006864
     1   6 C        5   6 C                                       1.3832365
     4   6 C        6   6 C                                       1.4219677
     5   6 C        6   6 C                                       1.4080919
     8   6 C        9   6 C                                       1.3785200
     7   6 C       10   6 C                                       1.4283586
     9   6 C       10   6 C                                       1.4071704
    10   6 C       11   6 C                                       1.4221507
     8   6 C       13   6 C                                       1.3938594
    12   6 C       13   6 C                                       1.4133198
    11   6 C       14   6 C                                       1.4206922
    13   6 C       14   6 C                                       1.4315557
    14   6 C       15   6 C                                       1.3961483
    12   6 C       17   6 C                                       1.3719367
    16   6 C       17   6 C                                       1.3820390
    16   6 C       19   6 C                                       1.4094163
    19   6 C       20   6 C                                       1.3878969
    20   6 C       21   6 C                                       1.4237475
    22   6 C       23   6 C                                       1.3630375
    21   6 C       24   6 C                                       1.4173428
    23   6 C       24   6 C                                       1.4216383
    24   6 C       25   6 C                                       1.4233997
    22   6 C       27   6 C                                       1.4076374
    26   6 C       27   6 C                                       1.3969338
    25   6 C       28   6 C                                       1.4163484
    27   6 C       28   6 C                                       1.4168770
    28   6 C       29   6 C                                       1.4139473
    26   6 C       30   6 C                                       1.3802198
    29   6 C       31   6 C                                       1.4030690
    30   6 C       31   6 C                                       1.3785240
    32   6 C       33   6 C                                       1.4161749
    33   6 C       34   6 C                                       1.3766961
    34   6 C       35   6 C                                       1.3871412
     7   6 C       36   6 C                                       1.4088667
    32   6 C       37   6 C                                       1.3865151
    36   6 C       37   6 C                                       1.4087001
    11   6 C       39   6 C                                       1.4218509
    39   6 C       40   6 C                                       1.4207885
    38   6 C       41   6 C                                       1.4850791
    40   6 C       41   6 C                                       1.4037964
    41   6 C       42   6 C                                       1.4074029
    15   6 C       43   6 C                                       1.3785560
    39   6 C       44   6 C                                       1.4154700
    43   6 C       44   6 C                                       1.4195637
    42   6 C       45   6 C                                       1.4123247
    44   6 C       45   6 C                                       1.4109716
    45   6 C       46   6 C                                       1.4206057
    18   6 C       47   6 C                                       1.4858130
    47   6 C       48   6 C                                       1.4053790
    46   6 C       49   6 C                                       1.4362805
    48   6 C       49   6 C                                       1.4019747
    49   6 C       50   6 C                                       1.4269482
    21   6 C       51   6 C                                       1.4245602
    47   6 C       52   6 C                                       1.3981817
    51   6 C       52   6 C                                       1.4315205
    50   6 C       53   6 C                                       1.4212094
    52   6 C       53   6 C                                       1.4183672
    53   6 C       54   6 C                                       1.4100321
    25   6 C       55   6 C                                       1.4195217
    51   6 C       56   6 C                                       1.4192162
    55   6 C       56   6 C                                       1.4173659
    54   6 C       57   6 C                                       1.4209421
    56   6 C       57   6 C                                       1.4231459
    57   6 C       58   6 C                                       1.4222779
    29   6 C       59   6 C                                       1.4168549
    55   6 C       60   6 C                                       1.4325822
    59   6 C       60   6 C                                       1.3936805
    58   6 C       61   6 C                                       1.3827546
    62   6 C       63   6 C                                       1.3526863
    35   6 C       64   6 C                                       1.4141077
    64   6 C       65   6 C                                       1.4000019
    65   6 C       66   6 C                                       1.3705381
    66   6 C       67   6 C                                       1.3978994
    38   6 C       68   6 C                                       1.4898204
    68   6 C       69   6 C                                       1.4104380
    69   6 C       70   6 C                                       1.4254667
    70   6 C       71   6 C                                       1.4083951
    42   6 C       72   6 C                                       1.4282717
    68   6 C       73   6 C                                       1.3913891
    72   6 C       73   6 C                                       1.4348846
    71   6 C       74   6 C                                       1.3873006
    73   6 C       74   6 C                                       1.4217167
    74   6 C       75   6 C                                       1.4349874
    46   6 C       76   6 C                                       1.3948000
    72   6 C       77   6 C                                       1.4099809
    76   6 C       77   6 C                                       1.4144600
    75   6 C       78   6 C                                       1.3856968
    50   6 C       80   6 C                                       1.3946381
    79   6 C       81   6 C                                       1.3847289
    81   6 C       82   6 C                                       1.4061069
    54   6 C       83   6 C                                       1.4306956
    80   6 C       84   6 C                                       1.3977932
    83   6 C       84   6 C                                       1.4246696
    82   6 C       85   6 C                                       1.4275320
    84   6 C       85   6 C                                       1.4279314
    85   6 C       86   6 C                                       1.3996713
    83   6 C       88   6 C                                       1.4023569
    86   6 C       89   6 C                                       1.4173711
    88   6 C       89   6 C                                       1.3997622
    89   6 C       90   6 C                                       1.4375481
    90   6 C       92   6 C                                       1.3824921
    92   6 C       93   6 C                                       1.4084831
    91   6 C       94   6 C                                       1.3736211
    93   6 C       95   6 C                                       1.4044685
    94   6 C       95   6 C                                       1.3864102
    67   6 C       96   6 C                                       1.4195169
    96   6 C       97   6 C                                       1.3757779
    97   6 C       98   6 C                                       1.3901217
    98   6 C       99   6 C                                       1.4014810
    71   6 C      100   6 C                                       1.4918629
    99   6 C      101   6 C                                       1.3996693
   101   6 C      102   6 C                                       1.3983356
   100   6 C      104   6 C                                       1.4903867
   103   6 C      104   6 C                                       1.3861284
   102   6 C      105   6 C                                       1.4373888
   104   6 C      105   6 C                                       1.4135168
   105   6 C      106   6 C                                       1.4248654
    79   6 C      107   6 C                                       1.4157307
   103   6 C      108   6 C                                       1.4237386
   107   6 C      108   6 C                                       1.4086181
   106   6 C      109   6 C                                       1.4240632
   108   6 C      109   6 C                                       1.4109150
   109   6 C      110   6 C                                       1.4305757
    82   6 C      111   6 C                                       1.3991119
   107   6 C      112   6 C                                       1.4149709
   111   6 C      112   6 C                                       1.4232040
   110   6 C      113   6 C                                       1.3953410
   112   6 C      113   6 C                                       1.4080127
    86   6 C      115   6 C                                       1.4187244
   111   6 C      116   6 C                                       1.4282198
   115   6 C      116   6 C                                       1.4076432
   116   6 C      117   6 C                                       1.3993584
   117   6 C      118   6 C                                       1.4068419
    90   6 C      119   6 C                                       1.4194169
   115   6 C      120   6 C                                       1.4095624
   119   6 C      120   6 C                                       1.4158564
   118   6 C      121   6 C                                       1.4249829
   120   6 C      121   6 C                                       1.4106167
   121   6 C      122   6 C                                       1.4235733
    93   6 C      123   6 C                                       1.4187482
   119   6 C      124   6 C                                       1.4247586
   123   6 C      124   6 C                                       1.4011645
   122   6 C      125   6 C                                       1.4060119
   124   6 C      125   6 C                                       1.4348998
   126   6 C      127   6 C                                       1.3608943
   128   6 C      129   6 C                                       1.3931471
   129   6 C      130   6 C                                       1.3856813
   130   6 C      131   6 C                                       1.3744757
   102   6 C      132   6 C                                       1.4208945
   128   6 C      133   6 C                                       1.4186230
   132   6 C      133   6 C                                       1.4263495
   131   6 C      134   6 C                                       1.3993416
   133   6 C      134   6 C                                       1.4162430
   134   6 C      135   6 C                                       1.4101122
   106   6 C      136   6 C                                       1.4189843
   132   6 C      137   6 C                                       1.4140422
   136   6 C      137   6 C                                       1.4216296
   135   6 C      138   6 C                                       1.3617800
   137   6 C      138   6 C                                       1.4219149
   136   6 C      140   6 C                                       1.4315565
   139   6 C      140   6 C                                       1.4207719
   140   6 C      141   6 C                                       1.4155664
   141   6 C      142   6 C                                       1.3737926
   139   6 C      143   6 C                                       1.3943775
   142   6 C      144   6 C                                       1.3975900
   143   6 C      144   6 C                                       1.4006272
   144   6 C      145   6 C                                       1.4131005
   146   6 C      147   6 C                                       1.3975371
   145   6 C      148   6 C                                       1.3767768
   147   6 C      148   6 C                                       1.4020283
   122   6 C      149   6 C                                       1.4294561
   146   6 C      150   6 C                                       1.4312605
   149   6 C      150   6 C                                       1.4118707
   150   6 C      151   6 C                                       1.4221908
   151   6 C      152   6 C                                       1.3641842
   149   6 C      154   6 C                                       1.4207494
   153   6 C      154   6 C                                       1.4121523
   152   6 C      155   6 C                                       1.4062289
   154   6 C      155   6 C                                       1.4165081
   155   6 C      156   6 C                                       1.4007410
   153   6 C      157   6 C                                       1.3904071
   156   6 C      158   6 C                                       1.3725941
   157   6 C      158   6 C                                       1.3884596
     1   6 C      159   1 H                                       1.0793494
     2   6 C      160   1 H                                       1.0789325
     3   6 C      161   1 H                                       1.0763507
     8   6 C      162   1 H                                       1.0799206
    12   6 C      163   1 H                                       1.0809516
    16   6 C      164   1 H                                       1.0795466
    22   6 C      165   1 H                                       1.0797285
    26   6 C      166   1 H                                       1.0796300
    33   6 C      167   1 H                                       1.0752010 (min)
    34   6 C      168   1 H                                       1.0801152
    65   6 C      169   1 H                                       1.0774883
    66   6 C      170   1 H                                       1.0777532
    97   6 C      171   1 H                                       1.0801653
    98   6 C      172   1 H                                       1.0759769
   129   6 C      173   1 H                                       1.0773627
   130   6 C      174   1 H                                       1.0800328
   131   6 C      175   1 H                                       1.0796730
   135   6 C      176   1 H                                       1.0796281
   142   6 C      177   1 H                                       1.0786289
   145   6 C      178   1 H                                       1.0785764
   152   6 C      179   1 H                                       1.0797071
   156   6 C      180   1 H                                       1.0795594
   158   6 C      181   1 H                                       1.0798537
    30   6 C      182   1 H                                       1.0800918
    31   6 C      183   1 H                                       1.0788595
    63   6 C      184   1 H                                       1.0770827
    94   6 C      185   1 H                                       1.0809988
    95   6 C      186   1 H                                       1.0770823
   127   6 C      187   1 H                                       1.0760951
   157   6 C      188   1 H                                       1.0781353
    63   6 C      189  16 S                                       1.7132885
    87   6 C      190  16 S                                       1.8387658
    91   6 C      190  16 S                                       1.7571429
    92   6 C      190  16 S                                       1.7694580
   127   6 C      191  16 S                                       1.7045455
   148   6 C      192  16 S                                       1.7493051
   114   6 C      193  16 S                                       1.8151013
   143   6 C      193  16 S                                       1.7639589
   147   6 C      193  16 S                                       1.7857436
   138   6 C      194  16 S                                       1.7513486
   141   6 C      194  16 S                                       1.7455920
    96   6 C      195  16 S                                       1.7809040
   100   6 C      195  16 S                                       1.8300590
   101   6 C      195  16 S                                       1.7713675
    19   6 C      197  16 S                                       1.7455284
    23   6 C      197  16 S                                       1.7553723
    15   6 C      198  16 S                                       1.7736600
    17   6 C      198  16 S                                       1.7898788
    18   6 C      198  16 S                                       1.8506201 (max)
     5   6 C      199  16 S                                       1.7499821
     9   6 C      199  16 S                                       1.7470169
    35   6 C      200  16 S                                       1.7706115
    37   6 C      200  16 S                                       1.7737553
    38   6 C      200  16 S                                       1.8500796
    18   6 C      201   1 H                                       1.1042120
    38   6 C      202   1 H                                       1.0992727
    81   6 C      203   1 H                                       1.0791117
    87   6 C      204   1 H                                       1.1059330
   100   6 C      205   1 H                                       1.1016241
   114   6 C      206   1 H                                       1.1065050

 * 3 distinct bonds (by element types)

   Z      Z             #   av. dist./Å        max./Å        min./Å
   1 H    6 C          36     1.0821982     1.1065050     1.0752010
   6 C    6 C         185     1.4092609     1.4918629     1.3526863
   6 C   16 S          24     1.7742952     1.8506201     1.7045455


optimized geometry written to: xtbopt.xyz


           -------------------------------------------------
          | TOTAL ENERGY             -396.287219548804 Eh   |
          | GRADIENT NORM               0.000450730081 Eh/α |
          | HOMO-LUMO GAP               0.082607180928 eV   |
           -------------------------------------------------

------------------------------------------------------------------------
 * finished run on 2025/12/08 at 00:41:36.713     
------------------------------------------------------------------------
 total:
 * wall-time:     0 d,  0 h,  1 min,  8.109 sec
 *  cpu-time:     0 d,  0 h,  4 min, 26.719 sec
 * ratio c/w:     3.916 speedup
 SCF:
 * wall-time:     0 d,  0 h,  0 min,  5.535 sec
 *  cpu-time:     0 d,  0 h,  0 min, 21.703 sec
 * ratio c/w:     3.921 speedup
 ANC optimizer:
 * wall-time:     0 d,  0 h,  1 min,  2.438 sec
 *  cpu-time:     0 d,  0 h,  4 min,  4.531 sec
 * ratio c/w:     3.916 speedup

normal termination of xtb
