      -----------------------------------------------------------      
     |                   =====================                   |     
     |                           x T B                           |     
     |                   =====================                   |     
     |                         S. Grimme                         |     
     |          Mulliken Center for Theoretical Chemistry        |     
     |                    University of Bonn                     |     
      -----------------------------------------------------------      

   * xtb version 6.7.1pre (5071a88) compiled by 'Marcel@Raven' on 2024-07-23

   xtb is free software: you can redistribute it and/or modify it under
   the terms of the GNU Lesser General Public License as published by
   the Free Software Foundation, either version 3 of the License, or
   (at your option) any later version.
   
   xtb is distributed in the hope that it will be useful,
   but WITHOUT ANY WARRANTY; without even the implied warranty of
   MERCHANTABILITY or FITNESS FOR A PARTICULAR PURPOSE.  See the
   GNU Lesser General Public License for more details.
   
   Cite this work as:
   * C. Bannwarth, E. Caldeweyher, S. Ehlert, A. Hansen, P. Pracht,
     J. Seibert, S. Spicher, S. Grimme, WIREs Comput. Mol. Sci., 2020, 11,
     e01493. DOI: 10.1002/wcms.1493
   
   for GFN2-xTB:
   * C. Bannwarth, S. Ehlert and S. Grimme., J. Chem. Theory Comput., 2019,
     15, 1652-1671. DOI: 10.1021/acs.jctc.8b01176
   for GFN1-xTB:
   * S. Grimme, C. Bannwarth, P. Shushkov, J. Chem. Theory Comput., 2017,
     13, 1989-2009. DOI: 10.1021/acs.jctc.7b00118
   for GFN0-xTB:
   * P. Pracht, E. Caldeweyher, S. Ehlert, S. Grimme, ChemRxiv, 2019, preprint.
     DOI: 10.26434/chemrxiv.8326202.v1
   for GFN-FF:
   * S. Spicher and S. Grimme, Angew. Chem. Int. Ed., 2020, 59, 15665-15673.
     DOI: 10.1002/anie.202004239
   
   for ALPB and GBSA implicit solvation:
   * S. Ehlert, M. Stahn, S. Spicher, S. Grimme, J. Chem. Theory Comput.,
     2021, 17, 4250-4261. DOI: 10.1021/acs.jctc.1c00471
   
   for ddCOSMO and CPCM-X implicit solvation:
   * M. Stahn, S. Ehlert, S. Grimme, J. Phys. Chem. A,
     2023, XX, XXXX-XXXX. DOI: 10.1021/acs.jpca.3c04382
   
   for DFT-D4:
   * E. Caldeweyher, C. Bannwarth and S. Grimme, J. Chem. Phys., 2017,
     147, 034112. DOI: 10.1063/1.4993215
   * E. Caldeweyher, S. Ehlert, A. Hansen, H. Neugebauer, S. Spicher,
     C. Bannwarth and S. Grimme, J. Chem. Phys., 2019, 150, 154122.
     DOI: 10.1063/1.5090222
   * E. Caldeweyher, J.-M. Mewes, S. Ehlert and S. Grimme, Phys. Chem. Chem. Phys.
     2020, 22, 8499-8512. DOI: 10.1039/D0CP00502A
   
   for sTDA-xTB:
   * S. Grimme and C. Bannwarth, J. Chem. Phys., 2016, 145, 054103.
     DOI: 10.1063/1.4959605
   
   in the mass-spec context:
   * V. Asgeirsson, C. Bauer and S. Grimme, Chem. Sci., 2017, 8, 4879.
     DOI: 10.1039/c7sc00601b
   * J. Koopman and S. Grimme, ACS Omega 2019, 4, 12, 15120-15133.
     DOI: 10.1021/acsomega.9b02011
   
   for metadynamics refer to:
   * S. Grimme, J. Chem. Theory Comput., 2019, 155, 2847-2862
     DOI: 10.1021/acs.jctc.9b00143
   
   for SPH calculations refer to:
   * S. Spicher and S. Grimme, J. Chem. Theory Comput., 2021, 17, 1701-1714
     DOI: 10.1021/acs.jctc.0c01306
   
   for ONIOM refer to:
   * C. Plett, A. Katbashev, S. Ehlert, S. Grimme, M. Bursch,
     Phys. Chem. Chem. Phys., 2023, 25, 17860-17868. DOI: 10.1039/D3CP02178E
   
   for DIPRO refer to:
   * J. Kohn, N. Gildemeister, S. Grimme, D. Fazzi, A. Hansen,
     J. Chem. Phys., 2023, just accepted.
   
   for PTB refer to:
   * S. Grimme, M. Mueller, A. Hansen, J. Chem. Phys., 2023, 158, 124111.
     DOI: 10.1063/5.0137838
   
   with help from (in alphabetical order)
   P. Atkinson, C. Bannwarth, F. Bohle, G. Brandenburg, E. Caldeweyher
   M. Checinski, S. Dohm, S. Ehlert, S. Ehrlich, I. Gerasimov, C. Hölzer
   A. Katbashev, J. Kohn, J. Koopman, C. Lavigne, S. Lehtola, F. März, M. Müller,
   F. Musil, H. Neugebauer, J. Pisarek, C. Plett, P. Pracht, F. Pultar,
   J. Seibert, P. Shushkov, S. Spicher, M. Stahn, M. Steiner, T. Strunk,
   J. Stückrath, T. Rose, and J. Unsleber
   
 * started run on 2025/12/08 at 00:41:36.745     
   ID    Z sym.   atoms
    1    6 C      1-158
    2    1 H      159-188, 201-206
    3   16 S      189-200

           -------------------------------------------------
          |                Calculation Setup                |
           -------------------------------------------------

          program call               : xtb "C:\Users\LENOVO GAMING\Documents\GitHub\molecular-conductivity-sim\results\2nm-12Sdoped-7percent\xtbopt.xyz" --sp
          coordinate file            : C:\Users\LENOVO GAMING\Documents\GitHub\molecular-conductivity-sim\results\2nm-12Sdoped-7percent\xtbopt.xyz
          omp threads                :                    16


           -------------------------------------------------
          |                 G F N 2 - x T B                 |
           -------------------------------------------------

        Reference                      10.1021/acs.jctc.8b01176
      * Hamiltonian:
        H0-scaling (s, p, d)           1.850000    2.230000    2.230000
        zeta-weighting                 0.500000
      * Dispersion:
        s8                             2.700000
        a1                             0.520000
        a2                             5.000000
        s9                             5.000000
      * Repulsion:
        kExp                           1.500000    1.000000
        rExp                           1.000000
      * Coulomb:
        alpha                          2.000000
        third order                    shell-resolved
        anisotropic                    true
        a3                             3.000000
        a5                             4.000000
        cn-shift                       1.200000
        cn-exp                         4.000000
        max-rad                        5.000000

q/qsh data taken from xtbrestart
CAMM data taken from xtbrestart

          ...................................................
          :                      SETUP                      :
          :.................................................:
          :  # basis functions                 788          :
          :  # atomic orbitals                 776          :
          :  # shells                          388          :
          :  # electrons                       740          :
          :  max. iterations                   250          :
          :  Hamiltonian                  GFN2-xTB          :
          :  restarted?                       true          :
          :  GBSA solvation                  false          :
          :  PC potential                    false          :
          :  electronic temp.          300.0000000     K    :
          :  accuracy                    1.0000000          :
          :  -> integral cutoff          0.2500000E+02      :
          :  -> integral neglect         0.1000000E-07      :
          :  -> SCF convergence          0.1000000E-05 Eh   :
          :  -> wf. convergence          0.1000000E-03 e    :
          :  Broyden damping             0.4000000          :
          :  net charge                          0          :
          :  unpaired electrons                  0          :
          ...................................................

 iter      E             dE          RMSdq      gap      omega  full diag
   1   -403.2463444 -0.403246E+03  0.445E-05    0.08       0.0  T
   2   -403.2463443  0.360972E-07  0.238E-04    0.08      29.3  T
   3   -403.2463444 -0.339072E-07  0.828E-05    0.08      84.1  T

   *** convergence criteria satisfied after 3 iterations ***

         #    Occupation            Energy/Eh            Energy/eV
      -------------------------------------------------------------
         1        2.0000           -0.7818724             -21.2758
       ...           ...                  ...                  ...
       364        2.0000           -0.3494436              -9.5088
       365        2.0000           -0.3466985              -9.4341
       366        2.0000           -0.3387400              -9.2176
       367        2.0000           -0.3301820              -8.9847
       368        2.0000           -0.3267843              -8.8923
       369        1.9941           -0.3187160              -8.6727
       370        1.6654           -0.3147041              -8.5635 (HOMO)
       371        0.3371           -0.3116632              -8.4808 (LUMO)
       372        0.0032           -0.3070618              -8.3556
       373        0.0001           -0.3039020              -8.2696
       374                         -0.2952607              -8.0345
       375                         -0.2901699              -7.8959
       ...                                ...                  ...
       776                          0.7509635              20.4348
      -------------------------------------------------------------
                  HL-Gap            0.0030409 Eh            0.0827 eV
             Fermi-level           -0.3131793 Eh           -8.5220 eV

 SCC (total)                   0 d,  0 h,  0 min,  0.687 sec
 SCC setup                      ...        0 min,  0.002 sec (  0.291%)
 Dispersion                     ...        0 min,  0.017 sec (  2.475%)
 classical contributions        ...        0 min,  0.001 sec (  0.146%)
 integral evaluation            ...        0 min,  0.067 sec (  9.753%)
 iterations                     ...        0 min,  0.426 sec ( 62.009%)
 molecular gradient             ...        0 min,  0.163 sec ( 23.726%)
 printout                       ...        0 min,  0.011 sec (  1.601%)

         :::::::::::::::::::::::::::::::::::::::::::::::::::::
         ::                     SUMMARY                     ::
         :::::::::::::::::::::::::::::::::::::::::::::::::::::
         :: total energy            -396.287219589575 Eh    ::
         :: gradient norm              0.000448642634 Eh/a0 ::
         :: HOMO-LUMO gap              0.082746970605 eV    ::
         ::.................................................::
         :: SCC energy              -403.257785313127 Eh    ::
         :: -> isotropic ES            0.032823738970 Eh    ::
         :: -> anisotropic ES          0.023715968983 Eh    ::
         :: -> anisotropic XC          0.134321611773 Eh    ::
         :: -> dispersion             -0.534844883962 Eh    ::
         :: repulsion energy           6.970565723552 Eh    ::
         :: add. restraining           0.000000000000 Eh    ::
         :: total charge              -0.000000000000 e     ::
         :::::::::::::::::::::::::::::::::::::::::::::::::::::

           -------------------------------------------------
          |                Property Printout                |
           -------------------------------------------------

    * Orbital Energies and Occupations

         #    Occupation            Energy/Eh            Energy/eV
      -------------------------------------------------------------
         1        2.0000           -0.7818724             -21.2758
       ...           ...                  ...                  ...
       358        2.0000           -0.3679294             -10.0119
       359        2.0000           -0.3611995              -9.8287
       360        2.0000           -0.3597927              -9.7905
       361        2.0000           -0.3583168              -9.7503
       362        2.0000           -0.3568909              -9.7115
       363        2.0000           -0.3514520              -9.5635
       364        2.0000           -0.3494436              -9.5088
       365        2.0000           -0.3466985              -9.4341
       366        2.0000           -0.3387400              -9.2176
       367        2.0000           -0.3301820              -8.9847
       368        2.0000           -0.3267843              -8.8923
       369        1.9941           -0.3187160              -8.6727
       370        1.6654           -0.3147041              -8.5635 (HOMO)
       371        0.3371           -0.3116632              -8.4808 (LUMO)
       372        0.0032           -0.3070618              -8.3556
       373        0.0001           -0.3039020              -8.2696
       374                         -0.2952607              -8.0345
       375                         -0.2901699              -7.8959
       376                         -0.2848629              -7.7515
       377                         -0.2824663              -7.6863
       378                         -0.2811515              -7.6505
       379                         -0.2732469              -7.4354
       380                         -0.2725111              -7.4154
       381                         -0.2693271              -7.3288
       ...                                ...                  ...
       776                          0.7509635              20.4348
      -------------------------------------------------------------
                  HL-Gap            0.0030409 Eh            0.0827 eV
             Fermi-level           -0.3131793 Eh           -8.5220 eV

     #   Z          covCN         q      C6AA      α(0)
     1   6 C        3.024    -0.044    29.058     8.842
     2   6 C        2.916    -0.030    28.747     8.792
     3   6 C        2.924    -0.041    29.029     8.836
     4   6 C        2.993     0.005    27.908     8.666
     5   6 C        2.972     0.045    26.982     8.520
     6   6 C        3.001    -0.002    28.057     8.689
     7   6 C        2.978    -0.004    28.114     8.697
     8   6 C        3.039    -0.057    29.373     8.889
     9   6 C        2.965     0.044    27.013     8.525
    10   6 C        3.001    -0.009    28.218     8.714
    11   6 C        2.995    -0.002    28.077     8.692
    12   6 C        2.968    -0.077    29.907     8.970
    13   6 C        2.970     0.007    27.864     8.658
    14   6 C        3.021    -0.010    28.232     8.716
    15   6 C        2.981    -0.008    28.211     8.713
    16   6 C        3.110    -0.093    30.169     8.999
    17   6 C        2.944     0.009    27.823     8.651
    18   6 C        3.868     0.017    20.238     6.397
    19   6 C        2.960     0.036    27.187     8.552
    20   6 C        3.049    -0.043    29.028     8.836
    21   6 C        2.970     0.006    27.885     8.662
    22   6 C        3.032    -0.060    29.466     8.904
    23   6 C        2.964     0.041    27.070     8.534
    24   6 C        3.001    -0.008    28.214     8.713
    25   6 C        2.987    -0.004    28.107     8.697
    26   6 C        2.922    -0.045    29.107     8.847
    27   6 C        2.987     0.013    27.713     8.635
    28   6 C        2.999    -0.002    28.061     8.690
    29   6 C        3.060     0.001    27.945     8.669
    30   6 C        2.914    -0.028    28.701     8.785
    31   6 C        2.928    -0.045    29.126     8.851
    32   6 C        3.016     0.003    27.941     8.671
    33   6 C        2.909    -0.080    29.990     8.980
    34   6 C        2.969    -0.040    28.999     8.833
    35   6 C        2.955    -0.039    28.972     8.828
    36   6 C        3.032    -0.016    28.367     8.736
    37   6 C        2.979    -0.023    28.580     8.769
    38   6 C        3.864     0.005    20.446     6.430
    39   6 C        2.987     0.001    27.995     8.679
    40   6 C        2.976    -0.011    28.284     8.724
    41   6 C        3.039    -0.022    28.505     8.757
    42   6 C        2.981    -0.002    28.071     8.691
    43   6 C        3.059    -0.006    28.103     8.694
    44   6 C        2.998     0.000    28.006     8.681
    45   6 C        2.997    -0.003    28.089     8.694
    46   6 C        3.057    -0.001    27.992     8.677
    47   6 C        3.043    -0.033    28.774     8.798
    48   6 C        2.984    -0.013    28.321     8.730
    49   6 C        2.988    -0.011    28.286     8.724
    50   6 C        3.048    -0.001    28.018     8.681
    51   6 C        2.981    -0.017    28.431     8.746
    52   6 C        2.983     0.001    27.987     8.678
    53   6 C        2.995    -0.003    28.088     8.694
    54   6 C        2.981    -0.012    28.310     8.728
    55   6 C        2.987    -0.009    28.246     8.718
    56   6 C        2.983     0.002    27.966     8.675
    57   6 C        2.983    -0.013    28.326     8.730
    58   6 C        2.978    -0.019    28.465     8.752
    59   6 C        2.967     0.022    27.502     8.602
    60   6 C        3.000    -0.001    28.029     8.685
    61   6 C        2.966    -0.008    28.225     8.714
    62   6 C        3.057    -0.009    28.180     8.706
    63   6 C        2.913    -0.020    28.499     8.754
    64   6 C        3.040    -0.009    28.211     8.712
    65   6 C        2.921    -0.044    29.101     8.846
    66   6 C        2.921    -0.041    29.009     8.832
    67   6 C        3.036    -0.017    28.393     8.740
    68   6 C        3.052    -0.017    28.382     8.737
    69   6 C        2.985    -0.013    28.341     8.733
    70   6 C        2.986    -0.011    28.289     8.725
    71   6 C        3.063    -0.017    28.364     8.733
    72   6 C        2.986    -0.012    28.304     8.727
    73   6 C        2.983    -0.001    28.043     8.687
    74   6 C        2.986    -0.001    28.052     8.688
    75   6 C        2.984    -0.004    28.124     8.699
    76   6 C        2.969     0.028    27.365     8.581
    77   6 C        2.990    -0.002    28.059     8.689
    78   6 C        2.980     0.002    27.974     8.676
    79   6 C        2.985     0.002    27.978     8.676
    80   6 C        2.971     0.017    27.630     8.622
    81   6 C        3.175    -0.025    28.210     8.674
    82   6 C        2.987     0.008    27.830     8.654
    83   6 C        2.998    -0.010    28.255     8.720
    84   6 C        3.005    -0.004    28.099     8.695
    85   6 C        2.988    -0.009    28.235     8.716
    86   6 C        3.002     0.002    27.977     8.677
    87   6 C        3.865     0.009    20.384     6.420
    88   6 C        3.008    -0.012    28.297     8.726
    89   6 C        2.982    -0.018    28.442     8.748
    90   6 C        3.029    -0.003    28.081     8.692
    91   6 C        2.971    -0.041    29.016     8.836
    92   6 C        2.983    -0.020    28.489     8.755
    93   6 C        3.098    -0.000    27.915     8.659
    94   6 C        2.973    -0.036    28.885     8.816
    95   6 C        2.914    -0.087    30.191     9.010
    96   6 C        2.953    -0.029    28.712     8.789
    97   6 C        2.968    -0.044    29.088     8.847
    98   6 C        2.909    -0.072    29.793     8.950
    99   6 C        3.014     0.000    28.008     8.681
   100   6 C        3.866     0.007    20.415     6.425
   101   6 C        2.979    -0.029    28.713     8.790
   102   6 C        3.038    -0.009    28.210     8.712
   103   6 C        2.984    -0.002    28.061     8.689
   104   6 C        3.030    -0.017    28.412     8.743
   105   6 C        2.975    -0.018    28.454     8.750
   106   6 C        2.984    -0.001    28.039     8.686
   107   6 C        2.998     0.001    27.987     8.678
   108   6 C        2.993    -0.002    28.066     8.690
   109   6 C        2.986    -0.001    28.035     8.685
   110   6 C        2.973    -0.010    28.272     8.722
   111   6 C        2.991    -0.010    28.269     8.722
   112   6 C        2.993    -0.004    28.117     8.698
   113   6 C        2.987    -0.014    28.357     8.735
   114   6 C        3.871     0.012    20.324     6.410
   115   6 C        2.997    -0.007    28.181     8.708
   116   6 C        2.997    -0.003    28.080     8.693
   117   6 C        3.007    -0.022    28.538     8.763
   118   6 C        2.975    -0.013    28.328     8.730
   119   6 C        2.998    -0.016    28.403     8.742
   120   6 C        2.993     0.000    28.013     8.682
   121   6 C        2.990    -0.004    28.107     8.697
   122   6 C        2.983    -0.006    28.174     8.707
   123   6 C        2.973     0.017    27.622     8.621
   124   6 C        3.001     0.002    27.967     8.675
   125   6 C        2.977     0.002    27.971     8.675
   126   6 C        3.004     0.003    27.951     8.672
   127   6 C        2.903    -0.015    28.381     8.735
   128   6 C        2.984     0.006    27.888     8.663
   129   6 C        2.922    -0.040    28.987     8.829
   130   6 C        2.914    -0.030    28.739     8.791
   131   6 C        2.922    -0.039    28.982     8.828
   132   6 C        2.999    -0.003    28.097     8.695
   133   6 C        2.993    -0.004    28.114     8.698
   134   6 C        2.988     0.013    27.722     8.637
   135   6 C        3.021    -0.056    29.362     8.888
   136   6 C        2.973    -0.007    28.182     8.708
   137   6 C        3.005    -0.002    28.063     8.690
   138   6 C        2.967     0.043    27.042     8.530
   139   6 C        3.009    -0.003    28.090     8.694
   140   6 C        3.006    -0.007    28.184     8.709
   141   6 C        2.967     0.045    26.994     8.522
   142   6 C        3.046    -0.058    29.383     8.890
   143   6 C        2.984    -0.021    28.529     8.762
   144   6 C        3.068     0.011    27.700     8.630
   145   6 C        3.010    -0.087    30.159     9.008
   146   6 C        3.006    -0.001    28.025     8.684
   147   6 C        3.003    -0.033    28.807     8.804
   148   6 C        3.049     0.041    27.030     8.527
   149   6 C        2.987     0.000    28.013     8.682
   150   6 C        2.998    -0.007    28.182     8.708
   151   6 C        2.965     0.040    27.097     8.538
   152   6 C        3.035    -0.055    29.332     8.883
   153   6 C        2.987     0.003    27.945     8.671
   154   6 C        2.996     0.001    27.988     8.678
   155   6 C        2.988     0.014    27.703     8.634
   156   6 C        2.922    -0.039    28.967     8.826
   157   6 C        2.923    -0.043    29.060     8.840
   158   6 C        2.915    -0.028    28.704     8.785
   159   1 H        0.926     0.042     2.417     2.431
   160   1 H        0.926     0.038     2.478     2.462
   161   1 H        0.926     0.042     2.418     2.432
   162   1 H        0.926     0.041     2.435     2.440
   163   1 H        0.926     0.047     2.363     2.404
   164   1 H        0.926     0.051     2.309     2.376
   165   1 H        0.926     0.036     2.498     2.471
   166   1 H        0.926     0.029     2.595     2.519
   167   1 H        0.926     0.026     2.641     2.541
   168   1 H        0.926     0.038     2.478     2.461
   169   1 H        0.926     0.030     2.593     2.518
   170   1 H        0.926     0.029     2.599     2.521
   171   1 H        0.926     0.041     2.440     2.443
   172   1 H        0.926     0.029     2.599     2.521
   173   1 H        0.926     0.035     2.517     2.481
   174   1 H        0.926     0.032     2.563     2.504
   175   1 H        0.926     0.034     2.537     2.491
   176   1 H        0.926     0.041     2.436     2.441
   177   1 H        0.926     0.050     2.316     2.380
   178   1 H        0.926     0.043     2.410     2.428
   179   1 H        0.926     0.042     2.424     2.434
   180   1 H        0.926     0.035     2.511     2.478
   181   1 H        0.926     0.034     2.536     2.490
   182   1 H        0.926     0.029     2.605     2.524
   183   1 H        0.926     0.040     2.455     2.450
   184   1 H        0.926     0.044     2.394     2.419
   185   1 H        0.926     0.041     2.432     2.439
   186   1 H        0.926     0.033     2.542     2.493
   187   1 H        0.927     0.057     2.231     2.336
   188   1 H        0.926     0.031     2.577     2.511
   189  16 S        2.112    -0.079   144.356    20.222
   190  16 S        3.204     0.186   133.694    19.461
   191  16 S        2.110    -0.028   142.190    20.070
   192  16 S        2.235    -0.097   145.107    20.274
   193  16 S        3.254     0.201   133.123    19.419
   194  16 S        2.228    -0.105   145.437    20.297
   195  16 S        3.329     0.201   133.110    19.418
   196  16 S        2.392    -0.150   147.363    20.431
   197  16 S        2.241    -0.108   145.581    20.307
   198  16 S        3.326     0.205   132.976    19.408
   199  16 S        2.225    -0.098   145.152    20.277
   200  16 S        3.326     0.186   133.679    19.460
   201   1 H        0.923     0.050     2.320     2.382
   202   1 H        0.924     0.061     2.187     2.313
   203   1 H        0.926     0.039     2.466     2.456
   204   1 H        0.923     0.061     2.183     2.310
   205   1 H        0.923     0.063     2.169     2.303
   206   1 H        0.924     0.067     2.116     2.275

 Mol. C6AA /au·bohr⁶  :    1069757.930359
 Mol. C8AA /au·bohr⁸  :   32324954.221171
 Mol. α(0) /au        :       1694.059627


Wiberg/Mayer (AO) data.
largest (>0.10) Wiberg bond orders for each atom

 ---------------------------------------------------------------------------
     #   Z sym  total        # sym  WBO       # sym  WBO       # sym  WBO
 ---------------------------------------------------------------------------
     1   6 C    3.973 --     5 C    1.421     2 C    1.397   159 H    0.966
     2   6 C    3.975 --     3 C    1.473     1 C    1.397   160 H    0.969
     3   6 C    3.976 --     2 C    1.473     4 C    1.344   161 H    0.960
     4   6 C    3.976 --     3 C    1.344     6 C    1.270    32 C    1.138
     5   6 C    3.949 --     1 C    1.421     6 C    1.296   199 S    1.056
     6   6 C    3.975 --     5 C    1.296     4 C    1.270     7 C    1.184
     7   6 C    3.951 --    36 C    1.313    10 C    1.207     6 C    1.184
     8   6 C    3.940 --     9 C    1.423    13 C    1.329   162 H    0.963
     9   6 C    3.908 --     8 C    1.423    10 C    1.273   199 S    1.063
    10   6 C    3.941 --     9 C    1.273    11 C    1.237     7 C    1.207
    11   6 C    3.961 --    14 C    1.244    39 C    1.240    10 C    1.237
    12   6 C    3.906 --    17 C    1.435    13 C    1.258   163 H    0.951
    13   6 C    3.950 --     8 C    1.329    12 C    1.258    14 C    1.179
    14   6 C    3.959 --    15 C    1.302    11 C    1.244    13 C    1.179
    15   6 C    3.891 --    43 C    1.394    14 C    1.302   198 S    0.955
    16   6 C    3.876 --    17 C    1.371    19 C    1.287   164 H    0.950
    17   6 C    3.891 --    12 C    1.435    16 C    1.371   198 S    0.926
    18   6 C    3.929 --    47 C    1.006    20 C    0.999   201 H    0.931
                           198 S    0.877
    19   6 C    3.931 --    20 C    1.403    16 C    1.287   197 S    1.068
    20   6 C    3.887 --    19 C    1.403    21 C    1.231    18 C    0.999
    21   6 C    3.945 --    24 C    1.258    51 C    1.240    20 C    1.231
    22   6 C    3.953 --    23 C    1.525    27 C    1.237   165 H    0.964
    23   6 C    3.952 --    22 C    1.525    24 C    1.218   197 S    1.039
    24   6 C    3.931 --    21 C    1.258    25 C    1.237    23 C    1.218
    25   6 C    3.978 --    28 C    1.258    55 C    1.250    24 C    1.237
    26   6 C    3.911 --    30 C    1.435    27 C    1.332   166 H    0.969
    27   6 C    3.985 --    26 C    1.332    28 C    1.240    22 C    1.237
    28   6 C    3.978 --    25 C    1.258    29 C    1.242    27 C    1.240
    29   6 C    3.983 --    31 C    1.320    28 C    1.242    59 C    1.228
    30   6 C    3.984 --    31 C    1.452    26 C    1.435   182 H    0.970
    31   6 C    3.903 --    30 C    1.452    29 C    1.320   183 H    0.956
    32   6 C    3.955 --    37 C    1.369    33 C    1.248     4 C    1.138
    33   6 C    3.891 --    34 C    1.472    32 C    1.248   167 H    0.962
    34   6 C    3.954 --    33 C    1.472    35 C    1.366   168 H    0.950
    35   6 C    3.817 --    34 C    1.366    64 C    1.238   200 S    0.969
    36   6 C    3.962 --     7 C    1.313    37 C    1.265    40 C    1.141
    37   6 C    3.871 --    32 C    1.369    36 C    1.265   200 S    0.963
    38   6 C    3.946 --    41 C    1.016    68 C    1.010   202 H    0.932
                           200 S    0.873
    39   6 C    3.974 --    44 C    1.267    11 C    1.240    40 C    1.239
    40   6 C    3.967 --    41 C    1.364    39 C    1.239    36 C    1.141
    41   6 C    3.904 --    40 C    1.364    42 C    1.292    38 C    1.016
    42   6 C    3.972 --    41 C    1.292    45 C    1.252    72 C    1.211
    43   6 C    3.963 --    15 C    1.394    44 C    1.214    48 C    1.121
    44   6 C    3.978 --    39 C    1.267    45 C    1.253    43 C    1.214
    45   6 C    3.950 --    44 C    1.253    42 C    1.252    46 C    1.214
    46   6 C    3.963 --    76 C    1.356    45 C    1.214    49 C    1.179
    47   6 C    3.908 --    52 C    1.327    48 C    1.323    18 C    1.006
    48   6 C    3.961 --    47 C    1.323    49 C    1.305    43 C    1.121
    49   6 C    3.932 --    48 C    1.305    50 C    1.206    46 C    1.179
    50   6 C    3.968 --    80 C    1.322    53 C    1.225    49 C    1.206
    51   6 C    3.932 --    56 C    1.261    21 C    1.240    52 C    1.193
    52   6 C    3.954 --    47 C    1.327    53 C    1.225    51 C    1.193
    53   6 C    3.962 --    54 C    1.279    50 C    1.225    52 C    1.225
    54   6 C    3.933 --    53 C    1.279    57 C    1.241    83 C    1.193
    55   6 C    3.953 --    56 C    1.257    25 C    1.250    60 C    1.209
    56   6 C    3.969 --    51 C    1.261    55 C    1.257    57 C    1.229
    57   6 C    3.931 --    54 C    1.241    58 C    1.238    56 C    1.229
    58   6 C    3.949 --    61 C    1.461    57 C    1.238    87 C    0.986
    59   6 C    3.843 --    60 C    1.375    29 C    1.228   189 S    1.049
    60   6 C    3.972 --    59 C    1.375    55 C    1.209    61 C    1.167
    61   6 C    3.932 --    58 C    1.461    60 C    1.167    62 C    1.100
    62   6 C    3.966 --    63 C    1.589    61 C    1.100    91 C    1.098
    63   6 C    3.886 --    62 C    1.589   189 S    1.125   184 H    0.960
    64   6 C    3.937 --    65 C    1.319    35 C    1.238    69 C    1.167
    65   6 C    3.957 --    66 C    1.474    64 C    1.319   169 H    0.962
    66   6 C    3.942 --    65 C    1.474    67 C    1.326   170 H    0.962
    67   6 C    3.934 --    66 C    1.326    96 C    1.212    70 C    1.174
    68   6 C    3.951 --    73 C    1.371    69 C    1.319    38 C    1.010
    69   6 C    3.966 --    68 C    1.319    70 C    1.241    64 C    1.167
    70   6 C    3.962 --    71 C    1.318    69 C    1.241    67 C    1.174
    71   6 C    3.959 --    74 C    1.381    70 C    1.318   100 C    1.003
    72   6 C    3.920 --    77 C    1.312    42 C    1.211    73 C    1.169
    73   6 C    3.970 --    68 C    1.371    74 C    1.214    72 C    1.169
    74   6 C    3.967 --    71 C    1.381    73 C    1.214    75 C    1.160
    75   6 C    3.967 --    78 C    1.425    74 C    1.160   103 C    1.153
    76   6 C    3.862 --    46 C    1.356    77 C    1.283   196 S    1.000
    77   6 C    3.964 --    72 C    1.312    76 C    1.283    78 C    1.139
    78   6 C    3.940 --    75 C    1.425    79 C    1.153    77 C    1.139
    79   6 C    3.968 --    81 C    1.380   107 C    1.233    78 C    1.153
    80   6 C    3.863 --    50 C    1.322    84 C    1.317   196 S    0.985
    81   6 C    3.883 --    79 C    1.380    82 C    1.261   203 H    0.958
    82   6 C    3.970 --   111 C    1.318    81 C    1.261    85 C    1.184
    83   6 C    3.950 --    88 C    1.315    84 C    1.214    54 C    1.193
    84   6 C    3.962 --    80 C    1.317    83 C    1.214    85 C    1.199
    85   6 C    3.932 --    86 C    1.308    84 C    1.199    82 C    1.184
    86   6 C    3.970 --    85 C    1.308    89 C    1.227   115 C    1.210
    87   6 C    3.944 --    88 C    1.000    58 C    0.986   204 H    0.920
                           190 S    0.904
    88   6 C    3.927 --    89 C    1.353    83 C    1.315    87 C    1.000
    89   6 C    3.941 --    88 C    1.353    86 C    1.227    90 C    1.149
    90   6 C    3.970 --    92 C    1.361   119 C    1.236    89 C    1.149
    91   6 C    3.794 --    94 C    1.455    62 C    1.098   190 S    0.984
    92   6 C    3.863 --    90 C    1.361    93 C    1.241   190 S    0.977
    93   6 C    3.970 --    95 C    1.295    92 C    1.241   123 C    1.232
    94   6 C    3.974 --    91 C    1.455    95 C    1.394   185 H    0.953
    95   6 C    3.871 --    94 C    1.394    93 C    1.295   186 H    0.956
    96   6 C    3.825 --    97 C    1.436    67 C    1.212   195 S    0.950
    97   6 C    3.944 --    96 C    1.436    98 C    1.388   171 H    0.950
    98   6 C    3.879 --    97 C    1.388    99 C    1.326   172 H    0.962
    99   6 C    3.938 --    98 C    1.326   101 C    1.305   128 C    1.123
   100   6 C    3.947 --   104 C    1.005    71 C    1.003   205 H    0.929
                           195 S    0.900
   101   6 C    3.844 --   102 C    1.316    99 C    1.305   195 S    0.962
   102   6 C    3.948 --   101 C    1.316   132 C    1.221   105 C    1.183
   103   6 C    3.959 --   104 C    1.390   108 C    1.205    75 C    1.153
   104   6 C    3.930 --   103 C    1.390   105 C    1.299   100 C    1.005
   105   6 C    3.952 --   104 C    1.299   106 C    1.242   102 C    1.183
   106   6 C    3.964 --   136 C    1.259   105 C    1.242   109 C    1.239
   107   6 C    3.958 --   108 C    1.257   112 C    1.241    79 C    1.233
   108   6 C    3.975 --   109 C    1.285   107 C    1.257   103 C    1.205
   109   6 C    3.973 --   108 C    1.285   106 C    1.239   110 C    1.215
   110   6 C    3.968 --   113 C    1.390   109 C    1.215   139 C    1.142
   111   6 C    3.935 --    82 C    1.318   112 C    1.212   116 C    1.176
   112   6 C    3.973 --   113 C    1.287   107 C    1.241   111 C    1.212
   113   6 C    3.917 --   110 C    1.390   112 C    1.287   114 C    0.990
   114   6 C    3.937 --   113 C    0.990   117 C    0.988   193 S    0.922
                           206 H    0.918
   115   6 C    3.932 --   116 C    1.258   120 C    1.251    86 C    1.210
   116   6 C    3.967 --   117 C    1.319   115 C    1.258   111 C    1.176
   117   6 C    3.879 --   118 C    1.331   116 C    1.319   114 C    0.988
   118   6 C    3.959 --   117 C    1.331   121 C    1.240   146 C    1.170
   119   6 C    3.960 --    90 C    1.236   120 C    1.229   124 C    1.224
   120   6 C    3.977 --   121 C    1.268   115 C    1.251   119 C    1.229
   121   6 C    3.937 --   120 C    1.268   118 C    1.240   122 C    1.215
   122   6 C    3.970 --   125 C    1.329   121 C    1.215   149 C    1.193
   123   6 C    3.859 --   124 C    1.336    93 C    1.232   191 S    1.063
   124   6 C    3.976 --   123 C    1.336   119 C    1.224   125 C    1.204
   125   6 C    3.893 --   122 C    1.329   124 C    1.204   126 C    1.161
   126   6 C    3.970 --   127 C    1.540   125 C    1.161   153 C    1.099
   127   6 C    3.851 --   126 C    1.540   191 S    1.174   187 H    0.953
   128   6 C    3.979 --   129 C    1.384   133 C    1.263    99 C    1.123
   129   6 C    3.942 --   130 C    1.410   128 C    1.384   173 H    0.962
   130   6 C    3.980 --   131 C    1.472   129 C    1.410   174 H    0.970
   131   6 C    3.945 --   130 C    1.472   134 C    1.320   175 H    0.969
   132   6 C    3.967 --   137 C    1.270   133 C    1.231   102 C    1.221
   133   6 C    3.982 --   128 C    1.263   134 C    1.254   132 C    1.231
   134   6 C    3.982 --   131 C    1.320   133 C    1.254   135 C    1.233
   135   6 C    3.948 --   138 C    1.535   134 C    1.233   176 H    0.964
   136   6 C    3.920 --   106 C    1.259   137 C    1.247   140 C    1.197
   137   6 C    3.933 --   132 C    1.270   136 C    1.247   138 C    1.206
   138   6 C    3.952 --   135 C    1.535   137 C    1.206   194 S    1.042
   139   6 C    3.957 --   143 C    1.337   140 C    1.254   110 C    1.142
   140   6 C    3.940 --   141 C    1.254   139 C    1.254   136 C    1.197
   141   6 C    3.946 --   142 C    1.462   140 C    1.254   194 S    1.067
   142   6 C    3.946 --   141 C    1.462   144 C    1.281   177 H    0.961
   143   6 C    3.878 --   139 C    1.337   144 C    1.279   193 S    0.977
   144   6 C    3.963 --   142 C    1.281   143 C    1.279   145 C    1.223
   145   6 C    3.878 --   148 C    1.444   144 C    1.223   178 H    0.964
   146   6 C    3.908 --   147 C    1.327   150 C    1.199   118 C    1.170
   147   6 C    3.793 --   146 C    1.327   148 C    1.276   193 S    0.943
   148   6 C    3.933 --   145 C    1.444   147 C    1.276   192 S    1.047
   149   6 C    3.935 --   150 C    1.292   154 C    1.237   122 C    1.193
   150   6 C    3.944 --   149 C    1.292   151 C    1.219   146 C    1.199
   151   6 C    3.952 --   152 C    1.522   150 C    1.219   192 S    1.041
   152   6 C    3.956 --   151 C    1.522   155 C    1.248   179 H    0.963
   153   6 C    3.972 --   157 C    1.406   154 C    1.265   126 C    1.099
   154   6 C    3.980 --   153 C    1.265   155 C    1.245   149 C    1.237
   155   6 C    3.978 --   156 C    1.311   152 C    1.248   154 C    1.245
   156   6 C    3.960 --   158 C    1.486   155 C    1.311   180 H    0.968
   157   6 C    3.966 --   153 C    1.406   158 C    1.395   188 H    0.963
   158   6 C    3.975 --   156 C    1.486   157 C    1.395   181 H    0.970
   159   1 H    0.997 --     1 C    0.966
   160   1 H    0.997 --     2 C    0.969
   161   1 H    0.997 --     3 C    0.960
   162   1 H    0.997 --     8 C    0.963
   163   1 H    0.996 --    12 C    0.951
   164   1 H    0.996 --    16 C    0.950
   165   1 H    0.997 --    22 C    0.964
   166   1 H    0.998 --    26 C    0.969
   167   1 H    0.998 --    33 C    0.962
   168   1 H    0.996 --    34 C    0.950
   169   1 H    0.997 --    65 C    0.962
   170   1 H    0.997 --    66 C    0.962
   171   1 H    0.996 --    97 C    0.950
   172   1 H    0.998 --    98 C    0.962
   173   1 H    0.998 --   129 C    0.962
   174   1 H    0.997 --   130 C    0.970
   175   1 H    0.998 --   131 C    0.969
   176   1 H    0.997 --   135 C    0.964
   177   1 H    0.996 --   142 C    0.961
   178   1 H    0.997 --   145 C    0.964
   179   1 H    0.997 --   152 C    0.963
   180   1 H    0.998 --   156 C    0.968
   181   1 H    0.998 --   158 C    0.970
   182   1 H    0.998 --    30 C    0.970
   183   1 H    0.998 --    31 C    0.956
   184   1 H    0.996 --    63 C    0.960
   185   1 H    0.996 --    94 C    0.953
   186   1 H    0.998 --    95 C    0.956
   187   1 H    0.995 --   127 C    0.953
   188   1 H    0.999 --   157 C    0.963
   189  16 S    2.453 --    63 C    1.125    59 C    1.049
   190  16 S    3.154 --    91 C    0.984    92 C    0.977    87 C    0.904
   191  16 S    2.507 --   127 C    1.174   123 C    1.063
   192  16 S    2.411 --   148 C    1.047   151 C    1.041
   193  16 S    3.145 --   143 C    0.977   147 C    0.943   114 C    0.922
   194  16 S    2.419 --   141 C    1.067   138 C    1.042
   195  16 S    3.106 --   101 C    0.962    96 C    0.950   100 C    0.900
   196  16 S    2.356 --    76 C    1.000    80 C    0.985
   197  16 S    2.425 --    19 C    1.068    23 C    1.039
   198  16 S    3.074 --    15 C    0.955    17 C    0.926    18 C    0.877
   199  16 S    2.416 --     9 C    1.063     5 C    1.056
   200  16 S    3.107 --    35 C    0.969    37 C    0.963    38 C    0.873
   201   1 H    0.990 --    18 C    0.931
   202   1 H    0.989 --    38 C    0.932
   203   1 H    0.997 --    81 C    0.958
   204   1 H    0.984 --    87 C    0.920
   205   1 H    0.990 --   100 C    0.929
   206   1 H    0.983 --   114 C    0.918
 ---------------------------------------------------------------------------

Topologies differ in total number of bonds
Writing topology from bond orders to xtbtopo.mol

molecular dipole:
                 x           y           z       tot (Debye)
 q only:        1.790       1.077      -1.304
   full:        1.761       1.559      -1.942       7.752
molecular quadrupole (traceless):
                xx          xy          yy          xz          yz          zz
 q only:      -40.561     -33.141      33.699     -15.147      12.336       6.862
  q+dip:      -35.392     -33.417      64.227     -13.132     -13.339     -28.835
   full:      -56.067     -35.203      45.882     -13.635      -9.744      10.185


           -------------------------------------------------
          | TOTAL ENERGY             -396.287219589575 Eh   |
          | GRADIENT NORM               0.000448642634 Eh/α |
          | HOMO-LUMO GAP               0.082746970605 eV   |
           -------------------------------------------------

------------------------------------------------------------------------
 * finished run on 2025/12/08 at 00:41:37.551     
------------------------------------------------------------------------
 total:
 * wall-time:     0 d,  0 h,  0 min,  0.804 sec
 *  cpu-time:     0 d,  0 h,  0 min,  9.672 sec
 * ratio c/w:    12.030 speedup
 SCF:
 * wall-time:     0 d,  0 h,  0 min,  0.693 sec
 *  cpu-time:     0 d,  0 h,  0 min,  8.234 sec
 * ratio c/w:    11.882 speedup

normal termination of xtb
