206
 energy: -396.287219548804 gnorm: 0.000450730081 xtb: 6.7.1pre (5071a88)
C           -8.35507133442515       10.07294624857737       -0.30055368031579
C           -7.50080472034555       11.06854017138805       -0.73892818870171
C           -6.14579270721313       10.84362461711117       -0.71579087990181
C           -5.60959990070334        9.62255978439675       -0.28751520584260
C           -7.84810121913962        8.84613106969866        0.08835349926676
C           -6.47253082008124        8.54671209874731        0.05874152508961
C           -5.95166305319832        7.22426453778837        0.30079860948237
C           -8.95289683021615        5.18749096055630        1.31351992991244
C           -8.17187700696240        6.24300337409495        0.89373594554384
C           -6.79184513337311        6.12214651321219        0.64668580912350
C           -6.23113806326668        4.82573266960031        0.81230884023713
C           -9.32969514166781        2.82959924384652        1.69584790190642
C           -8.43568203807409        3.90700325817070        1.50242159601613
C           -7.03475700732037        3.74233708629986        1.25819723716805
C           -6.43469742357701        2.48418788437262        1.33705598327376
C           -9.72259267307924        0.34754624318673        1.71312985674089
C           -8.97631958456622        1.50778352422273        1.79654018353983
C           -7.04538172543764       -0.02278077832645        0.78389031349656
C           -9.17848342900025       -0.93675126423573        1.51069709870289
C           -7.90654995744831       -1.21764579328806        1.03159282316642
C           -7.42460503008097       -2.49513439021386        0.62809740350204
C          -10.46384130133803       -4.66339407126357        0.97796777103959
C           -9.61640427241163       -3.60035812258553        1.07633346281783
C           -8.28428941921593       -3.62097343136922        0.58024858014114
C           -7.84497477215537       -4.82970088254190       -0.02970799407558
C          -10.95254937080624       -6.91223720301647        0.14305315013793
C          -10.07031412139278       -5.84360260145443        0.31941867132313
C           -8.75050744373175       -5.90658125663338       -0.19213188951026
C           -8.36218185545400       -7.06067194620201       -0.91082830037460
C          -10.55319682899377       -8.03377692814996       -0.55528231613398
C           -9.28174221355525       -8.10631695393029       -1.08298406598130
C           -4.18436149196368        9.45327198353282       -0.14245035523669
C           -3.27089200567496       10.51067273211244       -0.37272847397899
C           -1.92765513336095       10.32032932886655       -0.60677110443620
C           -1.24820730960676        9.12686476449787       -0.41144227078904
C           -4.56016082505856        7.01909282587620        0.21998245232442
C           -3.74954115053873        8.16886299681102        0.14677021691965
C           -1.75875780303099        6.51567060390065       -0.49852385949123
C           -4.85456916377137        4.59477562171943        0.54142803551371
C           -3.99172037024306        5.68414231031776        0.24577335484070
C           -2.64645641501403        5.41291537483080       -0.04976816941759
C           -2.09444249910611        4.12171684824119        0.04441053157213
C           -5.16733364624833        2.18460987323331        0.88488524750975
C           -4.33077820768166        3.27978933089860        0.54441846711044
C           -2.95820434521416        3.03952992555237        0.32270463456193
C           -2.42728344458393        1.73543838245642        0.51135380225077
C           -5.58532913381444       -0.25910457157188        0.64233643052944
C           -4.69579194447273        0.82436386829084        0.74188294584219
C           -3.31477642426902        0.61207401261751        0.62672271660358
C           -2.85550365134419       -0.71508822632925        0.37395852982385
C           -6.07203234796523       -2.64305784439510        0.20615300272098
C           -5.15762000182938       -1.54573454500446        0.30092776312283
C           -3.77479254325119       -1.75352640977133        0.06349139660279
C           -3.31038250647521       -2.99270406202397       -0.42328587107444
C           -6.50417074339786       -4.96359090506748       -0.47620485186407
C           -5.60077016306172       -3.88823955208415       -0.28538401025141
C           -4.23691413609349       -4.04345018959083       -0.66108380871962
C           -3.81706443953699       -5.25629015242529       -1.27396195050090
C           -7.04471715416497       -7.12328689823233       -1.42836433991771
C           -6.08081730166280       -6.15711710440463       -1.14594997250246
C           -4.69078007976663       -6.30193048838900       -1.50905170835767
C           -4.23934769596617       -7.59015673420712       -2.02456901719752
C           -5.06421711397855       -8.53359021424269       -2.53376803257355
C            0.06053010316825        8.75088716684741       -0.79294918774917
C            0.93375571235998        9.70628878401096       -1.32651234396846
C            2.28523799982277        9.48814579604134       -1.39196051641840
C            2.85684401558750        8.29745156085428       -0.93410021189136
C           -0.28576229289205        6.29263588496178       -0.48832107885742
C            0.56571940746076        7.40808722495855       -0.63003279332135
C            1.97259048648485        7.18628460323699       -0.68895984769971
C            2.44535982550128        5.86389499541973       -0.58241783756960
C           -0.69651020783463        3.89139532383144       -0.13641226880972
C            0.19543586196073        4.99394834543768       -0.35482127244083
C            1.60019421729478        4.77932156793428       -0.39803222552957
C            2.11967623499409        3.44236952763410       -0.35460143667563
C           -1.04014634707021        1.59010210109570        0.49739589356603
C           -0.16698008733940        2.59360444324834        0.01650048950604
C            1.23995731900067        2.37472462206548       -0.27469989186498
C            1.76879067182757        1.05544946000697       -0.49322391648040
C           -1.49190471019852       -1.00758664699691        0.36635910412615
C            0.93090266019190       -0.00835808053396       -0.78258714305612
C            1.36108584027013       -1.33765883598630       -0.62435263810110
C           -1.90390011559806       -3.18244228604141       -0.60410660655589
C           -0.98136185098066       -2.16140850836102       -0.23519442572733
C            0.40288857013701       -2.38871893151592       -0.50196875237489
C            0.84502911190833       -3.71131121686234       -0.62172147369509
C           -2.43570192932413       -5.18117251573906       -1.87802590997831
C           -1.41929540832112       -4.39989241941557       -1.10368432149928
C           -0.07024864821462       -4.74155171814374       -0.95309969577417
C            0.44305801555897       -6.08159506403715       -1.03879783110300
C           -2.84831696906724       -7.95895566566588       -1.94393569794805
C           -0.34945198763688       -7.12270117799019       -1.48523945847075
C           -0.02915017029583       -8.48370791126226       -1.31526425198061
C           -2.33634023300547       -9.20130132439027       -1.65881858916468
C           -0.99064620795893       -9.49161822613646       -1.49463399312259
C            4.25342396474582        8.23387543829435       -0.68803048980828
C            5.25753995192715        9.12030308802323       -1.00229403925485
C            6.61756293600724        8.88328755494613       -0.83920190764700
C            7.17382998458457        7.62221656943465       -0.58539965698824
C            3.90911691157240        5.61833099326727       -0.73330892396985
C            6.36298891431290        6.52378164582829       -0.27709574818524
C            6.75461791967858        5.18153011830171       -0.25893883407855
C            3.54399510784845        3.21132090509522       -0.36251413568854
C            4.44224437318225        4.26622781771918       -0.40339359250725
C            5.83256589840663        4.07922861788314       -0.22999558589642
C            6.34543983033170        2.75500757593775       -0.11320527398902
C            3.15756983885398        0.80742977606954       -0.37459967363408
C            4.05860483878580        1.88625251904554       -0.28250207791479
C            5.44787308475375        1.65310322827866       -0.20340691165675
C            5.93786531352518        0.31089048473497       -0.27354265134816
C            2.73248346059272       -1.60236782895642       -0.54242909042166
C            3.64902133499857       -0.51574929450219       -0.47367013135186
C            5.03910575118878       -0.73947516538067       -0.46311954815435
C            5.40478447887161       -2.14585316729162       -0.86248279663586
C            2.22531888525529       -3.99955509558058       -0.46521552090768
C            3.17000183067320       -2.95678715046910       -0.42437286013334
C            4.53423611156397       -3.25457831125844       -0.33278177335230
C            4.96430633806829       -4.54617006732662        0.02223105037639
C            1.74935363863708       -6.38825003402665       -0.57587410842610
C            2.66417199420351       -5.33333774023112       -0.34153188299777
C            4.00259246720018       -5.59767165464415        0.01707290848181
C            4.36402061532961       -6.93613020784842        0.34027418795089
C            1.27143740353358       -8.75143324747216       -0.81562320842431
C            2.17201891204072       -7.74286699541771       -0.44818797191873
C            3.46788766359461       -7.99561319842470        0.11375550567623
C            3.86256247624204       -9.33717864749620        0.45884185153630
C            3.18504370121543      -10.43449270881876        0.02421197280866
C            8.58707561157308        7.34651305389551       -0.72294967248687
C            9.51302450686817        8.33754811963725       -1.04126819906272
C           10.87456846428247        8.08073713489868       -1.06020017586784
C           11.34517456655888        6.83204872044462       -0.73082165354135
C            8.15484789028239        4.94020171785284       -0.25136789124406
C            9.04941851454686        6.03164079235030       -0.45867574471692
C           10.44684145635972        5.80438809877229       -0.42249117914732
C           10.90363724967986        4.53337270883025       -0.01718431045483
C            7.73403024928824        2.53651582331395        0.08068670531952
C            8.63024425062275        3.63900247991568        0.03217007801646
C           10.03175524112373        3.51948939994438        0.24031683974299
C            7.34309604954695        0.09732080394839       -0.02322784185178
C            8.20043559758294        1.19475795808988        0.25818450224120
C            9.51336031535852        0.88540459175117        0.68755258181359
C            9.92893069596723       -0.39478991543848        0.96270517564752
C            7.87795940009178       -1.18704768072045        0.06954648051303
C            9.11380930060687       -1.48784893304234        0.65601886581325
C            9.46624125560310       -2.80774413700724        1.01729567803737
C            6.29756463146573       -4.82775534333680        0.48867836315789
C            7.29695306803483       -3.85156051709657        0.45158567403415
C            8.56136526776585       -3.84462051217630        1.05730561671089
C            5.64920834239380       -7.17283842609643        0.91958930884745
C            6.57476348599477       -6.11470775032030        1.05030158792351
C            7.79473257363928       -6.39744793072621        1.72436375912169
C            8.08233024233999       -7.63018515565805        2.23293486153902
C            5.05809311964882       -9.54137186444339        1.25802680061882
C            5.96049698699825       -8.46683216190940        1.41678942523767
C            7.17692286052609       -8.69848180798635        2.10464215551761
C            7.45121085179747       -9.95519426640249        2.65918247706290
C            5.33826486702170      -10.75677056854999        1.87247076072093
C            6.52441532815900      -10.96316847620376        2.56403907746575
H           -9.42216132148718       10.23090300051875       -0.26362900500591
H           -7.89585644848513       12.01369421569275       -1.07762149146482
H           -5.48807807131224       11.63073708070934       -1.04197496611608
H          -10.00877751229079        5.35769233961337        1.46310553692984
H          -10.38383814810059        3.04947681175179        1.60154746126762
H          -10.79639400921902        0.42211429006997        1.79565787495381
H          -11.46152479256832       -4.58949107999591        1.38414443917625
H          -11.94909437683810       -6.84145896950992        0.55230757523149
H           -3.65303010673670       11.50587913024513       -0.51269841899263
H           -1.37959286454776       11.14584082776140       -1.03666309959604
H            0.55068571111109       10.67124886656021       -1.61476611152030
H            2.92409002626478       10.28957058830812       -1.72533433937581
H            4.97909951290704       10.04517887098933       -1.48585651109474
H            7.27623592488913        9.69887702486694       -1.08146160322229
H            9.18044942568317        9.33610225667456       -1.27147155317853
H           11.56291607122775        8.87322034406920       -1.31440214643439
H           12.40472537000110        6.62603896694334       -0.70621001162974
H           11.96167621962110        4.37464567737392        0.12757733461761
H           10.90885976295983       -0.55865963014327        1.38261693099944
H           10.42341609183990       -2.95623525014079        1.49173596365601
H            9.01311634981324       -7.78471722792033        2.75783885574848
H            8.38689935385364      -10.10578557875430        3.17615204813664
H            6.71207470837239      -11.92265804315834        3.02256672151231
H          -11.23698932174579       -8.85851791031184       -0.69249829129071
H           -8.98397135382315       -8.99057106484497       -1.62461564604676
H           -4.67526582222604       -9.44297684056720       -2.96019486544643
H           -3.04692176481979       -9.98887545449848       -1.45059034774504
H           -0.71032857332408      -10.51382988936963       -1.30329272969452
H            3.55424418993146      -11.43235556415537        0.18527462177190
H            4.62491300371553      -11.56436387226407        1.83644770681217
S           -6.77643164804758       -8.47442843459839       -2.52041636782166
S           -1.72368684458303       -6.74452659859766       -2.53378304224948
S            1.70204845066190      -10.44803922129211       -0.81603587530966
S            9.02045665736206       -5.18820908578130        2.07910441011492
S            7.16938241784092       -2.56248270655574       -0.77759440610828
S           10.74162881053542        2.09354947082972        0.96832520608352
S            4.73359269496342        6.85609388667236        0.33313280428388
S           -0.46693581068543        0.10877807913027        1.29844394549809
S          -10.31188616443097       -2.20897832482701        1.88978191307275
S           -7.26316065076600        1.16544818093369        2.18584548623147
S           -9.06588345552587        7.72505288106647        0.65635611104719
S           -2.05800926413224        7.94850443388462        0.63294854469822
H           -7.43412075120398        0.55978438839160       -0.06979793537402
H           -2.08633364404400        6.90391958048714       -1.47338647324369
H           -0.05332561759225        0.17660348403781       -1.18453957081686
H           -2.56795171449256       -4.62769547455778       -2.82631945083234
H            4.23431069317304        5.89983059243914       -1.74749944420324
H            5.25107213542686       -2.17096424901159       -1.95797124800159
