206
 energy: -396.246240770531 gnorm: 0.075232058839 xtb: 6.7.1pre (5071a88)
C           -8.43657900000000       10.20476500000000       -0.23127700000000
C           -7.57182100000000       11.22376000000000       -0.63334400000000
C           -6.21071700000000       10.99180300000000       -0.65072500000000
C           -5.67288200000000        9.73732000000000       -0.28797900000000
C           -7.93274000000000        8.95332500000000        0.10761800000000
C           -6.54352900000000        8.64878000000000        0.04897100000000
C           -6.01922500000000        7.30310700000000        0.26740200000000
C           -9.04490400000000        5.24921600000000        1.29544700000000
C           -8.25538300000000        6.31680800000000        0.87222000000000
C           -6.87045700000000        6.19153500000000        0.62246400000000
C           -6.30721600000000        4.88192800000000        0.78688600000000
C           -9.44702500000000        2.87749100000000        1.69655600000000
C           -8.53240400000000        3.96459200000000        1.47049600000000
C           -7.12493400000000        3.79378400000000        1.21835400000000
C           -6.52481400000000        2.52271800000000        1.29016600000000
C           -9.84836300000000        0.35436700000000        1.71611200000000
C           -9.10960300000000        1.54765600000000        1.75796300000000
C           -7.13936600000000       -0.03961600000000        0.73325700000000
C           -9.28465700000000       -0.93050500000000        1.51269100000000
C           -7.99797500000000       -1.22543700000000        1.04200600000000
C           -7.51578000000000       -2.51980300000000        0.65004500000000
C          -10.61235300000000       -4.65002500000000        0.88892500000000
C           -9.74331300000000       -3.60646700000000        1.04867600000000
C           -8.38159500000000       -3.65103500000000        0.58408500000000
C           -7.93772600000000       -4.86873300000000       -0.03191300000000
C          -11.11079100000000       -6.90603200000000        0.03759100000000
C          -10.20977100000000       -5.84759500000000        0.23993100000000
C           -8.85977700000000       -5.94493100000000       -0.22702000000000
C           -8.45952000000000       -7.12182700000000       -0.92805500000000
C          -10.69880500000000       -8.05594500000000       -0.63004200000000
C           -9.40168100000000       -8.16535900000000       -1.11198700000000
C           -4.23241700000000        9.55400500000000       -0.21009200000000
C           -3.31036800000000       10.62279000000000       -0.44932300000000
C           -1.96044000000000       10.41721500000000       -0.70356400000000
C           -1.27847900000000        9.20884900000000       -0.53954600000000
C           -4.62512100000000        7.09211200000000        0.15734700000000
C           -3.80787900000000        8.25108100000000        0.04036000000000
C           -1.78238400000000        6.54213300000000       -0.55359900000000
C           -4.91829600000000        4.64140600000000        0.52026000000000
C           -4.04470600000000        5.73734800000000        0.20919100000000
C           -2.68709900000000        5.45455300000000       -0.06270700000000
C           -2.13382500000000        4.15207400000000        0.05280000000000
C           -5.24491900000000        2.21047700000000        0.87252700000000
C           -4.39340900000000        3.31436300000000        0.54211600000000
C           -3.00750800000000        3.06755600000000        0.33615500000000
C           -2.47608700000000        1.75416000000000        0.54478000000000
C           -5.66103300000000       -0.26396400000000        0.65461700000000
C           -4.76603300000000        0.82562800000000        0.75893100000000
C           -3.37247900000000        0.61121900000000        0.66358600000000
C           -2.90321400000000       -0.73133300000000        0.42460600000000
C           -6.14494600000000       -2.67467300000000        0.23485000000000
C           -5.22342500000000       -1.56428200000000        0.32749700000000
C           -3.82924300000000       -1.77729200000000        0.10438000000000
C           -3.35437700000000       -3.03690800000000       -0.37062400000000
C           -6.58073800000000       -5.01340100000000       -0.45654400000000
C           -5.66887000000000       -3.92865900000000       -0.26084100000000
C           -4.28459700000000       -4.09239100000000       -0.61260500000000
C           -3.85905400000000       -5.33467200000000       -1.20318100000000
C           -7.12014900000000       -7.19787800000000       -1.42098900000000
C           -6.15479600000000       -6.22246400000000       -1.12582900000000
C           -4.73980100000000       -6.37787200000000       -1.45934800000000
C           -4.28108800000000       -7.67073400000000       -2.01167000000000
C           -5.10862600000000       -8.59087700000000       -2.56912400000000
C            0.05075700000000        8.81415200000000       -0.89000000000000
C            0.94591800000000        9.77344100000000       -1.40226400000000
C            2.30723100000000        9.55323900000000       -1.44394900000000
C            2.88216300000000        8.35213800000000       -0.99502400000000
C           -0.29533500000000        6.33371300000000       -0.51053400000000
C            0.56064100000000        7.46248600000000       -0.69008000000000
C            1.98659800000000        7.23664900000000       -0.73544900000000
C            2.45283300000000        5.89813600000000       -0.58981900000000
C           -0.72010600000000        3.91721800000000       -0.11550900000000
C            0.18320000000000        5.03134900000000       -0.35497400000000
C            1.60079300000000        4.81311500000000       -0.39487800000000
C            2.12276200000000        3.46080500000000       -0.33405600000000
C           -1.08033900000000        1.60653200000000        0.56845900000000
C           -0.18957100000000        2.61204300000000        0.05689300000000
C            1.24049100000000        2.38696500000000       -0.24811500000000
C            1.78243600000000        1.05471300000000       -0.48525800000000
C           -1.52397500000000       -1.02459500000000        0.45646400000000
C            0.95992800000000       -0.01751500000000       -0.77296800000000
C            1.37776500000000       -1.35449000000000       -0.60325000000000
C           -1.92215200000000       -3.22345400000000       -0.53737000000000
C           -0.99410200000000       -2.18050000000000       -0.16356900000000
C            0.40377900000000       -2.41072900000000       -0.45192800000000
C            0.85417900000000       -3.74457900000000       -0.56987700000000
C           -2.45323000000000       -5.25406100000000       -1.79029100000000
C           -1.43026800000000       -4.44906400000000       -1.01776000000000
C           -0.06549600000000       -4.79031300000000       -0.87578000000000
C            0.44769000000000       -6.14673400000000       -0.93729200000000
C           -2.88448000000000       -8.05318900000000       -1.89552000000000
C           -0.33780100000000       -7.20571600000000       -1.37386600000000
C           -0.02308400000000       -8.57837400000000       -1.23767400000000
C           -2.34070800000000       -9.29783300000000       -1.65282200000000
C           -0.97821300000000       -9.59621800000000       -1.49755800000000
C            4.29966700000000        8.30009300000000       -0.75080200000000
C            5.31734600000000        9.20522700000000       -0.99264200000000
C            6.69232500000000        8.96776100000000       -0.80586700000000
C            7.24200100000000        7.68778100000000       -0.58416900000000
C            3.92018900000000        5.63096300000000       -0.75959000000000
C            6.42144600000000        6.57148000000000       -0.32216800000000
C            6.80935200000000        5.21778300000000       -0.27092900000000
C            3.56837800000000        3.22975400000000       -0.34581600000000
C            4.46744300000000        4.28603300000000       -0.38650000000000
C            5.87858300000000        4.10613800000000       -0.22277000000000
C            6.39903600000000        2.77247400000000       -0.08856700000000
C            3.18667200000000        0.80909700000000       -0.36826200000000
C            4.09112300000000        1.89265300000000       -0.27205800000000
C            5.49041900000000        1.66027400000000       -0.18589800000000
C            5.98273300000000        0.30788400000000       -0.25578100000000
C            2.75766900000000       -1.62267900000000       -0.52172700000000
C            3.67909600000000       -0.52432100000000       -0.45586300000000
C            5.07730100000000       -0.74647200000000       -0.43556500000000
C            5.43659500000000       -2.16772800000000       -0.84029900000000
C            2.24959800000000       -4.03757900000000       -0.41631400000000
C            3.20128700000000       -2.98778300000000       -0.39066500000000
C            4.56946100000000       -3.28811400000000       -0.29444500000000
C            5.00731100000000       -4.58706000000000        0.05748000000000
C            1.77048600000000       -6.44606600000000       -0.49301400000000
C            2.69288300000000       -5.38003800000000       -0.28154500000000
C            4.04504700000000       -5.64795400000000        0.06452100000000
C            4.41813600000000       -6.99826800000000        0.38610200000000
C            1.29042100000000       -8.83640100000000       -0.72198100000000
C            2.19371700000000       -7.81080100000000       -0.36264800000000
C            3.51665700000000       -8.06253300000000        0.18611700000000
C            3.92742200000000       -9.41694100000000        0.52610700000000
C            3.22092400000000      -10.51571600000000        0.12260800000000
C            8.67150000000000        7.40221600000000       -0.68112800000000
C            9.61193100000000        8.40004300000000       -0.98122700000000
C           10.98176200000000        8.13537200000000       -0.97858200000000
C           11.44527000000000        6.86748000000000       -0.65926800000000
C            8.21890600000000        4.97205000000000       -0.22385600000000
C            9.12963900000000        6.07362300000000       -0.41779900000000
C           10.53539200000000        5.83385700000000       -0.37241700000000
C           10.99097000000000        4.54149700000000        0.01721600000000
C            7.79507900000000        2.55085800000000        0.11244600000000
C            8.69333500000000        3.66528700000000        0.06990600000000
C           10.11224500000000        3.53187400000000        0.28590100000000
C            7.41026800000000        0.09122200000000       -0.03245900000000
C            8.27447000000000        1.18911400000000        0.25744200000000
C            9.60733200000000        0.87437500000000        0.66125800000000
C           10.05396100000000       -0.42143500000000        0.84340600000000
C            7.96400700000000       -1.19679000000000        0.01805000000000
C            9.22654500000000       -1.51361500000000        0.53499300000000
C            9.60423900000000       -2.86607400000000        0.84721900000000
C            6.37229300000000       -4.86547800000000        0.50749800000000
C            7.37204800000000       -3.89548100000000        0.43921100000000
C            8.69509800000000       -3.89976000000000        0.96296900000000
C            5.73972700000000       -7.23778000000000        0.93177200000000
C            6.67446600000000       -6.17944800000000        1.04288000000000
C            7.95004400000000       -6.46804900000000        1.64619900000000
C            8.27207600000000       -7.71612800000000        2.10602600000000
C            5.16772500000000       -9.62995300000000        1.27754300000000
C            6.08299600000000       -8.54801200000000        1.40013400000000
C            7.34886200000000       -8.78578400000000        2.01861700000000
C            7.65736500000000      -10.05792500000000        2.54229000000000
C            5.48674700000000      -10.86013600000000        1.86183100000000
C            6.72281400000000      -11.07481600000000        2.48176400000000
H           -9.50733300000000       10.38324700000000       -0.18592000000000
H           -7.96901000000000       12.19249100000000       -0.92072400000000
H           -5.54884500000000       11.78943100000000       -0.96016700000000
H          -10.10888300000000        5.40997400000000        1.44796600000000
H          -10.50729800000000        3.11717900000000        1.65062800000000
H          -10.92633900000000        0.43114500000000        1.83067000000000
H          -11.63605300000000       -4.56904100000000        1.24490300000000
H          -12.12888400000000       -6.81197300000000        0.40547000000000
H           -3.68570000000000       11.63056100000000       -0.55310200000000
H           -1.39878700000000       11.25799600000000       -1.10424400000000
H            0.57355100000000       10.75157000000000       -1.68660400000000
H            2.95086300000000       10.36931500000000       -1.75492200000000
H            5.04237800000000       10.16583300000000       -1.42171900000000
H            7.35658200000000        9.80369600000000       -0.97930300000000
H            9.27931700000000        9.40390100000000       -1.21657800000000
H           11.68305100000000        8.93083400000000       -1.21330900000000
H           12.51092400000000        6.65830000000000       -0.62499100000000
H           12.05816000000000        4.38275500000000        0.14597000000000
H           11.05465800000000       -0.60514700000000        1.22348600000000
H           10.60613700000000       -3.01601900000000        1.23742000000000
H            9.23931400000000       -7.89727700000000        2.56654900000000
H            8.62430900000000      -10.21579900000000        3.01125900000000
H            6.93976200000000      -12.04556800000000        2.91754000000000
H          -11.39479800000000       -8.87783600000000       -0.77596600000000
H           -9.10482800000000       -9.08030600000000       -1.61119100000000
H           -4.70827400000000       -9.48301600000000       -3.03752400000000
H           -3.04842500000000      -10.10966200000000       -1.49694300000000
H           -0.71763400000000      -10.63108200000000       -1.31797200000000
H            3.60713500000000      -11.51579600000000        0.27403800000000
H            4.76873900000000      -11.67192200000000        1.85925100000000
S           -6.83672800000000       -8.55345100000000       -2.53058200000000
S           -1.72378800000000       -6.83388600000000       -2.42688600000000
S            1.71203200000000      -10.53936100000000       -0.66713700000000
S            9.15906500000000       -5.22782200000000        2.01334800000000
S            7.21117000000000       -2.58554800000000       -0.76941900000000
S           10.77617800000000        2.11711600000000        1.09954000000000
S            4.77776100000000        6.90187200000000        0.23870000000000
S           -0.56348500000000        0.12239300000000        1.43432500000000
S          -10.38101600000000       -2.23462700000000        1.96568500000000
S           -7.38816700000000        1.20289300000000        2.09205700000000
S           -9.15597200000000        7.80916300000000        0.65419100000000
S           -2.10449700000000        8.02787100000000        0.48572600000000
H           -7.51872400000000        0.52055900000000       -0.14130500000000
H           -2.09453100000000        6.88375000000000       -1.55147300000000
H           -0.05875200000000        0.16438700000000       -1.07853600000000
H           -2.56630100000000       -4.72059900000000       -2.74703600000000
H            4.23301400000000        5.88000300000000       -1.78605900000000
H            5.28648700000000       -2.19982200000000       -1.92957300000000
206
 energy: -396.267196483766 gnorm: 0.039680137779 xtb: 6.7.1pre (5071a88)
C           -8.41806938732353       10.18880710382223       -0.22717145900197
C           -7.56216203991156       11.20275191723659       -0.63058896583134
C           -6.20746300906046       10.96877165068271       -0.64826434163183
C           -5.66671433714172        9.71980267348676       -0.28964123986902
C           -7.91140644233151        8.94276049845325        0.10852418803404
C           -6.53101313735846        8.63466369160746        0.04862357518861
C           -6.01081421479009        7.29352407262887        0.26645014773082
C           -9.02570474059657        5.24093585653784        1.28714459877440
C           -8.23732308382686        6.30451050933262        0.87218031089429
C           -6.85610954503677        6.18339218390954        0.62105531179204
C           -6.29608210164246        4.87598928315260        0.77968982535960
C           -9.42516992300789        2.87153145904662        1.67736597774893
C           -8.51667238770231        3.95387194296002        1.46073864490094
C           -7.11179360337585        3.78657876219498        1.20798087766126
C           -6.51365545930829        2.51796639451604        1.27989104466289
C           -9.82139922429957        0.35639364237095        1.70610326798334
C           -9.08625319471258        1.54140503569462        1.74758089033657
C           -7.12382230668484       -0.03469713521793        0.74105742632083
C           -9.26233115675102       -0.92764441238709        1.50907557827559
C           -7.98650965244350       -1.22475653730885        1.02912659921723
C           -7.50523168765890       -2.51545892825916        0.63712240004894
C          -10.58917966168936       -4.64795681386375        0.88396154982547
C           -9.71942743010930       -3.60898904601198        1.04444728824785
C           -8.36833499444130       -3.64545619828804        0.57495414275936
C           -7.92767287622372       -4.86008617811884       -0.03716577898136
C          -11.08787103908912       -6.89584002844733        0.03304136851927
C          -10.19116529178124       -5.83930779477812        0.23360986309080
C           -8.84700500393354       -5.93228697617499       -0.22700544081985
C           -8.44855563971131       -7.10391380632160       -0.92313032836691
C          -10.67660333501266       -8.04002995066000       -0.62781278510448
C           -9.38407685992882       -8.14442774650525       -1.10506434369035
C           -4.23067569840632        9.53254692103749       -0.21013364104965
C           -3.30346542646065       10.58815934269725       -0.44868391324782
C           -1.95880331835910       10.38920797235965       -0.70282870505319
C           -1.27474446862139        9.18676558545725       -0.53365776450957
C           -4.61850104772878        7.08024533463410        0.15994874195989
C           -3.80388673897885        8.23390583905051        0.04610716342085
C           -1.77923137540980        6.53939488408402       -0.55011064478772
C           -4.90983348446236        4.63808530390471        0.51749649885435
C           -4.03910618693097        5.73181309689632        0.20931503046715
C           -2.68398597060348        5.44962535664483       -0.06555599006302
C           -2.12891825153310        4.15128229368896        0.05298334889152
C           -5.23307286687420        2.20981674774329        0.86240738461433
C           -4.38507806952634        3.31350055889757        0.53740161888589
C           -3.00223062526271        3.06741438417905        0.33372819960902
C           -2.47296655436015        1.75447729889343        0.53232475818067
C           -5.64902881291990       -0.26169949075837        0.64079529245112
C           -4.75756838398416        0.83007583285175        0.74078367957425
C           -3.36679197125636        0.61494268015906        0.64599607218344
C           -2.90139258674492       -0.72734673198162        0.41290103471652
C           -6.13757673177667       -2.66854375796713        0.22885571747392
C           -5.21568521191524       -1.56308660276870        0.32397543047841
C           -3.82347335962056       -1.77659594647602        0.10616987414724
C           -3.35018029021614       -3.03206569066847       -0.36367699416406
C           -6.57187856878722       -5.00378113551691       -0.45566581534674
C           -5.66174695294765       -3.92345969760265       -0.25355748633451
C           -4.28157918407122       -4.08593484276823       -0.60382962822903
C           -3.85873084706494       -5.31911495599097       -1.20064768372343
C           -7.11134616291460       -7.17745666893867       -1.40913429213422
C           -6.14325067064968       -6.21058000959965       -1.11566972289544
C           -4.73443284678507       -6.36457287392052       -1.45304203157915
C           -4.27405206207184       -7.65803603511969       -1.98837141220118
C           -5.10191844829208       -8.57636059264725       -2.54285568263011
C            0.05285585400138        8.79859963371780       -0.87830422115027
C            0.94574085249051        9.75447499768881       -1.38898422218378
C            2.30242427822211        9.53530220216618       -1.43256650220378
C            2.87709262016668        8.33869931710165       -0.98361285220537
C           -0.29262423012092        6.32645100879280       -0.51428537330580
C            0.56213069442657        7.45031340917756       -0.68522749431719
C            1.98219462910967        7.22518804736035       -0.73191608242738
C            2.44960440077083        5.89144403157959       -0.59467091577378
C           -0.71760768600234        3.91784613978363       -0.11638853479046
C            0.18582187160761        5.02534824166386       -0.35313873125903
C            1.60016666721619        4.80641316398080       -0.39407154114375
C            2.12208717546678        3.45745296582043       -0.33504663766864
C           -1.07795234390032        1.61201030250314        0.53840027400962
C           -0.18749432764095        2.61545535822002        0.04931810905660
C            1.23750106071870        2.38772846993498       -0.24280376960038
C            1.77536815666438        1.05337339444053       -0.45456293431170
C           -1.52635610385860       -1.02269670026980        0.42573891817953
C            0.94949212105558       -0.01989913236101       -0.73588044003812
C            1.36994797831852       -1.35566023361745       -0.57604789442764
C           -1.92522055388967       -3.22044502786870       -0.53051258060271
C           -0.99846578571747       -2.18253252147452       -0.17097680596188
C            0.39858624695269       -2.41258181049907       -0.44377074273572
C            0.84958131287501       -3.74351004219714       -0.56044380882296
C           -2.45488314085405       -5.24508544112322       -1.77733879378004
C           -1.43237964895947       -4.44604267086963       -1.00786235843769
C           -0.07023799211763       -4.78666718747311       -0.86574970332258
C            0.44810643271209       -6.13683792150419       -0.93575255890010
C           -2.87867992045357       -8.03964384378509       -1.88963256690661
C           -0.34043327150271       -7.19073049077839       -1.37085861836528
C           -0.02128626807525       -8.55749481779768       -1.22843428046846
C           -2.33592428245988       -9.28213635728078       -1.64863808118859
C           -0.97994720824112       -9.56624375533994       -1.47425955373175
C            4.28964529509596        8.28208391994462       -0.74327284662137
C            5.30781419167964        9.18117167685312       -0.99212159935347
C            6.67474570897551        8.93951369034615       -0.80600689866198
C            7.23292791890649        7.66803162531851       -0.58356143432776
C            3.91964107057221        5.63003439295124       -0.75680201199939
C            6.41338958627677        6.55667981065200       -0.31812276447814
C            6.80168507758537        5.20796487232029       -0.26904489566102
C            3.56319224758097        3.22478770399851       -0.34755143492337
C            4.46544296759712        4.28021530753421       -0.39655424081062
C            5.87085771050993        4.10006166716939       -0.22813094844376
C            6.38819841517624        2.76952095427093       -0.09555595722200
C            3.17877320463500        0.80826172663309       -0.35497034705778
C            4.08446703041223        1.89114520384739       -0.26722019987248
C            5.48217777608850        1.65991111506748       -0.18594821277771
C            5.97270545609069        0.30936361843504       -0.25478067984756
C            2.75003525944067       -1.62227031951820       -0.50706842630385
C            3.66890883711402       -0.52377237407738       -0.44829722014859
C            5.06729779246042       -0.74434122071564       -0.43510373872367
C            5.42745345398845       -2.16430384455576       -0.82984668426216
C            2.24314009853545       -4.03464237987544       -0.41142830959186
C            3.19268968648254       -2.98583044926035       -0.38454414141078
C            4.56195887187062       -3.28573556546529       -0.29126692802958
C            5.00321186252875       -4.58201349661059        0.06032695255161
C            1.77057535346520       -6.43874287400530       -0.49196192528051
C            2.69076127729850       -5.37435971828181       -0.27832851728176
C            4.04185786859999       -5.64098498456332        0.06751465817537
C            4.41505780640388       -6.98842850306182        0.38573275807992
C            1.28688850216061       -8.81685896169058       -0.71453324882336
C            2.19386727633350       -7.79993047865882       -0.35794441210019
C            3.51339568070020       -8.05181142620934        0.18522562237651
C            3.92524295325190       -9.40050609090420        0.52472951411345
C            3.22202890429472      -10.49733084542896        0.12284601437188
C            8.65899092582284        7.38846324302848       -0.68278416009974
C            9.59960955023070        8.38124611733147       -0.97697242499127
C           10.96314677165772        8.11941867947665       -0.97469964913268
C           11.42359225001337        6.85970763613751       -0.65770430517161
C            8.20820127833087        4.96555720771350       -0.22846723233416
C            9.11406865269185        6.06447830762503       -0.42063799714627
C           10.51523021663516        5.82908828745304       -0.37519699396253
C           10.96723673798222        4.54433237868208        0.01921086159922
C            7.78259219953214        2.54905464669753        0.10374159103583
C            8.67955285879294        3.66134844719938        0.06448770987593
C           10.08908558457865        3.53687656282709        0.28516095722313
C            7.39438648648764        0.09464955129524       -0.02965336300931
C            8.25625861435212        1.19276515715427        0.25649344196425
C            9.58268891260816        0.87474244429141        0.65980500033557
C           10.03206280221401       -0.41534720388697        0.84394771162844
C            7.94385276794629       -1.19276450591898        0.02577368100797
C            9.20910090073897       -1.50821824266502        0.53731621962854
C            9.57913654453984       -2.85216707183109        0.85120547860251
C            6.36215572540435       -4.86332981918526        0.49984743078564
C            7.35992101258666       -3.88795693086084        0.43661263726891
C            8.67157758594726       -3.88508399121785        0.96334728492826
C            5.73126279746509       -7.22903962900000        0.92476024189485
C            6.66185309654572       -6.17013936058172        1.03422606161697
C            7.92499896732587       -6.45998226069105        1.64216743773213
C            8.24969686782281       -7.70622257856778        2.09818864833121
C            5.16372606489856       -9.61413183088130        1.26935763413043
C            6.07364151127459       -8.53500260694521        1.39228697393359
C            7.33373846650990       -8.77564576696705        2.00714783333608
C            7.64210684133264      -10.04285659702376        2.53028133721450
C            5.48441244502371      -10.83992749990541        1.85360710935430
C            6.71189748543759      -11.05370807118937        2.47430470631700
H           -9.48533724060328       10.36340673347750       -0.17863575426542
H           -7.95959137423723       12.16871843967030       -0.91458306293925
H           -5.55242413404609       11.76917602741441       -0.95339352979298
H          -10.08397145690977        5.41147355514980        1.44431376469564
H          -10.48177000916378        3.11336692980959        1.63915607943492
H          -10.89580135600253        0.42582105968898        1.82476149494026
H          -11.60698667259091       -4.56633484918971        1.24572099416965
H          -12.10306296532027       -6.80643519606953        0.39926258936667
H           -3.67487072968580       11.59467279044236       -0.55450826412251
H           -1.40585853802586       11.23022631961731       -1.10604251225293
H            0.57312907276156       10.72671141227146       -1.68003790341906
H            2.94334892453560       10.34617264069200       -1.75052320844885
H            5.04149293042833       10.13955585489824       -1.42326424318326
H            7.33522237621365        9.77509462992919       -0.98023206468048
H            9.27438918120042        9.38416640783671       -1.21039081210331
H           11.66299347113368        8.91256535107127       -1.20809950237214
H           12.48616863847918        6.65382128960625       -0.62393863822678
H           12.03023534284126        4.38494405312426        0.15290586170649