      -----------------------------------------------------------      
     |                   =====================                   |     
     |                           x T B                           |     
     |                   =====================                   |     
     |                         S. Grimme                         |     
     |          Mulliken Center for Theoretical Chemistry        |     
     |                    University of Bonn                     |     
      -----------------------------------------------------------      

   * xtb version 6.7.1pre (5071a88) compiled by 'Marcel@Raven' on 2024-07-23

   xtb is free software: you can redistribute it and/or modify it under
   the terms of the GNU Lesser General Public License as published by
   the Free Software Foundation, either version 3 of the License, or
   (at your option) any later version.
   
   xtb is distributed in the hope that it will be useful,
   but WITHOUT ANY WARRANTY; without even the implied warranty of
   MERCHANTABILITY or FITNESS FOR A PARTICULAR PURPOSE.  See the
   GNU Lesser General Public License for more details.
   
   Cite this work as:
   * C. Bannwarth, E. Caldeweyher, S. Ehlert, A. Hansen, P. Pracht,
     J. Seibert, S. Spicher, S. Grimme, WIREs Comput. Mol. Sci., 2020, 11,
     e01493. DOI: 10.1002/wcms.1493
   
   for GFN2-xTB:
   * C. Bannwarth, S. Ehlert and S. Grimme., J. Chem. Theory Comput., 2019,
     15, 1652-1671. DOI: 10.1021/acs.jctc.8b01176
   for GFN1-xTB:
   * S. Grimme, C. Bannwarth, P. Shushkov, J. Chem. Theory Comput., 2017,
     13, 1989-2009. DOI: 10.1021/acs.jctc.7b00118
   for GFN0-xTB:
   * P. Pracht, E. Caldeweyher, S. Ehlert, S. Grimme, ChemRxiv, 2019, preprint.
     DOI: 10.26434/chemrxiv.8326202.v1
   for GFN-FF:
   * S. Spicher and S. Grimme, Angew. Chem. Int. Ed., 2020, 59, 15665-15673.
     DOI: 10.1002/anie.202004239
   
   for ALPB and GBSA implicit solvation:
   * S. Ehlert, M. Stahn, S. Spicher, S. Grimme, J. Chem. Theory Comput.,
     2021, 17, 4250-4261. DOI: 10.1021/acs.jctc.1c00471
   
   for ddCOSMO and CPCM-X implicit solvation:
   * M. Stahn, S. Ehlert, S. Grimme, J. Phys. Chem. A,
     2023, XX, XXXX-XXXX. DOI: 10.1021/acs.jpca.3c04382
   
   for DFT-D4:
   * E. Caldeweyher, C. Bannwarth and S. Grimme, J. Chem. Phys., 2017,
     147, 034112. DOI: 10.1063/1.4993215
   * E. Caldeweyher, S. Ehlert, A. Hansen, H. Neugebauer, S. Spicher,
     C. Bannwarth and S. Grimme, J. Chem. Phys., 2019, 150, 154122.
     DOI: 10.1063/1.5090222
   * E. Caldeweyher, J.-M. Mewes, S. Ehlert and S. Grimme, Phys. Chem. Chem. Phys.
     2020, 22, 8499-8512. DOI: 10.1039/D0CP00502A
   
   for sTDA-xTB:
   * S. Grimme and C. Bannwarth, J. Chem. Phys., 2016, 145, 054103.
     DOI: 10.1063/1.4959605
   
   in the mass-spec context:
   * V. Asgeirsson, C. Bauer and S. Grimme, Chem. Sci., 2017, 8, 4879.
     DOI: 10.1039/c7sc00601b
   * J. Koopman and S. Grimme, ACS Omega 2019, 4, 12, 15120-15133.
     DOI: 10.1021/acsomega.9b02011
   
   for metadynamics refer to:
   * S. Grimme, J. Chem. Theory Comput., 2019, 155, 2847-2862
     DOI: 10.1021/acs.jctc.9b00143
   
   for SPH calculations refer to:
   * S. Spicher and S. Grimme, J. Chem. Theory Comput., 2021, 17, 1701-1714
     DOI: 10.1021/acs.jctc.0c01306
   
   for ONIOM refer to:
   * C. Plett, A. Katbashev, S. Ehlert, S. Grimme, M. Bursch,
     Phys. Chem. Chem. Phys., 2023, 25, 17860-17868. DOI: 10.1039/D3CP02178E
   
   for DIPRO refer to:
   * J. Kohn, N. Gildemeister, S. Grimme, D. Fazzi, A. Hansen,
     J. Chem. Phys., 2023, just accepted.
   
   for PTB refer to:
   * S. Grimme, M. Mueller, A. Hansen, J. Chem. Phys., 2023, 158, 124111.
     DOI: 10.1063/5.0137838
   
   with help from (in alphabetical order)
   P. Atkinson, C. Bannwarth, F. Bohle, G. Brandenburg, E. Caldeweyher
   M. Checinski, S. Dohm, S. Ehlert, S. Ehrlich, I. Gerasimov, C. Hölzer
   A. Katbashev, J. Kohn, J. Koopman, C. Lavigne, S. Lehtola, F. März, M. Müller,
   F. Musil, H. Neugebauer, J. Pisarek, C. Plett, P. Pracht, F. Pultar,
   J. Seibert, P. Shushkov, S. Spicher, M. Stahn, M. Steiner, T. Strunk,
   J. Stückrath, T. Rose, and J. Unsleber
   
 * started run on 2025/12/08 at 00:37:30.949     
   ID    Z sym.   atoms
    1    6 C      1-4, 6-18, 20, 22-40, 42-66, 68-85, 87-97, 99-107, 109-134,
                  136-147, 149-152, 154-159, 161-170
    2    7 N      5, 19, 21, 41, 67, 86, 98, 108, 135, 148, 153, 160
    3    1 H      171-206

           -------------------------------------------------
          |                Calculation Setup                |
           -------------------------------------------------

          program call               : xtb "C:\Users\LENOVO GAMING\Documents\GitHub\molecular-conductivity-sim\dataset\2nm-12Ndoped-7percent.xyz" --opt --parallel 4
          coordinate file            : C:\Users\LENOVO GAMING\Documents\GitHub\molecular-conductivity-sim\dataset\2nm-12Ndoped-7percent.xyz
          omp threads                :                     4


           -------------------------------------------------
          |                 G F N 2 - x T B                 |
           -------------------------------------------------

        Reference                      10.1021/acs.jctc.8b01176
      * Hamiltonian:
        H0-scaling (s, p, d)           1.850000    2.230000    2.230000
        zeta-weighting                 0.500000
      * Dispersion:
        s8                             2.700000
        a1                             0.520000
        a2                             5.000000
        s9                             5.000000
      * Repulsion:
        kExp                           1.500000    1.000000
        rExp                           1.000000
      * Coulomb:
        alpha                          2.000000
        third order                    shell-resolved
        anisotropic                    true
        a3                             3.000000
        a5                             4.000000
        cn-shift                       1.200000
        cn-exp                         4.000000
        max-rad                        5.000000


          ...................................................
          :                      SETUP                      :
          :.................................................:
          :  # basis functions                 716          :
          :  # atomic orbitals                 716          :
          :  # shells                          376          :
          :  # electrons                       728          :
          :  max. iterations                   250          :
          :  Hamiltonian                  GFN2-xTB          :
          :  restarted?                      false          :
          :  GBSA solvation                  false          :
          :  PC potential                    false          :
          :  electronic temp.          300.0000000     K    :
          :  accuracy                    1.0000000          :
          :  -> integral cutoff          0.2500000E+02      :
          :  -> integral neglect         0.1000000E-07      :
          :  -> SCF convergence          0.1000000E-05 Eh   :
          :  -> wf. convergence          0.1000000E-03 e    :
          :  Broyden damping             0.4000000          :
          :  net charge                          0          :
          :  unpaired electrons                  0          :
          ...................................................

 iter      E             dE          RMSdq      gap      omega  full diag
   1   -399.3830611 -0.399383E+03  0.449E+00    0.30       0.0  T
   2   -399.5042548 -0.121194E+00  0.331E+00    0.20       1.0  T
   3   -397.8448117  0.165944E+01  0.240E+00    0.12       1.0  T
   4   -381.5156689  0.163291E+02  0.373E+00    0.04       1.0  T
   5   -391.8999643 -0.103843E+02  0.247E+00    0.04       1.0  T
   6   -399.4057309 -0.750577E+01  0.111E+00    0.18       1.0  T
   7   -399.9233801 -0.517649E+00  0.638E-01    0.17       1.0  T
   8   -400.1228406 -0.199460E+00  0.461E-01    0.14       1.0  T
   9   -400.2258696 -0.103029E+00  0.299E-01    0.09       1.0  T
  10   -400.2319946 -0.612506E-02  0.237E-01    0.07       1.0  T
  11   -400.2427922 -0.107975E-01  0.210E-01    0.10       1.0  T
  12   -400.2489997 -0.620751E-02  0.139E-01    0.07       1.0  T
  13   -400.2602023 -0.112026E-01  0.466E-02    0.09       1.0  T
  14   -400.2612803 -0.107802E-02  0.242E-02    0.09       1.0  T
  15   -400.2613953 -0.115036E-03  0.142E-02    0.09       1.0  T
  16   -400.2614235 -0.281145E-04  0.101E-02    0.09       1.0  T
  17   -400.2614353 -0.118511E-04  0.617E-03    0.09       1.1  T
  18   -400.2614662 -0.308948E-04  0.258E-03    0.09       2.7  T
  19   -400.2614684 -0.222908E-05  0.120E-03    0.09       5.8  T
  20   -400.2614687 -0.251149E-06  0.735E-04    0.09       9.5  T
  21   -400.2614687  0.145084E-07  0.576E-04    0.09      12.1  T

   *** convergence criteria satisfied after 21 iterations ***

         #    Occupation            Energy/Eh            Energy/eV
      -------------------------------------------------------------
         1        2.0000           -0.6771780             -18.4270
       ...           ...                  ...                  ...
       358        2.0000           -0.3393604              -9.2345
       359        2.0000           -0.3373830              -9.1807
       360        2.0000           -0.3326482              -9.0518
       361        2.0000           -0.3113687              -8.4728
       362        2.0000           -0.3012201              -8.1966
       363        1.9998           -0.2966416              -8.0720
       364        1.7011           -0.2896526              -7.8818 (HOMO)
       365        0.2970           -0.2863417              -7.7918 (LUMO)
       366        0.0021           -0.2814748              -7.6593
       367        0.0000           -0.2773600              -7.5473
       368        0.0000           -0.2732258              -7.4349
       369                         -0.2687504              -7.3131
       ...                                ...                  ...
       716                          0.7642445              20.7962
      -------------------------------------------------------------
                  HL-Gap            0.0033109 Eh            0.0901 eV
             Fermi-level           -0.2880007 Eh           -7.8369 eV

 SCC (total)                   0 d,  0 h,  0 min,  4.334 sec
 SCC setup                      ...        0 min,  0.004 sec (  0.092%)
 Dispersion                     ...        0 min,  0.016 sec (  0.369%)
 classical contributions        ...        0 min,  0.002 sec (  0.046%)
 integral evaluation            ...        0 min,  0.085 sec (  1.961%)
 iterations                     ...        0 min,  3.747 sec ( 86.456%)
 molecular gradient             ...        0 min,  0.461 sec ( 10.637%)
 printout                       ...        0 min,  0.018 sec (  0.415%)

         :::::::::::::::::::::::::::::::::::::::::::::::::::::
         ::                     SUMMARY                     ::
         :::::::::::::::::::::::::::::::::::::::::::::::::::::
         :: total energy            -393.306065063190 Eh    ::
         :: gradient norm              0.089232496950 Eh/a0 ::
         :: HOMO-LUMO gap              0.090094949993 eV    ::
         ::.................................................::
         :: SCC energy              -400.278448421091 Eh    ::
         :: -> isotropic ES            0.037721322500 Eh    ::
         :: -> anisotropic ES          0.033985993270 Eh    ::
         :: -> anisotropic XC          0.119649556477 Eh    ::
         :: -> dispersion             -0.488450961965 Eh    ::
         :: repulsion energy           6.972383357901 Eh    ::
         :: add. restraining           0.000000000000 Eh    ::
         :: total charge              -0.000000000000 e     ::
         :::::::::::::::::::::::::::::::::::::::::::::::::::::

      ----------------------------------------------------------- 
     |                   =====================                   |
     |                        A N C O P T                        |
     |                   =====================                   |
     |               Approximate Normal Coordinate               |
     |                Rational Function Optimizer                |
      ----------------------------------------------------------- 
      ----------------------------------------------------------- 
     |                   =====================                   |
     |                        A N C O P T                        |
     |                   =====================                   |
     |               Approximate Normal Coordinate               |
     |                Rational Function Optimizer                |
      ----------------------------------------------------------- 

          ...................................................
          :                      SETUP                      :
          :.................................................:
          :   optimization level            normal          :
          :   max. optcycles                   618          :
          :   ANC micro-cycles                  20          :
          :   degrees of freedom               612          :
          :.................................................:
          :   RF solver                   davidson          :
          :   write xtbopt.log                true          :
          :   linear?                        false          :
          :   energy convergence         0.5000000E-05 Eh   :
          :   grad. convergence          0.1000000E-02 Eh/α :
          :   maxmium RF displ.          1.0000000          :
          :   Hlow (freq-cutoff)         0.1000000E-01      :
          :   Hmax (freq-cutoff)         5.0000000          :
          :   S6 in model hess.         20.0000000          :
          ...................................................

generating ANC from exact Hessian ...
Using Lindh-Hessian (1995)
 Shifting diagonal of input Hessian by   9.941169390124424E-003
 Lowest  eigenvalues of input Hessian
    0.000000    0.000000    0.000000    0.000000    0.000000    0.000000
    0.010000    0.010081    0.010097    0.010215    0.010236    0.010685
    0.010711    0.010794    0.010850    0.011048    0.011713    0.011731
 Highest eigenvalues
    2.182841    2.197759    2.202506    2.208965    2.238516    2.245082
 

........................................................................
.............................. CYCLE    1 ..............................
........................................................................

 iter      E             dE          RMSdq      gap      omega  full diag
   1   -400.2614688 -0.400261E+03  0.194E-04    0.09       0.0  T
   2   -400.2614683  0.507010E-06  0.785E-04    0.09       8.9  T
   3   -400.2614688 -0.490852E-06  0.232E-04    0.09      30.1  T
     SCC iter.                  ...        0 min,  0.562 sec
     gradient                   ...        0 min,  0.450 sec
 * total energy  :  -393.3060652 Eh     change       -0.1214267E-06 Eh
   gradient norm :     0.0892395 Eh/α   predicted     0.0000000E+00 (-100.00%)
   displ. norm   :     0.5321922 α      lambda       -0.2201261E-01
   maximum displ.:     0.4611116 α      in ANC's #45, #92, #181, ...

........................................................................
.............................. CYCLE    2 ..............................
........................................................................

 iter      E             dE          RMSdq      gap      omega  full diag
   1   -400.4252987 -0.400425E+03  0.108E-01    0.09       0.0  T
   2   -400.4227908  0.250786E-02  0.982E-02    0.10       1.0  T
   3   -400.3681373  0.546535E-01  0.275E-01    0.07       1.0  T
   4   -400.4165812 -0.484439E-01  0.107E-01    0.13       1.0  T
   5   -400.4223678 -0.578664E-02  0.699E-02    0.07       1.0  T
   6   -400.4257769 -0.340905E-02  0.240E-02    0.09       1.0  T
   7   -400.4257616  0.153121E-04  0.215E-02    0.09       1.0  T
   8   -400.4260342 -0.272670E-03  0.897E-03    0.09       1.0  T
   9   -400.4260684 -0.342117E-04  0.504E-03    0.09       1.4  T
  10   -400.4260777 -0.926813E-05  0.242E-03    0.09       2.9  T
  11   -400.4260780 -0.301517E-06  0.185E-03    0.09       3.8  T
  12   -400.4260806 -0.259595E-05  0.764E-04    0.09       9.1  T
  13   -400.4260808 -0.181515E-06  0.409E-04    0.09      17.0  T
  14   -400.4260809 -0.133607E-06  0.981E-05    0.09      71.0  T
     SCC iter.                  ...        0 min,  2.536 sec
     gradient                   ...        0 min,  0.432 sec
 * total energy  :  -393.3235246 Eh     change       -0.1745937E-01 Eh
   gradient norm :     0.0506195 Eh/α   predicted    -0.1413407E-01 ( -19.05%)
   displ. norm   :     0.6200036 α      lambda       -0.1443720E-01
   maximum displ.:     0.5737362 α      in ANC's #45, #92, #77, ...

........................................................................
.............................. CYCLE    3 ..............................
........................................................................

 iter      E             dE          RMSdq      gap      omega  full diag
   1   -400.5829673 -0.400583E+03  0.111E-01    0.08       0.0  T
   2   -400.5806281  0.233920E-02  0.962E-02    0.09       1.0  T
   3   -400.5173301  0.632981E-01  0.293E-01    0.07       1.0  T
   4   -400.5777892 -0.604591E-01  0.883E-02    0.11       1.0  T
   5   -400.5791495 -0.136028E-02  0.751E-02    0.06       1.0  T
   6   -400.5836259 -0.447640E-02  0.221E-02    0.08       1.0  T
   7   -400.5836367 -0.108372E-04  0.206E-02    0.08       1.0  T
   8   -400.5838827 -0.245975E-03  0.757E-03    0.08       1.0  T
   9   -400.5839075 -0.247967E-04  0.405E-03    0.08       1.7  T
  10   -400.5839129 -0.543928E-05  0.225E-03    0.08       3.1  T
  11   -400.5839144 -0.148551E-05  0.155E-03    0.08       4.5  T
  12   -400.5839158 -0.136712E-05  0.595E-04    0.08      11.7  T
  13   -400.5839158 -0.692431E-07  0.407E-04    0.08      17.1  T
  14   -400.5839160 -0.127862E-06  0.115E-04    0.08      60.7  T
     SCC iter.                  ...        0 min,  2.478 sec
     gradient                   ...        0 min,  0.443 sec
 * total energy  :  -393.3337083 Eh     change       -0.1018370E-01 Eh
   gradient norm :     0.0169959 Eh/α   predicted    -0.9993461E-02 (  -1.87%)
   displ. norm   :     0.4804904 α      lambda       -0.4820564E-02
   maximum displ.:     0.4584944 α      in ANC's #45, #27, #44, ...

........................................................................
.............................. CYCLE    4 ..............................
........................................................................

 iter      E             dE          RMSdq      gap      omega  full diag
   1   -400.6842075 -0.400684E+03  0.690E-02    0.07       0.0  T
   2   -400.6835893  0.618129E-03  0.520E-02    0.08       1.0  T
   3   -400.6478957  0.356937E-01  0.213E-01    0.05       1.0  T
   4   -400.6828971 -0.350015E-01  0.471E-02    0.09       1.0  T
   5   -400.6833505 -0.453313E-03  0.377E-02    0.07       1.0  T
   6   -400.6842675 -0.917061E-03  0.152E-02    0.08       1.0  T
   7   -400.6843159 -0.483683E-04  0.106E-02    0.08       1.0  T
   8   -400.6844050 -0.891312E-04  0.293E-03    0.08       2.4  T
   9   -400.6844081 -0.312249E-05  0.160E-03    0.07       4.4  T
  10   -400.6844087 -0.546630E-06  0.111E-03    0.07       6.3  T
  11   -400.6844090 -0.283441E-06  0.736E-04    0.07       9.5  T
  12   -400.6844093 -0.357206E-06  0.253E-04    0.07      27.5  T
     SCC iter.                  ...        0 min,  2.148 sec
     gradient                   ...        0 min,  0.439 sec
 * total energy  :  -393.3369123 Eh     change       -0.3204089E-02 Eh
   gradient norm :     0.0115618 Eh/α   predicted    -0.2967789E-02 (  -7.37%)
   displ. norm   :     0.2557915 α      lambda       -0.1051299E-02
   maximum displ.:     0.2368946 α      in ANC's #45, #27, #20, ...

........................................................................
.............................. CYCLE    5 ..............................
........................................................................

 iter      E             dE          RMSdq      gap      omega  full diag
   1   -400.7305036 -0.400731E+03  0.362E-02    0.07       0.0  T
   2   -400.7303268  0.176821E-03  0.267E-02    0.08       1.0  T
   3   -400.7150013  0.153255E-01  0.134E-01    0.04       1.0  T
   4   -400.7301219 -0.151206E-01  0.290E-02    0.08       1.0  T
   5   -400.7303780 -0.256108E-03  0.140E-02    0.08       1.0  T
   6   -400.7305076 -0.129599E-03  0.459E-03    0.07       1.5  T
   7   -400.7305154 -0.785055E-05  0.316E-03    0.07       2.2  T
   8   -400.7305211 -0.567864E-05  0.129E-03    0.07       5.4  T
   9   -400.7305218 -0.666731E-06  0.814E-04    0.07       8.6  T
  10   -400.7305221 -0.310497E-06  0.450E-04    0.07      15.5  T
     SCC iter.                  ...        0 min,  1.752 sec
     gradient                   ...        0 min,  0.450 sec
 * total energy  :  -393.3375353 Eh     change       -0.6229924E-03 Eh
   gradient norm :     0.0068957 Eh/α   predicted    -0.5600475E-03 ( -10.10%)
   displ. norm   :     0.0744039 α      lambda       -0.1093257E-03
   maximum displ.:     0.0458388 α      in ANC's #45, #20, #14, ...

........................................................................
.............................. CYCLE    6 ..............................
........................................................................

 iter      E             dE          RMSdq      gap      omega  full diag
   1   -400.7388082 -0.400739E+03  0.118E-02    0.07       0.0  T
   2   -400.7387953  0.128543E-04  0.898E-03    0.07       1.0  T
   3   -400.7386816  0.113719E-03  0.138E-02    0.07       1.0  T
   4   -400.7382241  0.457531E-03  0.273E-02    0.08       1.0  T
   5   -400.7387735 -0.549439E-03  0.738E-03    0.07       1.0  T
   6   -400.7387897 -0.161308E-04  0.509E-03    0.07       1.4  T
   7   -400.7388116 -0.219172E-04  0.112E-03    0.07       6.2  T
   8   -400.7388122 -0.600846E-06  0.446E-04    0.07      15.6  T
   9   -400.7388123 -0.117967E-06  0.143E-04    0.07      48.7  T
     SCC iter.                  ...        0 min,  1.593 sec
     gradient                   ...        0 min,  0.452 sec
 * total energy  :  -393.3376094 Eh     change       -0.7404668E-04 Eh
   gradient norm :     0.0031281 Eh/α   predicted    -0.5498325E-04 ( -25.75%)
   displ. norm   :     0.0733767 α      lambda       -0.5427124E-04
   maximum displ.:     0.0369554 α      in ANC's #20, #14, #18, ...

........................................................................
.............................. CYCLE    7 ..............................
........................................................................

 iter      E             dE          RMSdq      gap      omega  full diag
   1   -400.7406634 -0.400741E+03  0.999E-03    0.07       0.0  T
   2   -400.7406439  0.195688E-04  0.816E-03    0.07       1.0  T
   3   -400.7403787  0.265125E-03  0.187E-02    0.07       1.0  T
   4   -400.7403136  0.650870E-04  0.222E-02    0.08       1.0  T
   5   -400.7406452 -0.331562E-03  0.554E-03    0.07       1.3  T
   6   -400.7406522 -0.704233E-05  0.394E-03    0.07       1.8  T
   7   -400.7406659 -0.136867E-04  0.925E-04    0.07       7.5  T
   8   -400.7406664 -0.439286E-06  0.383E-04    0.07      18.2  T
   9   -400.7406665 -0.824638E-07  0.157E-04    0.07      44.3  T
     SCC iter.                  ...        0 min,  1.612 sec
     gradient                   ...        0 min,  0.435 sec
 * total energy  :  -393.3376491 Eh     change       -0.3969733E-04 Eh
   gradient norm :     0.0020512 Eh/α   predicted    -0.2729095E-04 ( -31.25%)
   displ. norm   :     0.1113305 α      lambda       -0.5232429E-04
   maximum displ.:     0.0603335 α      in ANC's #14, #20, #18, ...

........................................................................
.............................. CYCLE    8 ..............................
........................................................................

 iter      E             dE          RMSdq      gap      omega  full diag
   1   -400.7401441 -0.400740E+03  0.134E-02    0.07       0.0  T
   2   -400.7400942  0.498978E-04  0.112E-02    0.07       1.0  T
   3   -400.7386869  0.140725E-02  0.415E-02    0.06       1.0  T
   4   -400.7398033 -0.111633E-02  0.234E-02    0.08       1.0  T
   5   -400.7401310 -0.327777E-03  0.490E-03    0.07       1.4  T
   6   -400.7401380 -0.694790E-05  0.308E-03    0.07       2.3  T
   7   -400.7401465 -0.849801E-05  0.733E-04    0.07       9.5  T
   8   -400.7401467 -0.222543E-06  0.388E-04    0.07      18.0  T
   9   -400.7401468 -0.696527E-07  0.207E-04    0.07      33.6  T
     SCC iter.                  ...        0 min,  1.645 sec
     gradient                   ...        0 min,  0.466 sec
 * total energy  :  -393.3376878 Eh     change       -0.3869381E-04 Eh
   gradient norm :     0.0034043 Eh/α   predicted    -0.2648963E-04 ( -31.54%)
   displ. norm   :     0.1509185 α      lambda       -0.5262311E-04
   maximum displ.:     0.0884795 α      in ANC's #14, #20, #18, ...

........................................................................
.............................. CYCLE    9 ..............................
........................................................................

 iter      E             dE          RMSdq      gap      omega  full diag
   1   -400.7380700 -0.400738E+03  0.175E-02    0.07       0.0  T
   2   -400.7379877  0.823446E-04  0.143E-02    0.08       1.0  T
   3   -400.7340968  0.389090E-02  0.689E-02    0.05       1.0  T
   4   -400.7377581 -0.366130E-02  0.219E-02    0.07       1.0  T
   5   -400.7380662 -0.308067E-03  0.303E-03    0.07       2.3  T
   6   -400.7380684 -0.222273E-05  0.203E-03    0.07       3.4  T
   7   -400.7380720 -0.360753E-05  0.527E-04    0.07      13.2  T
   8   -400.7380720  0.160900E-07  0.426E-04    0.07      16.3  T
   9   -400.7380721 -0.961238E-07  0.237E-04    0.07      29.3  T
     SCC iter.                  ...        0 min,  1.640 sec
     gradient                   ...        0 min,  0.479 sec
 * total energy  :  -393.3377261 Eh     change       -0.3830666E-04 Eh
   gradient norm :     0.0037529 Eh/α   predicted    -0.2691283E-04 ( -29.74%)
   displ. norm   :     0.1285432 α      lambda       -0.3764234E-04
   maximum displ.:     0.0798084 α      in ANC's #14, #20, #13, ...

........................................................................
.............................. CYCLE   10 ..............................
........................................................................

 iter      E             dE          RMSdq      gap      omega  full diag
   1   -400.7361022 -0.400736E+03  0.150E-02    0.07       0.0  T
   2   -400.7360505  0.517455E-04  0.120E-02    0.07       1.0  T
   3   -400.7330983  0.295212E-02  0.609E-02    0.06       1.0  T
   4   -400.7360275 -0.292917E-02  0.919E-03    0.07       1.0  T
   5   -400.7360962 -0.686574E-04  0.300E-03    0.07       2.3  T
   6   -400.7361017 -0.553114E-05  0.154E-03    0.07       4.5  T
   7   -400.7361032 -0.150752E-05  0.687E-04    0.07      10.1  T
   8   -400.7361034 -0.233491E-06  0.317E-04    0.07      22.0  T
   9   -400.7361035 -0.209384E-07  0.198E-04    0.07      35.1  T
     SCC iter.                  ...        0 min,  1.648 sec
     gradient                   ...        0 min,  0.440 sec
 * total energy  :  -393.3377543 Eh     change       -0.2821591E-04 Eh
   gradient norm :     0.0024744 Eh/α   predicted    -0.1913364E-04 ( -32.19%)
   displ. norm   :     0.1058076 α      lambda       -0.2477786E-04
   maximum displ.:     0.0696674 α      in ANC's #14, #20, #13, ...

........................................................................
.............................. CYCLE   11 ..............................
........................................................................

 iter      E             dE          RMSdq      gap      omega  full diag
   1   -400.7353078 -0.400735E+03  0.125E-02    0.07       0.0  T
   2   -400.7352912  0.165639E-04  0.902E-03    0.07       1.0  T
   3   -400.7340217  0.126952E-02  0.415E-02    0.06       1.0  T
   4   -400.7350117 -0.990022E-03  0.183E-02    0.08       1.0  T
   5   -400.7353010 -0.289240E-03  0.365E-03    0.07       1.9  T
   6   -400.7353053 -0.430875E-05  0.210E-03    0.07       3.3  T
   7   -400.7353086 -0.336528E-05  0.603E-04    0.07      11.6  T
   8   -400.7353089 -0.238245E-06  0.246E-04    0.07      28.3  T
   9   -400.7353089 -0.241671E-07  0.129E-04    0.07      53.8  T
     SCC iter.                  ...        0 min,  1.590 sec
     gradient                   ...        0 min,  0.441 sec
 * total energy  :  -393.3377725 Eh     change       -0.1824441E-04 Eh
   gradient norm :     0.0013656 Eh/α   predicted    -0.1253181E-04 ( -31.31%)
   displ. norm   :     0.1155460 α      lambda       -0.1396336E-04
   maximum displ.:     0.0794881 α      in ANC's #14, #20, #12, ...

........................................................................
.............................. CYCLE   12 ..............................
........................................................................

 iter      E             dE          RMSdq      gap      omega  full diag
   1   -400.7353714 -0.400735E+03  0.136E-02    0.07       0.0  T
   2   -400.7353660  0.538199E-05  0.878E-03    0.07       1.0  T
   3   -400.7351018  0.264171E-03  0.224E-02    0.07       1.0  T
   4   -400.7350263  0.755121E-04  0.195E-02    0.08       1.0  T
   5   -400.7353558 -0.329430E-03  0.488E-03    0.07       1.4  T
   6   -400.7353698 -0.140135E-04  0.180E-03    0.07       3.9  T
   7   -400.7353722 -0.245049E-05  0.475E-04    0.07      14.7  T
   8   -400.7353724 -0.131028E-06  0.219E-04    0.07      31.8  T
   9   -400.7353724 -0.245137E-07  0.982E-05    0.07      71.0  T
     SCC iter.                  ...        0 min,  1.644 sec
     gradient                   ...        0 min,  0.464 sec
 * total energy  :  -393.3377872 Eh     change       -0.1462080E-04 Eh
   gradient norm :     0.0018286 Eh/α   predicted    -0.7024171E-05 ( -51.96%)
   displ. norm   :     0.0749609 α      lambda       -0.9305602E-05
   maximum displ.:     0.0518409 α      in ANC's #14, #20, #12, ...

........................................................................
.............................. CYCLE   13 ..............................
........................................................................

 iter      E             dE          RMSdq      gap      omega  full diag
   1   -400.7359088 -0.400736E+03  0.877E-03    0.07       0.0  T
   2   -400.7359056  0.314799E-05  0.554E-03    0.07       1.3  T
   3   -400.7350968  0.808822E-03  0.307E-02    0.08       1.0  T
   4   -400.7359006 -0.803769E-03  0.382E-03    0.07       1.8  T
   5   -400.7359079 -0.733904E-05  0.124E-03    0.07       5.6  T
   6   -400.7359085 -0.602435E-06  0.751E-04    0.07       9.3  T
   7   -400.7359089 -0.398240E-06  0.217E-04    0.07      32.1  T
     SCC iter.                  ...        0 min,  1.238 sec
     gradient                   ...        0 min,  0.477 sec
 * total energy  :  -393.3377992 Eh     change       -0.1207291E-04 Eh
   gradient norm :     0.0015792 Eh/α   predicted    -0.4670273E-05 ( -61.32%)
   displ. norm   :     0.1311684 α      lambda       -0.1617971E-04
   maximum displ.:     0.0853888 α      in ANC's #14, #12, #20, ...

........................................................................
.............................. CYCLE   14 ..............................
........................................................................

 iter      E             dE          RMSdq      gap      omega  full diag
   1   -400.7366429 -0.400737E+03  0.155E-02    0.07       0.0  T
   2   -400.7366009  0.419900E-04  0.118E-02    0.07       1.0  T
   3   -400.7341001  0.250076E-02  0.557E-02    0.09       1.0  T
   4   -400.7364930 -0.239293E-02  0.149E-02    0.07       1.0  T
   5   -400.7366394 -0.146319E-03  0.244E-03    0.07       2.9  T
   6   -400.7366418 -0.243268E-05  0.146E-03    0.07       4.8  T
   7   -400.7366437 -0.188746E-05  0.465E-04    0.07      15.0  T
   8   -400.7366438 -0.105377E-06  0.185E-04    0.07      37.6  T
   9   -400.7366438 -0.886445E-08  0.111E-04    0.07      62.9  T
     SCC iter.                  ...        0 min,  1.631 sec
     gradient                   ...        0 min,  0.441 sec
 * total energy  :  -393.3378185 Eh     change       -0.1926330E-04 Eh
   gradient norm :     0.0011734 Eh/α   predicted    -0.8156450E-05 ( -57.66%)
   displ. norm   :     0.1787531 α      lambda       -0.1527757E-04
   maximum displ.:     0.1136515 α      in ANC's #14, #12, #20, ...

........................................................................
.............................. CYCLE   15 ..............................
........................................................................

 iter      E             dE          RMSdq      gap      omega  full diag
   1   -400.7369054 -0.400737E+03  0.207E-02    0.07       0.0  T
   2   -400.7368984  0.698858E-05  0.127E-02    0.07       1.0  T
   3   -400.7363454  0.552972E-03  0.303E-02    0.07       1.0  T
   4   -400.7367434 -0.397995E-03  0.135E-02    0.07       1.0  T
   5   -400.7368911 -0.147656E-03  0.444E-03    0.07       1.6  T
   6   -400.7369055 -0.144646E-04  0.945E-04    0.07       7.4  T
   7   -400.7369061 -0.550192E-06  0.368E-04    0.07      18.9  T
   8   -400.7369062 -0.633142E-07  0.204E-04    0.07      34.1  T
     SCC iter.                  ...        0 min,  1.416 sec
     gradient                   ...        0 min,  0.417 sec
 * total energy  :  -393.3378358 Eh     change       -0.1729019E-04 Eh
   gradient norm :     0.0013151 Eh/α   predicted    -0.7750709E-05 ( -55.17%)
   displ. norm   :     0.2043924 α      lambda       -0.1316360E-04
   maximum displ.:     0.1278526 α      in ANC's #14, #12, #20, ...

........................................................................
.............................. CYCLE   16 ..............................
........................................................................

 iter      E             dE          RMSdq      gap      omega  full diag
   1   -400.7366735 -0.400737E+03  0.234E-02    0.07       0.0  T
   2   -400.7366696  0.390296E-05  0.140E-02    0.07       1.0  T
   3   -400.7359495  0.720145E-03  0.331E-02    0.08       1.0  T
   4   -400.7363353 -0.385774E-03  0.197E-02    0.07       1.0  T
   5   -400.7366678 -0.332537E-03  0.287E-03    0.07       2.4  T
   6   -400.7366733 -0.548227E-05  0.985E-04    0.07       7.1  T
   7   -400.7366740 -0.712654E-06  0.383E-04    0.07      18.2  T
   8   -400.7366741 -0.626999E-07  0.226E-04    0.07      30.8  T
     SCC iter.                  ...        0 min,  1.395 sec
     gradient                   ...        0 min,  0.439 sec
 * total energy  :  -393.3378504 Eh     change       -0.1462529E-04 Eh
   gradient norm :     0.0012104 Eh/α   predicted    -0.6708716E-05 ( -54.13%)
   displ. norm   :     0.2383849 α      lambda       -0.1385729E-04
   maximum displ.:     0.1470413 α      in ANC's #14, #12, #20, ...

........................................................................
.............................. CYCLE   17 ..............................
........................................................................

 iter      E             dE          RMSdq      gap      omega  full diag
   1   -400.7366559 -0.400737E+03  0.269E-02    0.07       0.0  T
   2   -400.7366469  0.892462E-05  0.161E-02    0.07       1.0  T
   3   -400.7330725  0.357446E-02  0.651E-02    0.05       1.0  T
   4   -400.7365421 -0.346959E-02  0.137E-02    0.07       1.0  T
   5   -400.7366500 -0.107942E-03  0.291E-03    0.07       2.4  T
   6   -400.7366555 -0.547153E-05  0.118E-03    0.07       5.9  T
   7   -400.7366563 -0.834715E-06  0.557E-04    0.07      12.5  T
   8   -400.7366565 -0.193031E-06  0.268E-04    0.07      26.0  T
     SCC iter.                  ...        0 min,  1.431 sec
     gradient                   ...        0 min,  0.448 sec
 * total energy  :  -393.3378643 Eh     change       -0.1392593E-04 Eh
   gradient norm :     0.0018731 Eh/α   predicted    -0.7104743E-05 ( -48.98%)
   displ. norm   :     0.1663994 α      lambda       -0.1130526E-04
   maximum displ.:     0.0975993 α      in ANC's #14, #12, #20, ...

........................................................................
.............................. CYCLE   18 ..............................
........................................................................

 iter      E             dE          RMSdq      gap      omega  full diag
   1   -400.7365631 -0.400737E+03  0.186E-02    0.07       0.0  T
   2   -400.7365630  0.154870E-06  0.110E-02    0.07       1.0  T
   3   -400.7365394  0.235604E-04  0.586E-03    0.07       1.2  T
   4   -400.7365417 -0.227838E-05  0.479E-03    0.07       1.5  T
   5   -400.7365589 -0.172015E-04  0.247E-03    0.07       2.8  T
   6   -400.7365631 -0.426057E-05  0.617E-04    0.07      11.3  T
   7   -400.7365633 -0.165130E-06  0.383E-04    0.07      18.2  T
   8   -400.7365634 -0.665185E-07  0.207E-04    0.07      33.7  T
     SCC iter.                  ...        0 min,  1.421 sec
     gradient                   ...        0 min,  0.440 sec
 * total energy  :  -393.3378761 Eh     change       -0.1172827E-04 Eh
   gradient norm :     0.0010480 Eh/α   predicted    -0.5723905E-05 ( -51.20%)
   displ. norm   :     0.0705985 α      lambda       -0.8826790E-05
   maximum displ.:     0.0363684 α      in ANC's #13, #14, #5, ...

........................................................................
.............................. CYCLE   19 ..............................
........................................................................

 iter      E             dE          RMSdq      gap      omega  full diag
   1   -400.7368494 -0.400737E+03  0.804E-03    0.07       0.0  T
   2   -400.7368484  0.998759E-06  0.490E-03    0.07       1.4  T
   3   -400.7366863  0.162086E-03  0.138E-02    0.08       1.0  T
   4   -400.7367779 -0.915486E-04  0.995E-03    0.07       1.0  T
   5   -400.7368461 -0.682581E-04  0.209E-03    0.07       3.3  T
   6   -400.7368491 -0.298270E-05  0.781E-04    0.07       8.9  T
   7   -400.7368496 -0.487589E-06  0.212E-04    0.07      32.9  T
   8   -400.7368496 -0.893925E-08  0.139E-04    0.07      50.1  T
     SCC iter.                  ...        0 min,  1.450 sec
     gradient                   ...        0 min,  0.436 sec
 * total energy  :  -393.3378856 Eh     change       -0.9532454E-05 Eh
   gradient norm :     0.0008425 Eh/α   predicted    -0.4424847E-05 ( -53.58%)
   displ. norm   :     0.0600091 α      lambda       -0.5987691E-05
   maximum displ.:     0.0383222 α      in ANC's #13, #4, #5, ...

........................................................................
.............................. CYCLE   20 ..............................
........................................................................

 iter      E             dE          RMSdq      gap      omega  full diag
   1   -400.7365235 -0.400737E+03  0.652E-03    0.07       0.0  T
   2   -400.7364978  0.256794E-04  0.675E-03    0.07       1.0  T
   3   -400.7361857  0.312102E-03  0.201E-02    0.08       1.0  T
   4   -400.7364980 -0.312311E-03  0.686E-03    0.07       1.0  T
   5   -400.7365213 -0.232854E-04  0.181E-03    0.07       3.8  T
   6   -400.7365238 -0.250311E-05  0.460E-04    0.07      15.1  T
   7   -400.7365239 -0.121677E-06  0.188E-04    0.07      37.1  T
   8   -400.7365239 -0.139853E-07  0.110E-04    0.07      63.4  T
     SCC iter.                  ...        0 min,  1.408 sec
     gradient                   ...        0 min,  0.449 sec
 * total energy  :  -393.3378920 Eh     change       -0.6409360E-05 Eh
   gradient norm :     0.0006748 Eh/α   predicted    -0.3000329E-05 ( -53.19%)
   displ. norm   :     0.0610439 α      lambda       -0.3923809E-05
   maximum displ.:     0.0359717 α      in ANC's #13, #11, #4, ...
 * RMSD in coord.:     0.1793570 α      energy gain  -0.3182695E-01 Eh

generating ANC from exact Hessian ...
Using Lindh-Hessian (1995)
 Shifting diagonal of input Hessian by   9.936890896942613E-003
 Lowest  eigenvalues of input Hessian
    0.000000    0.000000    0.000000    0.000000    0.000000    0.000000
    0.010000    0.010086    0.010102    0.010236    0.010255    0.010750
    0.010784    0.010861    0.010934    0.011145    0.011879    0.011912
 Highest eigenvalues
    2.277201    2.281254    2.284275    2.297003    2.325262    2.328366
 

........................................................................
.............................. CYCLE   21 ..............................
........................................................................

 iter      E             dE          RMSdq      gap      omega  full diag
   1   -400.7365832 -0.400737E+03  0.633E-03    0.07       0.0  T
   2   -400.7365323  0.509453E-04  0.875E-03    0.07       1.0  T
   3   -400.7364115  0.120785E-03  0.146E-02    0.08       1.0  T
   4   -400.7365747 -0.163218E-03  0.338E-03    0.07       2.1  T
   5   -400.7365829 -0.822956E-05  0.113E-03    0.07       6.2  T
   6   -400.7365838 -0.870671E-06  0.334E-04    0.07      20.9  T
   7   -400.7365839 -0.588039E-07  0.142E-04    0.07      49.0  T
     SCC iter.                  ...        0 min,  1.219 sec
     gradient                   ...        0 min,  0.454 sec
 * total energy  :  -393.3378965 Eh     change       -0.4467897E-05 Eh
   gradient norm :     0.0007216 Eh/α   predicted     0.0000000E+00 (-100.00%)
   displ. norm   :     0.0114554 α      lambda       -0.1034103E-05
   maximum displ.:     0.0046566 α      in ANC's #13, #4, #5, ...

   *** GEOMETRY OPTIMIZATION CONVERGED AFTER 21 ITERATIONS ***

------------------------------------------------------------------------
 total energy gain   :        -0.0318314 Eh      -19.9745 kcal/mol
 total RMSD          :         0.1793570 a0        0.0949 Å
 total power (kW/mol):        -3.9796846 (step)   -1.8160 (real)
------------------------------------------------------------------------

 ANCopt (total)                0 d,  0 h,  0 min, 46.021 sec
 optimizer setup                ...        0 min,  0.004 sec (  0.009%)
 model hessian                  ...        0 min,  0.437 sec (  0.950%)
 ANC generation                 ...        0 min,  0.187 sec (  0.406%)
 coordinate transformation      ...        0 min,  0.009 sec (  0.020%)
 single point calculation       ...        0 min, 45.295 sec ( 98.422%)
 optimization log               ...        0 min,  0.056 sec (  0.122%)
 hessian update                 ...        0 min,  0.010 sec (  0.022%)
 rational function              ...        0 min,  0.014 sec (  0.030%)

================
 final structure:
================
206
 xtb: 6.7.1pre (5071a88)
C          -10.07011932726416       -8.27641992418887       -0.10841101073129
C           -9.41779815427559       -9.50436920652263       -0.10871729595480
C           -8.04623369182147       -9.58415876515718       -0.08373551664865
C           -7.25182058286258       -8.42341845022635       -0.05788129031896
N           -9.93199036891455       -5.88223237871439       -0.09123185181627
C           -9.32294635960658       -7.11214369728239       -0.08970177039848
C           -7.91038269266837       -7.17517910500860       -0.06898807141855
C           -7.15802326490510       -5.97496060010456       -0.05822207853774
C           -9.92548999436639       -3.48409799374736       -0.06395335514852
C           -9.25377652693706       -4.69165542483532       -0.07144056192975
C           -7.84017688348128       -4.73137103589999       -0.05869027715938
C           -7.11674023744682       -3.52086459409478       -0.04527810177302
C           -9.84732608618721       -1.01867545058449       -0.02520713402492
C           -9.22341002350423       -2.27241482808216       -0.04305165266154
C           -7.80193472158923       -2.28665220495628       -0.03678964076138
C           -7.07477963484654       -1.07672250938940       -0.02144369775172
C           -9.79883402859318        1.40700170475542        0.02520240746666
C           -9.12798300834054        0.16512431785020       -0.00295331549566
N           -7.74142319077662        0.13747150769953       -0.00624162282564
C           -7.02600306835650        1.32520878159738        0.00689211518698
N           -9.73846322214825        3.80722351355136        0.07790825021989
C           -9.11412250593269        2.59821131107770        0.04494298467524
C           -7.69306552414774        2.55921584816553        0.03046776278912
C           -6.96489604985178        3.77637174205480        0.04164840954761
C           -9.75413575517092        6.21292637122419        0.13464697450953
C           -9.07728241476807        5.02232452180378        0.09558601295733
C           -7.65940137858296        5.00291180397959        0.07272716240205
C           -6.94791247541737        6.22322282165225        0.08490655155427
C           -9.74084491314431        8.67242868076743        0.19655185666920
C           -9.06141305378357        7.44944299736329        0.15210520134908
C           -7.64091104501837        7.45319478917610        0.12452071137460
C           -6.92484206944989        8.68412196054057        0.13965978401774
C           -9.03986886191229        9.86372206184787        0.21289366502970
C           -7.66069604066289        9.88235401893339        0.18472338549021
C           -5.81737349406895       -8.45117773700409       -0.02606153896977
C           -5.11180468006973       -9.67616223379038        0.04226201538382
C           -3.75541043126602       -9.67585358167771        0.03021515318447
C           -3.00046191471530       -8.49031574507897       -0.04900404347645
C           -5.75319293655928       -6.01523294930012       -0.04974898204233
C           -5.06805005358180       -7.25836012389323       -0.04126831595453
N           -3.67793208804182       -7.27351318481098       -0.04156896830619
C           -2.95781860357638       -6.09071248499376       -0.03649022089270
C           -5.70503572928102       -3.56164208012305       -0.03897645706041
C           -5.02834688190185       -4.79769357150563       -0.04281069712379
C           -3.62352245622482       -4.84504792273312       -0.03373806543197
C           -2.88814569322718       -3.62797500628706       -0.02177692720032
C           -5.67065943000022       -1.12008331752360       -0.02036467994484
C           -4.97833396457542       -2.35321934582187       -0.02782807422556
C           -3.56364072922414       -2.38910226083128       -0.02112212946690
C           -2.82562748780149       -1.17593596792097       -0.01298646828581
C           -5.61848764526175        1.31212553009183       -0.00040441838787
C           -4.91943283249651        0.08381532801539       -0.01140728681123
C           -3.52606148549361        0.05519141613283       -0.01078014995936
C           -2.77745360763716        1.26136299784579       -0.00670368075787
C           -5.55917546784623        3.75707281164428        0.02455538839881
C           -4.88329244715529        2.52171581192805        0.00617899008277
C           -3.46761431338903        2.49932731730830       -0.00167462066239
C           -2.75018985081578        3.71197099634347       -0.00182463796913
C           -5.53482495252060        6.19881853462398        0.05890232417395
C           -4.83322347533086        4.97573940952854        0.02971141622339
C           -3.42513802574254        4.95227079647128        0.01043858811827
C           -2.69896088124753        6.17465887216409        0.00736166234922
C           -5.50548727118562        8.63505548243039        0.10867962414060
C           -4.81319847379505        7.41322111418978        0.06699896544822
C           -3.39446920588602        7.38040989796621        0.03375353004113
C           -2.66105337858167        8.61456882066058        0.02940116013683
N           -4.74818805504114        9.78023719615263        0.12331924762615
C           -3.38720249469662        9.78118216931101        0.08421726976644
C           -1.58820795155416       -8.53683527222189       -0.10535348840873
C           -0.86107171766794       -9.74054087497115       -0.22765860514692
C            0.50386445756417       -9.76486286971207       -0.20275792421446
C            1.26730986149796       -8.58954304335644       -0.05723521002251
C           -1.54160172167779       -6.10063296669554       -0.02553604217568
C           -0.84086280428929       -7.33172895005465       -0.05290716192203
C            0.56233781640562       -7.35896018427236       -0.03250407550519
C            1.30471772916337       -6.15640687781048        0.00865085540658
C           -1.48077469185417       -3.64291230689721       -0.00783075634513
C           -0.80368654123830       -4.89281136076577       -0.00592641490556
C            0.61158820022660       -4.92662822624129        0.00841521961594
C            1.33540266948566       -3.70520942968730        0.01448285906517
C           -1.42248031752561       -1.18878586113013       -0.00612090790918
C           -0.75494990472608       -2.42935184318302       -0.00064141841689
C            0.66353312388682       -2.47551746777825        0.00832294213209
C            1.37478156987480       -1.25316931301236        0.00630555347282
C           -1.37575325393128        1.22345665734651       -0.00682683588553
N           -0.70647876507242        0.00729923047753       -0.00443438295608
C            0.68382177939016       -0.02159577688384       -0.00115447018969
C            1.41677046966225        1.17564160066426       -0.00606193991322
C           -1.33933151914630        3.68387177779546       -0.00962520008957
C           -0.66079641033628        2.44589055952230       -0.00969459021684
C            0.75519430576837        2.42735816607166       -0.01224627458168
C            1.48000532192657        3.62618899297035       -0.02106284464172
C           -1.26645657016577        6.15579464744545       -0.01478123586351
C           -0.60642749655127        4.90759958120405       -0.01726609377397
C            0.80092500017766        4.86418840133691       -0.02673640990916
C            1.51792721595022        6.08540553454846       -0.04433476004287
C           -1.22683526163502        8.55860048488086       -0.03189680672386
N           -0.55965570576772        7.33420686205192       -0.03346342859630
C            0.82978191263206        7.31385021698161       -0.05583491896694
C            1.58514042543830        8.52390340697711       -0.09250909283906
C           -0.48135544210011        9.73776231925745       -0.09896611017458
C            0.88237780545401        9.74950830542835       -0.13039162548293
C            2.68143007133894       -8.59312756847950        0.04687763009420
C            3.38468595973775       -9.80088840965224        0.18196472166243
C            4.74432186164299       -9.84967552331043        0.21975323427247
C            5.49503724996253       -8.66290551747201        0.12263510590031
C            2.72641272058844       -6.19634315490602        0.02541361603236
N            3.40209889887558       -7.40531771026850        0.04768470066946
C            4.79265746273296       -7.44127422336252        0.07234413804007
C            5.52644435336451       -6.22768817861765        0.05710007478728
C            2.74869161512388       -3.73858270732966        0.01953668699305
C            3.43549801246335       -4.98173062084935        0.02739765791859
C            4.85042704904283       -4.99259522320012        0.03809058891574
C            5.56977441264195       -3.78179252545684        0.03520711711586
C            2.78913582270351       -1.28316537061419        0.01011641419838
C            3.46590795833166       -2.52598166425551        0.01777604563610
C            4.88292622994906       -2.54225442798846        0.02334804610321
C            5.60849960463985       -1.34580108496241        0.01893790302023
C            2.83568397603934        1.14809940592357       -0.00453856577617
C            3.52407866228653       -0.07466227273837        0.00468888392649
C            4.94319104016814       -0.09714121206579        0.00795590864170
C            5.68133007329767        1.09686256756287        0.00011107364226
C            2.90086322497216        3.59662332369658       -0.02451453655763
C            3.57248915891069        2.35602054517348       -0.01369912418195
C            4.98706112467339        2.32741763220852       -0.01263735043336
C            5.70128614288549        3.54679559273282       -0.02521543807285
C            2.93825871196380        6.04818142312889       -0.05307232246010
C            3.61950993672954        4.80592586806876       -0.03912196108364
C            5.03168004326512        4.77882832300819       -0.04053946396979
C            5.77285025954206        5.99261302840901       -0.05716327850698
C            2.99429126822783        8.46572905620794       -0.09608676937666
C            3.68293886572670        7.24289914720217       -0.07416556570215
C            5.10706077117037        7.21421266431194       -0.07583404561925
C            5.83905797326585        8.45320442619474       -0.09701441372940
N            3.75361305559440        9.61539373828536       -0.11870798095918
C            5.10973388111200        9.61220802486594       -0.11907466928680
C            6.93746727373272       -8.69190708541971        0.10236433835754
C            7.66926645760906       -9.88223292315372        0.09156024594983
C            9.05384675304542       -9.86979428517232        0.08289109627914
C            9.75456826759239       -8.68418678137483        0.08384192981890
C            6.94649145705439       -6.24607246448571        0.07068303897441
C            7.65186525823181       -7.47125062179723        0.08528884528801
C            9.07182516481423       -7.46200226593122        0.08181810948291
C            9.76362453754695       -6.22744155753506        0.07423199633336
C            6.97411806915208       -3.79956948945953        0.04527488893890
C            7.65992034480860       -5.03045113822010        0.06119671227936
C            9.08351115718828       -5.03935898263212        0.06619073703600
N            9.74269057995782       -3.82803119221050        0.05972273142608
C            7.02349268785989       -1.35016753381245        0.02522047686073
C            7.70436282317523       -2.58370903418644        0.03906256379044
C            9.11558175064966       -2.60914062438786        0.04668993022477
C            9.81541275700122       -1.41907852727811        0.03990651283644
N            7.06646796594110        1.07166012364521        0.00409663064271
C            7.74301997004891       -0.13967263080875        0.01820810716489
C            9.15386308200466       -0.18012331779791        0.02525116846262
C            9.87520573627192        1.03840529893513        0.01642393765379
C            7.11460805007210        3.49453964830161       -0.02223184336100
C            7.77457656407277        2.26153794303125       -0.00603069669587
C            9.19851427288108        2.23026594672439        0.00011186113628
N            9.86862775184776        3.42665129765314       -0.01038174087853
C            7.19665212744801        5.94951752792876       -0.05494285550582
C            7.85354267404497        4.71243958394990       -0.03580041346538
C            9.26960708198247        4.66773397848766       -0.03030218775666
C           10.00053019422435        5.82666549277925       -0.04407967288062
C            7.28958511083878        8.41687959503556       -0.09349323764732
C            7.94235298006468        7.15666840586350       -0.07132990708330
C            9.36089624630702        7.08746566288499       -0.06561955666540
C           10.10089024243697        8.28004450975695       -0.08187530608957
C            8.07180398018010        9.56698067078349       -0.10989973049465
C            9.45901382775958        9.49415781990462       -0.10394838892909
H          -11.14904684358510       -8.22717440856064       -0.12509322254936
H          -10.00469633817579      -10.41080611765863       -0.12917590250379
H           -7.59127773477646      -10.56018099166532       -0.09078853169133
H          -10.94148389862380       -5.85459566885549       -0.10414916744330
H          -11.00581243280239       -3.46691016264634       -0.07234668173916
H          -10.92369230307051       -0.96001367454522       -0.02548896910533
H          -10.87701614215785        1.39104719199658        0.03224039396848
H          -10.74834638561613        3.82204048991448        0.09135759711906
H          -10.83505422933566        6.22464483576062        0.15385669862957
H          -10.82069208597587        8.67684881796458        0.21871010884675
H           -5.64074993161731      -10.60955673357816        0.11414484797319
H           -3.23176962651050      -10.61246295028658        0.09604807897906
H           -1.37606461950143      -10.67656065986806       -0.36398856882932
H            0.99046555281852      -10.71871450671807       -0.32139695299427
H            2.82512027099461      -10.71471005419377        0.26970448268673
H            5.23285878715649      -10.80098480571958        0.33433416222397
H            7.17179101553841      -10.83800814440624        0.08199510249963
H            9.58899970174743      -10.80887575473590        0.07511578091834
H           10.83482111774822       -8.68538782092165        0.08133514920456
H           10.84454257581858       -6.23784254256599        0.07398975496712
H           10.75209183911769       -3.84494650071460        0.06350863823023
H           10.89551926377846       -1.42642261197408        0.04530050407562
H           10.95374339250385        1.01750696393033        0.02172302915364
H           10.87737334701988        3.39134100392410       -0.00591412761118
H           11.08083423216919        5.79008446620861       -0.03925457811801
H           11.18005508349074        8.22904075402479       -0.07704872920515
H           10.03530487671121       10.40848363493003       -0.11683073442378
H           -9.58087481294950       10.79916949478614        0.24818783985550
H           -7.15927884975903       10.84035284660891        0.19857258702171
H           -5.22893397878106       10.66450437700450        0.15698737353446
H           -2.94213357699150       10.76051346179512        0.10301435613796
H           -1.00727621207923       10.67507228747023       -0.12842082299063
H            1.39583823144795       10.69556094714895       -0.18574196114981
H            3.27497317484690       10.50137770123373       -0.13613674986874
H            5.56486751038975       10.58851583687272       -0.13732934332214
H            7.61165138390229       10.54231788154341       -0.12728119171927
 
 Bond Distances (Angstroems)
 ---------------------------
C1-C2=1.3905         C1-C6=1.3835         C1-H171=1.0802       C2-C1=1.3905         C2-C3=1.3741         C2-H172=1.0800       
C3-C2=1.3741         C3-C4=1.4068         C3-H173=1.0769       C4-C3=1.4068         C4-C7=1.4114         C4-C35=1.4351        
N5-C6=1.3725         N5-C10=1.3703        N5-H174=1.0100       C6-C1=1.3835         C6-N5=1.3725         C6-C7=1.4141         
C7-C4=1.4114         C7-C6=1.4141         C7-C8=1.4166         C8-C7=1.4166         C8-C11=1.4184        C8-C39=1.4054        
C9-C10=1.3818        C9-C14=1.4005        C9-H175=1.0805       C10-N5=1.3703        C10-C9=1.3818        C10-C11=1.4142       
C11-C8=1.4184        C11-C10=1.4142       C11-C12=1.4103       C12-C11=1.4103       C12-C15=1.4117       C12-C43=1.4123       
C13-C14=1.4005       C13-C18=1.3854       C13-H176=1.0780      C14-C9=1.4005        C14-C13=1.4005       C14-C15=1.4216       
C15-C12=1.4117       C15-C14=1.4216       C15-C16=1.4117       C16-C15=1.4117       C16-N19=1.3852       C16-C47=1.4048       
C17-C18=1.4118       C17-C22=1.3741       C17-H177=1.0783      C18-C13=1.3854       C18-C17=1.4118       C18-N19=1.3868       
N19-C16=1.3852       N19-C18=1.3868       N19-C20=1.3866       C20-N19=1.3866       C20-C23=1.4030       C20-C51=1.4076       
N21-C22=1.3611       N21-C26=1.3835       N21-H178=1.0101      C22-C17=1.3741       C22-N21=1.3611       C22-C23=1.4217       
C23-C20=1.4030       C23-C22=1.4217       C23-C24=1.4184       C24-C23=1.4184       C24-C27=1.4099       C24-C55=1.4060       
C25-C26=1.3701       C25-C30=1.4174       C25-H179=1.0812      C26-N21=1.3835       C26-C25=1.3701       C26-C27=1.4182       
C27-C24=1.4099       C27-C26=1.4182       C27-C28=1.4126       C28-C27=1.4126       C28-C31=1.4123       C28-C59=1.4135       
C29-C30=1.3997       C29-C33=1.3823       C29-H180=1.0801      C30-C25=1.4174       C30-C29=1.3997       C30-C31=1.4208       
C31-C28=1.4123       C31-C30=1.4208       C31-C32=1.4241       C32-C31=1.4241       C32-C34=1.4069       C32-C63=1.4205       
C33-C29=1.3823       C33-C34=1.3796       C33-H198=1.0812      C34-C32=1.4069       C34-C33=1.3796       C34-H199=1.0814      
C35-C4=1.4351        C35-C36=1.4153       C35-C40=1.4087       C36-C35=1.4153       C36-C37=1.3564       C36-H181=1.0753      
C37-C36=1.3564       C37-C38=1.4077       C37-H182=1.0751      C38-C37=1.4077       C38-N41=1.3927       C38-C69=1.4141       
C39-C8=1.4054        C39-C40=1.4195       C39-C44=1.4170       C40-C35=1.4087       C40-C39=1.4195       C40-N41=1.3902       
N41-C38=1.3927       N41-C40=1.3902       N41-C42=1.3848       C42-N41=1.3848       C42-C45=1.4124       C42-C73=1.4163       
C43-C12=1.4123       C43-C44=1.4092       C43-C48=1.4101       C44-C39=1.4170       C44-C43=1.4092       C44-C45=1.4057       
C45-C42=1.4124       C45-C44=1.4057       C45-C46=1.4220       C46-C45=1.4220       C46-C49=1.4111       C46-C77=1.4075       
C47-C16=1.4048       C47-C48=1.4142       C47-C52=1.4191       C48-C43=1.4101       C48-C47=1.4142       C48-C49=1.4152       
C49-C46=1.4111       C49-C48=1.4152       C49-C50=1.4200       C50-C49=1.4200       C50-C53=1.4164       C50-C81=1.4032       
C51-C20=1.4076       C51-C52=1.4133       C51-C56=1.4155       C52-C47=1.4191       C52-C51=1.4133       C52-C53=1.3937       
C53-C50=1.4164       C53-C52=1.3937       C53-C54=1.4196       C54-C53=1.4196       C54-C57=1.4174       C54-C85=1.4022       
C55-C24=1.4060       C55-C56=1.4083       C55-C60=1.4185       C56-C51=1.4155       C56-C55=1.4083       C56-C57=1.4159       
C57-C54=1.4174       C57-C56=1.4159       C57-C58=1.4090       C58-C57=1.4090       C58-C61=1.4121       C58-C89=1.4112       
C59-C28=1.4135       C59-C60=1.4103       C59-C64=1.4127       C60-C55=1.4185       C60-C59=1.4103       C60-C61=1.4084       
C61-C58=1.4121       C61-C60=1.4084       C61-C62=1.4218       C62-C61=1.4218       C62-C65=1.3922       C62-C93=1.4328       
C63-C32=1.4205       C63-C64=1.4049       C63-N67=1.3730       C64-C59=1.4127       C64-C63=1.4049       C64-C65=1.4195       
C65-C62=1.3922       C65-C64=1.4195       C65-C66=1.4356       C66-C65=1.4356       C66-C68=1.3752       C66-C97=1.4366       
N67-C63=1.3730       N67-C68=1.3615       N67-H200=1.0071      C68-C66=1.3752       C68-N67=1.3615       C68-H201=1.0759      
C69-C38=1.4141       C69-C70=1.4116       C69-C74=1.4190       C70-C69=1.4116       C70-C71=1.3654       C70-H183=1.0770      
C71-C70=1.3654       C71-C72=1.4090       C71-H184=1.0774      C72-C71=1.4090       C72-C75=1.4184       C72-C103=1.4180      
C73-C42=1.4163       C73-C74=1.4168       C73-C78=1.4155       C74-C69=1.4190       C74-C73=1.4168       C74-C75=1.4036       
C75-C72=1.4184       C75-C74=1.4036       C75-C76=1.4138       C76-C75=1.4138       C76-C79=1.4117       C76-C107=1.4224      
C77-C46=1.4075       C77-C78=1.4215       C77-C82=1.4141       C78-C73=1.4155       C78-C77=1.4215       C78-C79=1.4158       
C79-C76=1.4117       C79-C78=1.4158       C79-C80=1.4198       C80-C79=1.4198       C80-C83=1.4013       C80-C111=1.4137      
C81-C50=1.4032       C81-C82=1.4088       C81-N86=1.3940       C82-C77=1.4141       C82-C81=1.4088       C82-C83=1.4193       
C83-C80=1.4013       C83-C82=1.4193       C83-C84=1.4142       C84-C83=1.4142       C84-C87=1.4122       C84-C115=1.4147      
C85-C54=1.4022       C85-N86=1.3882       C85-C90=1.4162       N86-C81=1.3940       N86-C85=1.3882       N86-C87=1.3906       
C87-C84=1.4122       C87-N86=1.3906       C87-C88=1.4038       C88-C87=1.4038       C88-C91=1.4158       C88-C119=1.4192      
C89-C58=1.4112       C89-C90=1.4117       C89-C94=1.4264       C90-C85=1.4162       C90-C89=1.4117       C90-C91=1.4161       
C91-C88=1.4158       C91-C90=1.4161       C91-C92=1.4009       C92-C91=1.4009       C92-C95=1.4120       C92-C123=1.4212      
C93-C62=1.4328       C93-C94=1.4120       C93-N98=1.3743       C94-C89=1.4264       C94-C93=1.4120       C94-C95=1.4081       
C95-C92=1.4120       C95-C94=1.4081       C95-C96=1.4163       C96-C95=1.4163       C96-C99=1.4081       C96-C127=1.4208      
C97-C66=1.4366       C97-N98=1.3944       C97-C101=1.3967      N98-C93=1.3743       N98-C97=1.3944       N98-C99=1.3898       
C99-C96=1.4081       C99-N98=1.3898       C99-C100=1.4269      C100-C99=1.4269      C100-C102=1.4133     C100-C131=1.4104     
C101-C97=1.3967      C101-C102=1.3641     C101-H202=1.0752     C102-C100=1.4133     C102-C101=1.3641     C102-H203=1.0778     
C103-C72=1.4180      C103-C104=1.4041     C103-N108=1.3893     C104-C103=1.4041     C104-C105=1.3610     C104-H185=1.0751     
C105-C104=1.3610     C105-C106=1.4076     C105-H186=1.0755     C106-C105=1.4076     C106-C109=1.4101     C106-C137=1.4429     
C107-C76=1.4224      C107-N108=1.3852     C107-C112=1.4064     N108-C103=1.3893     N108-C107=1.3852     N108-C109=1.3912     
C109-C106=1.4101     C109-N108=1.3912     C109-C110=1.4183     C110-C109=1.4183     C110-C113=1.4081     C110-C141=1.4202     
C111-C80=1.4137      C111-C112=1.4203     C111-C116=1.4088     C112-C107=1.4064     C112-C111=1.4203     C112-C113=1.4150     
C113-C110=1.4081     C113-C112=1.4150     C113-C114=1.4084     C114-C113=1.4084     C114-C117=1.4172     C114-C145=1.4045     
C115-C84=1.4147      C115-C116=1.4152     C115-C120=1.4144     C116-C111=1.4088     C116-C115=1.4152     C116-C117=1.4171     
C117-C114=1.4172     C117-C116=1.4171     C117-C118=1.3993     C118-C117=1.3993     C118-C121=1.4149     C118-C149=1.4150     
C119-C88=1.4192      C119-C120=1.4033     C119-C124=1.4149     C120-C115=1.4144     C120-C119=1.4033     C120-C121=1.4193     
C121-C118=1.4149     C121-C120=1.4193     C121-C122=1.4038     C122-C121=1.4038     C122-C125=1.4130     C122-N153=1.3854     
C123-C92=1.4212      C123-C124=1.4108     C123-C128=1.4068     C124-C119=1.4149     C124-C123=1.4108     C124-C125=1.4149     
C125-C122=1.4130     C125-C124=1.4149     C125-C126=1.4132     C126-C125=1.4132     C126-C129=1.4023     C126-C157=1.4143     
C127-C96=1.4208      C127-C128=1.4169     C127-C132=1.4080     C128-C123=1.4068     C128-C127=1.4169     C128-C129=1.4124     
C129-C126=1.4023     C129-C128=1.4124     C129-C130=1.4223     C130-C129=1.4223     C130-C133=1.3914     C130-C161=1.4245     
C131-C100=1.4104     C131-C132=1.4036     C131-N135=1.3780     C132-C127=1.4080     C132-C131=1.4036     C132-C133=1.4244     
C133-C130=1.3914     C133-C132=1.4244     C133-C134=1.4392     C134-C133=1.4392     C134-C136=1.3696     C134-C165=1.4510     
N135-C131=1.3780     N135-C136=1.3561     N135-H204=1.0072     C136-C134=1.3696     C136-N135=1.3561     C136-H205=1.0773     
C137-C106=1.4429     C137-C138=1.3973     C137-C142=1.4144     C138-C137=1.3973     C138-C139=1.3847     C138-H187=1.0775     
C139-C138=1.3847     C139-C140=1.3772     C139-H188=1.0809     C140-C139=1.3772     C140-C143=1.4000     C140-H189=1.0803     
C141-C110=1.4202     C141-C142=1.4138     C141-C146=1.4095     C142-C137=1.4144     C142-C141=1.4138     C142-C143=1.4200     
C143-C140=1.4000     C143-C142=1.4200     C143-C144=1.4152     C144-C143=1.4152     C144-C147=1.3690     C144-H190=1.0810     
C145-C114=1.4045     C145-C146=1.4091     C145-C150=1.4183     C146-C141=1.4095     C146-C145=1.4091     C146-C147=1.4236     
C147-C144=1.3690     C147-C146=1.4236     C147-N148=1.3791     N148-C147=1.3791     N148-C151=1.3708     N148-H191=1.0096     
C149-C118=1.4150     C149-C150=1.4090     C149-C154=1.4082     C150-C145=1.4183     C150-C149=1.4090     C150-C151=1.4115     
C151-N148=1.3708     C151-C150=1.4115     C151-C152=1.3806     C152-C151=1.3806     C152-C155=1.4046     C152-H192=1.0801     
N153-C122=1.3854     N153-C154=1.3875     N153-C158=1.3847     C154-C149=1.4082     C154-N153=1.3875     C154-C155=1.4114     
C155-C152=1.4046     C155-C154=1.4114     C155-C156=1.4161     C156-C155=1.4161     C156-C159=1.3707     C156-H193=1.0788     
C157-C126=1.4143     C157-C158=1.3986     C157-C162=1.4246     C158-N153=1.3847     C158-C157=1.3986     C158-C159=1.4243     
C159-C156=1.3707     C159-C158=1.4243     C159-N160=1.3713     N160-C159=1.3713     N160-C163=1.3782     N160-H194=1.0094     
C161-C130=1.4245     C161-C162=1.4008     C161-C166=1.4190     C162-C157=1.4246     C162-C161=1.4008     C162-C163=1.4168     
C163-N160=1.3782     C163-C162=1.4168     C163-C164=1.3702     C164-C163=1.3702     C164-C167=1.4139     C164-H195=1.0809     
C165-C134=1.4510     C165-C166=1.4194     C165-C169=1.3910     C166-C161=1.4190     C166-C165=1.4194     C166-C167=1.4202     
C167-C164=1.4139     C167-C166=1.4202     C167-C168=1.4036     C168-C167=1.4036     C168-C170=1.3735     C168-H196=1.0804     
C169-C165=1.3910     C169-C170=1.3891     C169-H206=1.0786     C170-C168=1.3735     C170-C169=1.3891     C170-H197=1.0809     
H171-C1=1.0802       H172-C2=1.0800       H173-C3=1.0769       H174-N5=1.0100       H175-C9=1.0805       H176-C13=1.0780      
H177-C17=1.0783      H178-N21=1.0101      H179-C25=1.0812      H180-C29=1.0801      H181-C36=1.0753      H182-C37=1.0751      
H183-C70=1.0770      H184-C71=1.0774      H185-C104=1.0751     H186-C105=1.0755     H187-C138=1.0775     H188-C139=1.0809     
H189-C140=1.0803     H190-C144=1.0810     H191-N148=1.0096     H192-C152=1.0801     H193-C156=1.0788     H194-N160=1.0094     
H195-C164=1.0809     H196-C168=1.0804     H197-C170=1.0809     H198-C33=1.0812      H199-C34=1.0814      H200-N67=1.0071      
H201-C68=1.0759      H202-C101=1.0752     H203-C102=1.0778     H204-N135=1.0072     H205-C136=1.0773     H206-C169=1.0786     
 C  H  Rav=1.0786 sigma=0.0021  Rmin=1.0751  Rmax=1.0814    30
 C  C  Rav=1.4091 sigma=0.0148  Rmin=1.3564  Rmax=1.4510   207
 N  H  Rav=1.0089 sigma=0.0013  Rmin=1.0071  Rmax=1.0101     6
 N  C  Rav=1.3812 sigma=0.0101  Rmin=1.3561  Rmax=1.3944    30
 
 selected bond angles (degree)
 --------------------
C6-C1-C2=119.33                H171-C1-C2=120.59              H171-C1-C6=120.08              C3-C2-C1=121.30                
H172-C2-C1=119.09              H172-C2-C3=119.60              C4-C3-C2=121.07                H173-C3-C2=118.31              
H173-C3-C4=120.62              C7-C4-C3=117.78                C35-C4-C3=123.29               C35-C4-C7=118.93               
C10-N5-C6=123.98               H174-N5-C6=117.91              H174-N5-C10=118.11             N5-C6-C1=120.96                
C7-C6-C1=120.14                C7-C6-N5=118.90                C6-C7-C4=120.37                C8-C7-C4=120.10                
C8-C7-C6=119.53                C11-C8-C7=119.17               C39-C8-C7=120.44               C39-C8-C11=120.39              
C14-C9-C10=120.83              H175-C9-C10=119.99             H175-C9-C14=119.18             C9-C10-N5=121.25               
C11-C10-N5=118.06              C11-C10-C9=120.69              
 
 selected dihedral angles (degree)
 ---------------------------------
C3-C2-C1-C6=  0.35            C3-C2-C1-H171=180.19          H172-C2-C1-C6=180.35          H172-C2-C1-H171=  0.20        
C4-C3-C2-C1=359.95            C4-C3-C2-H172=179.95          H173-C3-C2-C1=180.34          H173-C3-C2-H172=  0.33        
C7-C4-C3-C2=359.52            C7-C4-C3-H173=179.12          C35-C4-C3-C2=179.75           C35-C4-C3-H173=359.36         
N5-C6-C1-C2=179.88            N5-C6-C1-H171=  0.03          C7-C6-C1-C2=359.90            C7-C6-C1-H171=180.05          
C1-C6-N5-C10=179.90           C1-C6-N5-H174=  0.15          C7-C6-N5-C10=359.88           C7-C6-N5-H174=180.13          
C6-C7-C4-C3=  0.72            C6-C7-C4-C35=180.49           C8-C7-C4-C3=180.66            C8-C7-C4-C35=  0.44           
C4-C7-C6-C1=359.56            C4-C7-C6-N5=179.58            C8-C7-C6-C1=179.62            C8-C7-C6-N5=359.63            
C11-C8-C7-C4=180.51           C11-C8-C7-C6=  0.45           C39-C8-C7-C4=  0.63           C39-C8-C7-C6=180.57           
C9-C10-N5-C6=180.50           C9-C10-N5-H174=  0.25         C11-C10-N5-C6=  0.49          C11-C10-N5-H174=180.24        
N5-C10-C9-C14=179.97          N5-C10-C9-H175=  0.09         C11-C10-C9-C14=359.97         C11-C10-C9-H175=180.09        
           -------------------------------------------------
          |                Final Singlepoint                |
           -------------------------------------------------

          ...................................................
          :                      SETUP                      :
          :.................................................:
          :  # basis functions                 716          :
          :  # atomic orbitals                 716          :
          :  # shells                          376          :
          :  # electrons                       728          :
          :  max. iterations                   250          :
          :  Hamiltonian                  GFN2-xTB          :
          :  restarted?                      false          :
          :  GBSA solvation                  false          :
          :  PC potential                    false          :
          :  electronic temp.          300.0000000     K    :
          :  accuracy                    1.0000000          :
          :  -> integral cutoff          0.2500000E+02      :
          :  -> integral neglect         0.1000000E-07      :
          :  -> SCF convergence          0.1000000E-05 Eh   :
          :  -> wf. convergence          0.1000000E-03 e    :
          :  Broyden damping             0.4000000          :
          :  net charge                          0          :
          :  unpaired electrons                  0          :
          ...................................................

 iter      E             dE          RMSdq      gap      omega  full diag
   1   -400.7365839 -0.400737E+03  0.728E-05    0.07       0.0  T
   2   -400.7365838  0.560237E-07  0.258E-04    0.07      27.0  T
   3   -400.7365839 -0.273558E-07  0.201E-04    0.07      34.7  T

   *** convergence criteria satisfied after 3 iterations ***

         #    Occupation            Energy/Eh            Energy/eV
      -------------------------------------------------------------
         1        2.0000           -0.6845675             -18.6280
       ...           ...                  ...                  ...
       358        2.0000           -0.3391677              -9.2292
       359        2.0000           -0.3371233              -9.1736
       360        2.0000           -0.3322544              -9.0411
       361        2.0000           -0.3108675              -8.4591
       362        2.0000           -0.2992148              -8.1420
       363        1.9999           -0.2948889              -8.0243
       364        1.6002           -0.2870708              -7.8116 (HOMO)
       365        0.3931           -0.2844157              -7.7393 (LUMO)
       366        0.0068           -0.2803578              -7.6289
       367        0.0000           -0.2755430              -7.4979
       368        0.0000           -0.2712750              -7.3818
       369                         -0.2678895              -7.2896
       ...                                ...                  ...
       716                          0.7959060              21.6577
      -------------------------------------------------------------
                  HL-Gap            0.0026551 Eh            0.0722 eV
             Fermi-level           -0.2857533 Eh           -7.7757 eV

 SCC (total)                   0 d,  0 h,  0 min,  1.120 sec
 SCC setup                      ...        0 min,  0.005 sec (  0.446%)
 Dispersion                     ...        0 min,  0.011 sec (  0.982%)
 classical contributions        ...        0 min,  0.001 sec (  0.089%)
 integral evaluation            ...        0 min,  0.087 sec (  7.768%)
 iterations                     ...        0 min,  0.541 sec ( 48.304%)
 molecular gradient             ...        0 min,  0.456 sec ( 40.714%)
 printout                       ...        0 min,  0.018 sec (  1.607%)

         :::::::::::::::::::::::::::::::::::::::::::::::::::::
         ::                     SUMMARY                     ::
         :::::::::::::::::::::::::::::::::::::::::::::::::::::
         :: total energy            -393.337896462734 Eh    ::
         :: gradient norm              0.000719350716 Eh/a0 ::
         :: HOMO-LUMO gap              0.072248695139 eV    ::
         ::.................................................::
         :: SCC energy              -400.753999667679 Eh    ::
         :: -> isotropic ES            0.038910364153 Eh    ::
         :: -> anisotropic ES          0.033340863596 Eh    ::
         :: -> anisotropic XC          0.110265372334 Eh    ::
         :: -> dispersion             -0.495477535862 Eh    ::
         :: repulsion energy           7.416103204945 Eh    ::
         :: add. restraining           0.000000000000 Eh    ::
         :: total charge              -0.000000000000 e     ::
         :::::::::::::::::::::::::::::::::::::::::::::::::::::

           -------------------------------------------------
          |                Property Printout                |
           -------------------------------------------------

    * Orbital Energies and Occupations

         #    Occupation            Energy/Eh            Energy/eV
      -------------------------------------------------------------
         1        2.0000           -0.6845675             -18.6280
       ...           ...                  ...                  ...
       352        2.0000           -0.3740705             -10.1790
       353        2.0000           -0.3648844              -9.9290
       354        2.0000           -0.3624340              -9.8623
       355        2.0000           -0.3607596              -9.8168
       356        2.0000           -0.3462583              -9.4222
       357        2.0000           -0.3445481              -9.3756
       358        2.0000           -0.3391677              -9.2292
       359        2.0000           -0.3371233              -9.1736
       360        2.0000           -0.3322544              -9.0411
       361        2.0000           -0.3108675              -8.4591
       362        2.0000           -0.2992148              -8.1420
       363        1.9999           -0.2948889              -8.0243
       364        1.6002           -0.2870708              -7.8116 (HOMO)
       365        0.3931           -0.2844157              -7.7393 (LUMO)
[...]
    20   6 C       23   6 C                                       1.4029618
    22   6 C       23   6 C                                       1.4216657
    23   6 C       24   6 C                                       1.4183880
    21   7 N       26   6 C                                       1.3834534
    25   6 C       26   6 C                                       1.3701056
    24   6 C       27   6 C                                       1.4098597
    26   6 C       27   6 C                                       1.4181983
    27   6 C       28   6 C                                       1.4126302
    25   6 C       30   6 C                                       1.4174425
    29   6 C       30   6 C                                       1.3997491
    28   6 C       31   6 C                                       1.4123200
    30   6 C       31   6 C                                       1.4207749
    31   6 C       32   6 C                                       1.4241369
    29   6 C       33   6 C                                       1.3823222
    32   6 C       34   6 C                                       1.4068661
    33   6 C       34   6 C                                       1.3795864
     4   6 C       35   6 C                                       1.4350686
    35   6 C       36   6 C                                       1.4153031
    36   6 C       37   6 C                                       1.3564479
    37   6 C       38   6 C                                       1.4077369
     8   6 C       39   6 C                                       1.4054331
    35   6 C       40   6 C                                       1.4087339
    39   6 C       40   6 C                                       1.4194570
    38   6 C       41   7 N                                       1.3927060
    40   6 C       41   7 N                                       1.3902007
    41   7 N       42   6 C                                       1.3847769
    12   6 C       43   6 C                                       1.4123075
    39   6 C       44   6 C                                       1.4169871
    43   6 C       44   6 C                                       1.4091651
    42   6 C       45   6 C                                       1.4123915
    44   6 C       45   6 C                                       1.4056517
    45   6 C       46   6 C                                       1.4220369
    16   6 C       47   6 C                                       1.4047901
    43   6 C       48   6 C                                       1.4101438
    47   6 C       48   6 C                                       1.4142118
    46   6 C       49   6 C                                       1.4110634
    48   6 C       49   6 C                                       1.4151643
    49   6 C       50   6 C                                       1.4200361
    20   6 C       51   6 C                                       1.4075953
    47   6 C       52   6 C                                       1.4190821
    51   6 C       52   6 C                                       1.4133453
    50   6 C       53   6 C                                       1.4164348
    52   6 C       53   6 C                                       1.3936656
    53   6 C       54   6 C                                       1.4196058
    24   6 C       55   6 C                                       1.4059571
    51   6 C       56   6 C                                       1.4155085
    55   6 C       56   6 C                                       1.4082836
    54   6 C       57   6 C                                       1.4173578
    56   6 C       57   6 C                                       1.4158771
    57   6 C       58   6 C                                       1.4089723
    28   6 C       59   6 C                                       1.4135376
    55   6 C       60   6 C                                       1.4185138
    59   6 C       60   6 C                                       1.4103261
    58   6 C       61   6 C                                       1.4121081
    60   6 C       61   6 C                                       1.4084130
    61   6 C       62   6 C                                       1.4218213
    32   6 C       63   6 C                                       1.4205406
    59   6 C       64   6 C                                       1.4126515
    63   6 C       64   6 C                                       1.4049486
    62   6 C       65   6 C                                       1.3922156
    64   6 C       65   6 C                                       1.4194981
    65   6 C       66   6 C                                       1.4356414 (max)
    63   6 C       67   7 N                                       1.3730105
    66   6 C       68   6 C                                       1.3752398
    67   7 N       68   6 C                                       1.3615476
    38   6 C       69   6 C                                       1.4141432
    69   6 C       70   6 C                                       1.4115924
    70   6 C       71   6 C                                       1.3653801
    71   6 C       72   6 C                                       1.4090432
    42   6 C       73   6 C                                       1.4162941
    69   6 C       74   6 C                                       1.4189986
    73   6 C       74   6 C                                       1.4168211
    72   6 C       75   6 C                                       1.4184258
    74   6 C       75   6 C                                       1.4036133
    75   6 C       76   6 C                                       1.4138446
    46   6 C       77   6 C                                       1.4075195
    73   6 C       78   6 C                                       1.4155341
    77   6 C       78   6 C                                       1.4215133
    76   6 C       79   6 C                                       1.4116602
    78   6 C       79   6 C                                       1.4157515
    79   6 C       80   6 C                                       1.4197917
    50   6 C       81   6 C                                       1.4032229
    77   6 C       82   6 C                                       1.4140731
    81   6 C       82   6 C                                       1.4087694
    80   6 C       83   6 C                                       1.4012813
    82   6 C       83   6 C                                       1.4192625
    83   6 C       84   6 C                                       1.4142184
    54   6 C       85   6 C                                       1.4022129
    81   6 C       86   7 N                                       1.3940161
    85   6 C       86   7 N                                       1.3881546
    84   6 C       87   6 C                                       1.4121809
    86   7 N       87   6 C                                       1.3906048
    87   6 C       88   6 C                                       1.4037862
    58   6 C       89   6 C                                       1.4111598
    85   6 C       90   6 C                                       1.4161626
    89   6 C       90   6 C                                       1.4117393
    88   6 C       91   6 C                                       1.4158093
    90   6 C       91   6 C                                       1.4161144
    91   6 C       92   6 C                                       1.4009370
    62   6 C       93   6 C                                       1.4327998
    89   6 C       94   6 C                                       1.4264350
    93   6 C       94   6 C                                       1.4119617
    92   6 C       95   6 C                                       1.4120287
    94   6 C       95   6 C                                       1.4080538
    95   6 C       96   6 C                                       1.4162533
    93   6 C       98   7 N                                       1.3742533
    97   6 C       98   7 N                                       1.3943712
    96   6 C       99   6 C                                       1.4081026
    98   7 N       99   6 C                                       1.3897669
    99   6 C      100   6 C                                       1.4269340
    97   6 C      101   6 C                                       1.3966608
   100   6 C      102   6 C                                       1.4133004
   101   6 C      102   6 C                                       1.3641460
    72   6 C      103   6 C                                       1.4179523
   103   6 C      104   6 C                                       1.4041026
   104   6 C      105   6 C                                       1.3610357
   105   6 C      106   6 C                                       1.4076324
    76   6 C      107   6 C                                       1.4223547
   103   6 C      108   7 N                                       1.3893368
   107   6 C      108   7 N                                       1.3851598
   106   6 C      109   6 C                                       1.4100532
   108   7 N      109   6 C                                       1.3912420
   109   6 C      110   6 C                                       1.4182620
    80   6 C      111   6 C                                       1.4136921
   107   6 C      112   6 C                                       1.4064458
   111   6 C      112   6 C                                       1.4202753
   110   6 C      113   6 C                                       1.4081249
   112   6 C      113   6 C                                       1.4150113
   113   6 C      114   6 C                                       1.4083723
    84   6 C      115   6 C                                       1.4146776
   111   6 C      116   6 C                                       1.4088307
   115   6 C      116   6 C                                       1.4151579
   114   6 C      117   6 C                                       1.4171648
   116   6 C      117   6 C                                       1.4171228
   117   6 C      118   6 C                                       1.3992774
    88   6 C      119   6 C                                       1.4191817
   115   6 C      120   6 C                                       1.4144435
   119   6 C      120   6 C                                       1.4032530
   118   6 C      121   6 C                                       1.4148880
   120   6 C      121   6 C                                       1.4192943
   121   6 C      122   6 C                                       1.4037650
    92   6 C      123   6 C                                       1.4211698
   119   6 C      124   6 C                                       1.4149345
   123   6 C      124   6 C                                       1.4107778
   122   6 C      125   6 C                                       1.4129537
   124   6 C      125   6 C                                       1.4148616
   125   6 C      126   6 C                                       1.4132086
    96   6 C      127   6 C                                       1.4208462
   123   6 C      128   6 C                                       1.4067976
   127   6 C      128   6 C                                       1.4168617
   126   6 C      129   6 C                                       1.4023238
   128   6 C      129   6 C                                       1.4124309
   129   6 C      130   6 C                                       1.4222810
   100   6 C      131   6 C                                       1.4103558
   127   6 C      132   6 C                                       1.4079575
   131   6 C      132   6 C                                       1.4035774
   130   6 C      133   6 C                                       1.3913771
   132   6 C      133   6 C                                       1.4244119
   131   6 C      135   7 N                                       1.3779733
   134   6 C      136   6 C                                       1.3695583
   135   7 N      136   6 C                                       1.3561247
   137   6 C      138   6 C                                       1.3973270
   138   6 C      139   6 C                                       1.3846634
   139   6 C      140   6 C                                       1.3771990
   110   6 C      141   6 C                                       1.4202312
   137   6 C      142   6 C                                       1.4144464
   141   6 C      142   6 C                                       1.4137989
   140   6 C      143   6 C                                       1.3999563
   142   6 C      143   6 C                                       1.4199944
   143   6 C      144   6 C                                       1.4151977
   114   6 C      145   6 C                                       1.4044924
   141   6 C      146   6 C                                       1.4095412
   145   6 C      146   6 C                                       1.4091303
   144   6 C      147   6 C                                       1.3689994
   146   6 C      147   6 C                                       1.4236276
   147   6 C      148   7 N                                       1.3790847
   118   6 C      149   6 C                                       1.4150139
   145   6 C      150   6 C                                       1.4183134
   149   6 C      150   6 C                                       1.4090425
   148   7 N      151   6 C                                       1.3708136
   150   6 C      151   6 C                                       1.4114688
   151   6 C      152   6 C                                       1.3806004
   122   6 C      153   7 N                                       1.3853730
   149   6 C      154   6 C                                       1.4082141
   153   7 N      154   6 C                                       1.3875335
   152   6 C      155   6 C                                       1.4045900
   154   6 C      155   6 C                                       1.4114406
   155   6 C      156   6 C                                       1.4160599
   126   6 C      157   6 C                                       1.4142909
   153   7 N      158   6 C                                       1.3846768
   157   6 C      158   6 C                                       1.3986116
   156   6 C      159   6 C                                       1.3706603
   158   6 C      159   6 C                                       1.4242944
   159   6 C      160   7 N                                       1.3713134
   130   6 C      161   6 C                                       1.4244558
   157   6 C      162   6 C                                       1.4246014
   161   6 C      162   6 C                                       1.4007976
   160   7 N      163   6 C                                       1.3782268
   162   6 C      163   6 C                                       1.4167807
   163   6 C      164   6 C                                       1.3702412
   161   6 C      166   6 C                                       1.4189968
   165   6 C      166   6 C                                       1.4194118
   164   6 C      167   6 C                                       1.4139353
   166   6 C      167   6 C                                       1.4202419
   167   6 C      168   6 C                                       1.4036025
   165   6 C      169   6 C                                       1.3909955
   168   6 C      170   6 C                                       1.3735225
   169   6 C      170   6 C                                       1.3891329
     1   6 C      171   1 H                                       1.0801797
     2   6 C      172   1 H                                       1.0800445
     3   6 C      173   1 H                                       1.0768724
     5   7 N      174   1 H                                       1.0099545
     9   6 C      175   1 H                                       1.0804919
    13   6 C      176   1 H                                       1.0779637
    17   6 C      177   1 H                                       1.0783232
    21   7 N      178   1 H                                       1.0100815
    25   6 C      179   1 H                                       1.0811528
    29   6 C      180   1 H                                       1.0800836
    36   6 C      181   1 H                                       1.0752561
    37   6 C      182   1 H                                       1.0750679
    70   6 C      183   1 H                                       1.0770036
    71   6 C      184   1 H                                       1.0773528
   104   6 C      185   1 H                                       1.0751196
   105   6 C      186   1 H                                       1.0755402
   138   6 C      187   1 H                                       1.0775341
   139   6 C      188   1 H                                       1.0808901
   140   6 C      189   1 H                                       1.0802565
   144   6 C      190   1 H                                       1.0809682
   148   7 N      191   1 H                                       1.0095502
   152   6 C      192   1 H                                       1.0801450
   156   6 C      193   1 H                                       1.0787532
   160   7 N      194   1 H                                       1.0093734
   164   6 C      195   1 H                                       1.0809341
   168   6 C      196   1 H                                       1.0803803
   170   6 C      197   1 H                                       1.0808650
    33   6 C      198   1 H                                       1.0812008
    34   6 C      199   1 H                                       1.0813755
    67   7 N      200   1 H                                       1.0070645 (min)
    68   6 C      201   1 H                                       1.0758855
   101   6 C      202   1 H                                       1.0751793
   102   6 C      203   1 H                                       1.0778317
   135   7 N      204   1 H                                       1.0071582
   136   6 C      205   1 H                                       1.0773379
   169   6 C      206   1 H                                       1.0785756

 * 4 distinct bonds (by element types)

   Z      Z             #   av. dist./Å        max./Å        min./Å
   1 H    6 C          30     1.0786188     1.0813755     1.0750679
   6 C    6 C         203     1.4084619     1.4356414     1.3564479
   1 H    7 N           6     1.0088637     1.0100815     1.0070645
   6 C    7 N          30     1.3812108     1.3943712     1.3561247


optimized geometry written to: xtbopt.xyz


           -------------------------------------------------
          | TOTAL ENERGY             -393.337896462734 Eh   |
          | GRADIENT NORM               0.000719350716 Eh/α |
          | HOMO-LUMO GAP               0.072248695139 eV   |
           -------------------------------------------------

------------------------------------------------------------------------
 * finished run on 2025/12/08 at 00:38:22.625     
------------------------------------------------------------------------
 total:
 * wall-time:     0 d,  0 h,  0 min, 51.673 sec
 *  cpu-time:     0 d,  0 h,  3 min, 20.969 sec
 * ratio c/w:     3.889 speedup
 SCF:
 * wall-time:     0 d,  0 h,  0 min,  4.338 sec
 *  cpu-time:     0 d,  0 h,  0 min, 17.172 sec
 * ratio c/w:     3.958 speedup
 ANC optimizer:
 * wall-time:     0 d,  0 h,  0 min, 47.151 sec
 *  cpu-time:     0 d,  0 h,  3 min,  3.156 sec
 * ratio c/w:     3.884 speedup

normal termination of xtb
