      -----------------------------------------------------------      
     |                   =====================                   |     
     |                           x T B                           |     
     |                   =====================                   |     
     |                         S. Grimme                         |     
     |          Mulliken Center for Theoretical Chemistry        |     
     |                    University of Bonn                     |     
      -----------------------------------------------------------      

   * xtb version 6.7.1pre (5071a88) compiled by 'Marcel@Raven' on 2024-07-23

   xtb is free software: you can redistribute it and/or modify it under
   the terms of the GNU Lesser General Public License as published by
   the Free Software Foundation, either version 3 of the License, or
   (at your option) any later version.
   
   xtb is distributed in the hope that it will be useful,
   but WITHOUT ANY WARRANTY; without even the implied warranty of
   MERCHANTABILITY or FITNESS FOR A PARTICULAR PURPOSE.  See the
   GNU Lesser General Public License for more details.
   
   Cite this work as:
   * C. Bannwarth, E. Caldeweyher, S. Ehlert, A. Hansen, P. Pracht,
     J. Seibert, S. Spicher, S. Grimme, WIREs Comput. Mol. Sci., 2020, 11,
     e01493. DOI: 10.1002/wcms.1493
   
   for GFN2-xTB:
   * C. Bannwarth, S. Ehlert and S. Grimme., J. Chem. Theory Comput., 2019,
     15, 1652-1671. DOI: 10.1021/acs.jctc.8b01176
   for GFN1-xTB:
   * S. Grimme, C. Bannwarth, P. Shushkov, J. Chem. Theory Comput., 2017,
     13, 1989-2009. DOI: 10.1021/acs.jctc.7b00118
   for GFN0-xTB:
   * P. Pracht, E. Caldeweyher, S. Ehlert, S. Grimme, ChemRxiv, 2019, preprint.
     DOI: 10.26434/chemrxiv.8326202.v1
   for GFN-FF:
   * S. Spicher and S. Grimme, Angew. Chem. Int. Ed., 2020, 59, 15665-15673.
     DOI: 10.1002/anie.202004239
   
   for ALPB and GBSA implicit solvation:
   * S. Ehlert, M. Stahn, S. Spicher, S. Grimme, J. Chem. Theory Comput.,
     2021, 17, 4250-4261. DOI: 10.1021/acs.jctc.1c00471
   
   for ddCOSMO and CPCM-X implicit solvation:
   * M. Stahn, S. Ehlert, S. Grimme, J. Phys. Chem. A,
     2023, XX, XXXX-XXXX. DOI: 10.1021/acs.jpca.3c04382
   
   for DFT-D4:
   * E. Caldeweyher, C. Bannwarth and S. Grimme, J. Chem. Phys., 2017,
     147, 034112. DOI: 10.1063/1.4993215
   * E. Caldeweyher, S. Ehlert, A. Hansen, H. Neugebauer, S. Spicher,
     C. Bannwarth and S. Grimme, J. Chem. Phys., 2019, 150, 154122.
     DOI: 10.1063/1.5090222
   * E. Caldeweyher, J.-M. Mewes, S. Ehlert and S. Grimme, Phys. Chem. Chem. Phys.
     2020, 22, 8499-8512. DOI: 10.1039/D0CP00502A
   
   for sTDA-xTB:
   * S. Grimme and C. Bannwarth, J. Chem. Phys., 2016, 145, 054103.
     DOI: 10.1063/1.4959605
   
   in the mass-spec context:
   * V. Asgeirsson, C. Bauer and S. Grimme, Chem. Sci., 2017, 8, 4879.
     DOI: 10.1039/c7sc00601b
   * J. Koopman and S. Grimme, ACS Omega 2019, 4, 12, 15120-15133.
     DOI: 10.1021/acsomega.9b02011
   
   for metadynamics refer to:
   * S. Grimme, J. Chem. Theory Comput., 2019, 155, 2847-2862
     DOI: 10.1021/acs.jctc.9b00143
   
   for SPH calculations refer to:
   * S. Spicher and S. Grimme, J. Chem. Theory Comput., 2021, 17, 1701-1714
     DOI: 10.1021/acs.jctc.0c01306
   
   for ONIOM refer to:
   * C. Plett, A. Katbashev, S. Ehlert, S. Grimme, M. Bursch,
     Phys. Chem. Chem. Phys., 2023, 25, 17860-17868. DOI: 10.1039/D3CP02178E
   
   for DIPRO refer to:
   * J. Kohn, N. Gildemeister, S. Grimme, D. Fazzi, A. Hansen,
     J. Chem. Phys., 2023, just accepted.
   
   for PTB refer to:
   * S. Grimme, M. Mueller, A. Hansen, J. Chem. Phys., 2023, 158, 124111.
     DOI: 10.1063/5.0137838
   
   with help from (in alphabetical order)
   P. Atkinson, C. Bannwarth, F. Bohle, G. Brandenburg, E. Caldeweyher
   M. Checinski, S. Dohm, S. Ehlert, S. Ehrlich, I. Gerasimov, C. Hölzer
   A. Katbashev, J. Kohn, J. Koopman, C. Lavigne, S. Lehtola, F. März, M. Müller,
   F. Musil, H. Neugebauer, J. Pisarek, C. Plett, P. Pracht, F. Pultar,
   J. Seibert, P. Shushkov, S. Spicher, M. Stahn, M. Steiner, T. Strunk,
   J. Stückrath, T. Rose, and J. Unsleber
   
 * started run on 2025/12/08 at 00:38:22.660     
   ID    Z sym.   atoms
    1    6 C      1-4, 6-18, 20, 22-40, 42-66, 68-85, 87-97, 99-107, 109-134,
                  136-147, 149-152, 154-159, 161-170
    2    7 N      5, 19, 21, 41, 67, 86, 98, 108, 135, 148, 153, 160
    3    1 H      171-206

           -------------------------------------------------
          |                Calculation Setup                |
           -------------------------------------------------

          program call               : xtb "C:\Users\LENOVO GAMING\Documents\GitHub\molecular-conductivity-sim\results\2nm-12Ndoped-7percent\xtbopt.xyz" --sp
          coordinate file            : C:\Users\LENOVO GAMING\Documents\GitHub\molecular-conductivity-sim\results\2nm-12Ndoped-7percent\xtbopt.xyz
          omp threads                :                    16


           -------------------------------------------------
          |                 G F N 2 - x T B                 |
           -------------------------------------------------

        Reference                      10.1021/acs.jctc.8b01176
      * Hamiltonian:
        H0-scaling (s, p, d)           1.850000    2.230000    2.230000
        zeta-weighting                 0.500000
      * Dispersion:
        s8                             2.700000
        a1                             0.520000
        a2                             5.000000
        s9                             5.000000
      * Repulsion:
        kExp                           1.500000    1.000000
        rExp                           1.000000
      * Coulomb:
        alpha                          2.000000
        third order                    shell-resolved
        anisotropic                    true
        a3                             3.000000
        a5                             4.000000
        cn-shift                       1.200000
        cn-exp                         4.000000
        max-rad                        5.000000

q/qsh data taken from xtbrestart
CAMM data taken from xtbrestart

          ...................................................
          :                      SETUP                      :
          :.................................................:
          :  # basis functions                 716          :
          :  # atomic orbitals                 716          :
          :  # shells                          376          :
          :  # electrons                       728          :
          :  max. iterations                   250          :
          :  Hamiltonian                  GFN2-xTB          :
          :  restarted?                       true          :
          :  GBSA solvation                  false          :
          :  PC potential                    false          :
          :  electronic temp.          300.0000000     K    :
          :  accuracy                    1.0000000          :
          :  -> integral cutoff          0.2500000E+02      :
          :  -> integral neglect         0.1000000E-07      :
          :  -> SCF convergence          0.1000000E-05 Eh   :
          :  -> wf. convergence          0.1000000E-03 e    :
          :  Broyden damping             0.4000000          :
          :  net charge                          0          :
          :  unpaired electrons                  0          :
          ...................................................

 iter      E             dE          RMSdq      gap      omega  full diag
   1   -400.7365839 -0.400737E+03  0.257E-05    0.07       0.0  T
   2   -400.7365839  0.358017E-08  0.697E-05    0.07      99.9  T
   3   -400.7365839 -0.359262E-08  0.201E-05    0.07     346.0  T

   *** convergence criteria satisfied after 3 iterations ***

         #    Occupation            Energy/Eh            Energy/eV
      -------------------------------------------------------------
         1        2.0000           -0.6845671             -18.6280
       ...           ...                  ...                  ...
       358        2.0000           -0.3391662              -9.2292
       359        2.0000           -0.3371232              -9.1736
       360        2.0000           -0.3322551              -9.0411
       361        2.0000           -0.3108672              -8.4591
       362        2.0000           -0.2992151              -8.1421
       363        1.9999           -0.2948889              -8.0243
       364        1.5998           -0.2870696              -7.8116 (HOMO)
       365        0.3935           -0.2844168              -7.7394 (LUMO)
       366        0.0068           -0.2803583              -7.6289
       367        0.0000           -0.2755427              -7.4979
       368        0.0000           -0.2712744              -7.3818
       369                         -0.2678903              -7.2897
       ...                                ...                  ...
       716                          0.7959065              21.6577
      -------------------------------------------------------------
                  HL-Gap            0.0026528 Eh            0.0722 eV
             Fermi-level           -0.2857532 Eh           -7.7757 eV

 SCC (total)                   0 d,  0 h,  0 min,  0.700 sec
 SCC setup                      ...        0 min,  0.002 sec (  0.286%)
 Dispersion                     ...        0 min,  0.023 sec (  3.286%)
 classical contributions        ...        0 min,  0.000 sec (  0.000%)
 integral evaluation            ...        0 min,  0.050 sec (  7.143%)
 iterations                     ...        0 min,  0.438 sec ( 62.571%)
 molecular gradient             ...        0 min,  0.175 sec ( 25.000%)
 printout                       ...        0 min,  0.012 sec (  1.714%)

         :::::::::::::::::::::::::::::::::::::::::::::::::::::
         ::                     SUMMARY                     ::
         :::::::::::::::::::::::::::::::::::::::::::::::::::::
         :: total energy            -393.337896494053 Eh    ::
         :: gradient norm              0.000720505031 Eh/a0 ::
         :: HOMO-LUMO gap              0.072185508494 eV    ::
         ::.................................................::
         :: SCC energy              -400.753999698998 Eh    ::
         :: -> isotropic ES            0.038906233502 Eh    ::
         :: -> anisotropic ES          0.033340962789 Eh    ::
         :: -> anisotropic XC          0.110265078895 Eh    ::
         :: -> dispersion             -0.495477606661 Eh    ::
         :: repulsion energy           7.416103204945 Eh    ::
         :: add. restraining           0.000000000000 Eh    ::
         :: total charge              -0.000000000000 e     ::
         :::::::::::::::::::::::::::::::::::::::::::::::::::::

           -------------------------------------------------
          |                Property Printout                |
           -------------------------------------------------

    * Orbital Energies and Occupations

         #    Occupation            Energy/Eh            Energy/eV
      -------------------------------------------------------------
         1        2.0000           -0.6845671             -18.6280
       ...           ...                  ...                  ...
       352        2.0000           -0.3740704             -10.1790
       353        2.0000           -0.3648854              -9.9290
       354        2.0000           -0.3624338              -9.8623
       355        2.0000           -0.3607594              -9.8168
       356        2.0000           -0.3462586              -9.4222
       357        2.0000           -0.3445483              -9.3756
       358        2.0000           -0.3391662              -9.2292
       359        2.0000           -0.3371232              -9.1736
       360        2.0000           -0.3322551              -9.0411
       361        2.0000           -0.3108672              -8.4591
       362        2.0000           -0.2992151              -8.1421
       363        1.9999           -0.2948889              -8.0243
       364        1.5998           -0.2870696              -7.8116 (HOMO)
       365        0.3935           -0.2844168              -7.7394 (LUMO)
       366        0.0068           -0.2803583              -7.6289
       367        0.0000           -0.2755427              -7.4979
       368        0.0000           -0.2712744              -7.3818
       369                         -0.2678903              -7.2897
       370                         -0.2644698              -7.1966
       371                         -0.2634045              -7.1676
       372                         -0.2571968              -6.9987
       373                         -0.2549236              -6.9368
       374                         -0.2488241              -6.7708
       375                         -0.2479509              -6.7471
       ...                                ...                  ...
       716                          0.7959065              21.6577
      -------------------------------------------------------------
                  HL-Gap            0.0026528 Eh            0.0722 eV
             Fermi-level           -0.2857532 Eh           -7.7757 eV

     #   Z          covCN         q      C6AA      α(0)
     1   6 C        2.919    -0.071    29.761     8.946
     2   6 C        2.917    -0.031    28.763     8.795
     3   6 C        2.919    -0.052    29.288     8.875
     4   6 C        2.979     0.001    28.009     8.681
     5   7 N        2.706    -0.120    23.617     7.218
     6   6 C        2.917     0.066    26.512     8.444
     7   6 C        2.997    -0.011    28.273     8.722
     8   6 C        2.991    -0.001    28.043     8.687
     9   6 C        2.920    -0.090    30.254     9.020
    10   6 C        2.913     0.067    26.498     8.441
    11   6 C        2.995    -0.020    28.494     8.756
    12   6 C        2.994    -0.001    28.051     8.688
    13   6 C        2.926    -0.090    30.250     9.020
    14   6 C        2.978     0.018    27.598     8.617
    15   6 C        2.997    -0.019    28.460     8.751
    16   6 C        2.935     0.048    26.920     8.509
    17   6 C        2.925    -0.107    30.692     9.085
    18   6 C        2.923     0.062    26.603     8.458
    19   7 N        2.756     0.013    21.030     6.811
    20   6 C        2.936     0.046    26.967     8.517
    21   7 N        2.704    -0.120    23.620     7.218
    22   6 C        2.910     0.074    26.341     8.416
    23   6 C        2.997    -0.030    28.742     8.794
    24   6 C        2.993    -0.001    28.040     8.686
    25   6 C        2.920    -0.087    30.175     9.008
    26   6 C        2.910     0.060    26.657     8.466
    27   6 C        2.995    -0.020    28.503     8.758
    28   6 C        2.990    -0.009    28.224     8.715
    29   6 C        2.920    -0.056    29.393     8.891
    30   6 C        2.980     0.013    27.725     8.637
    31   6 C        2.996    -0.003    28.092     8.694
    32   6 C        2.975    -0.015    28.390     8.740
    33   6 C        2.912    -0.033    28.818     8.803
    34   6 C        2.917    -0.058    29.440     8.898
    35   6 C        2.982    -0.013    28.332     8.731
    36   6 C        2.917    -0.042    29.039     8.837
    37   6 C        2.917    -0.050    29.253     8.869
    38   6 C        2.927     0.036    27.189     8.551
    39   6 C        2.990    -0.018    28.440     8.748
    40   6 C        2.932     0.052    26.841     8.497
    41   7 N        2.752     0.025    20.809     6.775
    42   6 C        2.931     0.038    27.151     8.545
    43   6 C        2.994    -0.008    28.219     8.714
    44   6 C        2.994    -0.000    28.024     8.684
    45   6 C        2.990    -0.017    28.420     8.745
    46   6 C        2.992    -0.008    28.203     8.711
    47   6 C        2.991    -0.019    28.463     8.751
    48   6 C        2.993    -0.004    28.115     8.698
    49   6 C        2.992    -0.006    28.160     8.705
    50   6 C        2.991    -0.012    28.306     8.727
    51   6 C        2.993    -0.016    28.391     8.740
    52   6 C        2.996    -0.008    28.216     8.714
    53   6 C        2.994    -0.007    28.174     8.707
    54   6 C        2.991    -0.014    28.353     8.735
    55   6 C        2.995    -0.007    28.175     8.707
    56   6 C        2.993    -0.005    28.136     8.701
    57   6 C        2.992    -0.006    28.155     8.704
    58   6 C        2.991    -0.011    28.292     8.725
    59   6 C        2.994    -0.009    28.241     8.717
    60   6 C        2.993    -0.002    28.076     8.692
    61   6 C        2.992    -0.009    28.236     8.717
    62   6 C        2.985    -0.021    28.526     8.761
    63   6 C        2.916     0.037    27.171     8.548
    64   6 C        2.990    -0.008    28.211     8.713
    65   6 C        2.998     0.002    27.973     8.676
    66   6 C        2.973    -0.022    28.549     8.764
    67   7 N        2.700    -0.092    23.049     7.130
    68   6 C        2.852    -0.006    28.167     8.699
    69   6 C        2.980    -0.014    28.345     8.733
    70   6 C        2.917    -0.049    29.205     8.862
    71   6 C        2.917    -0.043    29.079     8.843
    72   6 C        2.981    -0.020    28.489     8.755
    73   6 C        2.987    -0.013    28.339     8.732
    74   6 C        2.996    -0.001    28.043     8.687
    75   6 C        2.996    -0.000    28.028     8.684
    76   6 C        2.988    -0.017    28.435     8.747
    77   6 C        2.991    -0.008    28.210     8.713
    78   6 C        2.989    -0.008    28.221     8.714
    79   6 C        2.990    -0.005    28.149     8.703
    80   6 C        2.991    -0.009    28.223     8.714
    81   6 C        2.931     0.043    27.046     8.529
    82   6 C        2.990    -0.016    28.396     8.741
    83   6 C        2.994    -0.008    28.209     8.712
    84   6 C        2.990    -0.013    28.328     8.731
    85   6 C        2.932     0.045    26.998     8.521
    86   7 N        2.751     0.003    21.211     6.840
    87   6 C        2.932     0.038    27.153     8.546
    88   6 C        2.990    -0.014    28.345     8.733
    89   6 C        2.991    -0.010    28.262     8.721
    90   6 C        2.990    -0.012    28.303     8.727
    91   6 C        2.995    -0.005    28.145     8.703
    92   6 C        2.991    -0.008    28.217     8.714
    93   6 C        2.933     0.035    27.228     8.558
    94   6 C        2.987    -0.012    28.306     8.727
    95   6 C        2.994    -0.002    28.056     8.689
    96   6 C        2.987    -0.015    28.382     8.739
    97   6 C        2.924     0.021    27.544     8.607
    98   7 N        2.751     0.038    20.584     6.738
    99   6 C        2.936     0.046    26.965     8.516
   100   6 C        2.981    -0.027    28.674     8.784
   101   6 C        2.918    -0.054    29.353     8.884
   102   6 C        2.914    -0.060    29.489     8.905
   103   6 C        2.927     0.042    27.054     8.530
   104   6 C        2.918    -0.054    29.347     8.884
   105   6 C        2.918    -0.037    28.928     8.820
   106   6 C        2.981    -0.013    28.335     8.732
   107   6 C        2.932     0.039    27.129     8.542
   108   7 N        2.752     0.028    20.766     6.768
   109   6 C        2.933     0.050    26.870     8.501
   110   6 C        2.989    -0.017    28.430     8.746
   111   6 C        2.991    -0.007    28.194     8.710
   112   6 C        2.989    -0.016    28.412     8.744
   113   6 C        2.994     0.001    27.984     8.678
   114   6 C        2.995    -0.007    28.175     8.707
   115   6 C        2.993    -0.004    28.107     8.697
   116   6 C        2.992    -0.005    28.136     8.701
   117   6 C        2.993    -0.009    28.235     8.716
   118   6 C        2.996    -0.004    28.115     8.698
   119   6 C        2.993    -0.010    28.260     8.720
   120   6 C        2.993    -0.008    28.209     8.712
   121   6 C        2.992    -0.018    28.445     8.749
   122   6 C        2.936     0.044    27.020     8.525
   123   6 C        2.993    -0.009    28.243     8.718
   124   6 C        2.992    -0.005    28.127     8.700
   125   6 C        2.993    -0.013    28.323     8.730
   126   6 C        2.996    -0.003    28.100     8.696
   127   6 C        2.993    -0.016    28.396     8.741
   128   6 C        2.992    -0.002    28.077     8.692
   129   6 C        2.992    -0.009    28.230     8.716
   130   6 C        2.989    -0.011    28.278     8.723
   131   6 C        2.920     0.036    27.187     8.550
   132   6 C        2.990    -0.005    28.135     8.701
   133   6 C        2.995    -0.002    28.076     8.692
   134   6 C        2.970    -0.015    28.377     8.738
   135   7 N        2.700    -0.092    23.039     7.129
   136   6 C        2.853     0.011    27.776     8.638
   137   6 C        2.978     0.001    28.003     8.680
   138   6 C        2.921    -0.049    29.224     8.865
   139   6 C        2.914    -0.032    28.798     8.800
   140   6 C        2.921    -0.049    29.217     8.864
   141   6 C        2.990    -0.004    28.126     8.700
   142   6 C        2.997    -0.007    28.173     8.707
   143   6 C        2.983     0.013    27.726     8.637
   144   6 C        2.921    -0.086    30.160     9.006
   145   6 C        2.994     0.002    27.979     8.677
   146   6 C        2.995    -0.014    28.351     8.734
   147   6 C        2.910     0.063    26.591     8.456
   148   7 N        2.704    -0.125    23.726     7.234
   149   6 C        2.993    -0.007    28.188     8.709
   150   6 C        2.998    -0.019    28.477     8.754
   151   6 C        2.910     0.064    26.566     8.452
   152   6 C        2.923    -0.089    30.228     9.016
   153   7 N        2.753     0.017    20.961     6.800
   154   6 C        2.939     0.032    27.282     8.566
   155   6 C        2.980     0.005    27.902     8.665
   156   6 C        2.922    -0.092    30.311     9.028
   157   6 C        2.990    -0.014    28.343     8.733
   158   6 C        2.939     0.029    27.352     8.577
   159   6 C        2.908     0.062    26.615     8.459
   160   7 N        2.706    -0.130    23.824     7.249
   161   6 C        2.989    -0.001    28.053     8.688
   162   6 C        2.995    -0.018    28.445     8.749
   163   6 C        2.910     0.060    26.644     8.464
   164   6 C        2.921    -0.084    30.098     8.997
   165   6 C        2.974     0.002    27.972     8.675
   166   6 C        2.994    -0.004    28.102     8.696
   167   6 C        2.983     0.012    27.746     8.640
   168   6 C        2.920    -0.048    29.189     8.860
   169   6 C        2.920    -0.051    29.264     8.871
   170   6 C        2.913    -0.032    28.798     8.800
   171   1 H        0.926     0.021     2.725     2.582
   172   1 H        0.926     0.029     2.602     2.522
   173   1 H        0.926     0.030     2.589     2.516
   174   1 H        0.860     0.165     1.303     1.788
   175   1 H        0.926     0.019     2.754     2.595
   176   1 H        0.926     0.029     2.607     2.525
   177   1 H        0.926     0.027     2.630     2.536
   178   1 H        0.860     0.164     1.311     1.793
   179   1 H        0.926     0.015     2.810     2.621
   180   1 H        0.926     0.017     2.775     2.605
   181   1 H        0.926     0.037     2.486     2.466
   182   1 H        0.926     0.043     2.405     2.425
   183   1 H        0.926     0.026     2.648     2.545
   184   1 H        0.926     0.027     2.635     2.538
   185   1 H        0.926     0.042     2.419     2.432
   186   1 H        0.926     0.039     2.468     2.457
   187   1 H        0.926     0.023     2.687     2.563
   188   1 H        0.926     0.022     2.703     2.571
   189   1 H        0.926     0.021     2.712     2.575
   190   1 H        0.926     0.017     2.782     2.608
   191   1 H        0.860     0.162     1.323     1.802
   192   1 H        0.926     0.022     2.698     2.569
   193   1 H        0.926     0.023     2.687     2.564
   194   1 H        0.860     0.166     1.296     1.783
   195   1 H        0.926     0.018     2.764     2.600
   196   1 H        0.926     0.022     2.702     2.571
   197   1 H        0.926     0.022     2.705     2.572
   198   1 H        0.926     0.017     2.781     2.608
   199   1 H        0.925     0.002     3.021     2.718
   200   1 H        0.860     0.172     1.260     1.758
   201   1 H        0.926     0.031     2.574     2.509
   202   1 H        0.926     0.030     2.583     2.513
   203   1 H        0.926     0.013     2.839     2.635
   204   1 H        0.860     0.172     1.261     1.759
   205   1 H        0.926     0.039     2.464     2.455
   206   1 H        0.926     0.016     2.794     2.614

 Mol. C6AA /au·bohr⁶  :     904724.018670
 Mol. C8AA /au·bohr⁸  :   24710907.046669
 Mol. α(0) /au        :       1547.598199


Wiberg/Mayer (AO) data.
largest (>0.10) Wiberg bond orders for each atom

 ---------------------------------------------------------------------------
     #   Z sym  total        # sym  WBO       # sym  WBO       # sym  WBO
 ---------------------------------------------------------------------------
     1   6 C    3.945 --     6 C    1.392     2 C    1.382   171 H    0.968
     2   6 C    3.970 --     3 C    1.494     1 C    1.382   172 H    0.971
     3   6 C    3.958 --     2 C    1.494     4 C    1.312   173 H    0.963
     4   6 C    3.958 --     3 C    1.312     7 C    1.272    35 C    1.182
     5   7 N    3.486 --    10 C    1.149     6 C    1.145   174 H    0.938
     6   6 C    3.957 --     1 C    1.392     7 C    1.245     5 N    1.145
     7   6 C    3.966 --     4 C    1.272     6 C    1.245     8 C    1.220
     8   6 C    3.942 --    39 C    1.284    11 C    1.225     7 C    1.220
     9   6 C    3.930 --    10 C    1.401    14 C    1.310   175 H    0.966
    10   6 C    3.932 --     9 C    1.401    11 C    1.227     5 N    1.149
    11   6 C    3.939 --    12 C    1.254    10 C    1.227     8 C    1.225
    12   6 C    3.961 --    15 C    1.256    11 C    1.254    43 C    1.239
    13   6 C    3.888 --    18 C    1.388    14 C    1.291   176 H    0.967
    14   6 C    3.965 --     9 C    1.310    13 C    1.291    15 C    1.205
    15   6 C    3.948 --    16 C    1.262    12 C    1.256    14 C    1.205
    16   6 C    3.905 --    47 C    1.290    15 C    1.262    19 N    1.135
    17   6 C    3.905 --    22 C    1.421    18 C    1.258   177 H    0.965
    18   6 C    3.942 --    13 C    1.388    17 C    1.258    19 N    1.125
    19   7 N    3.622 --    16 C    1.135    20 C    1.126    18 C    1.125
    20   6 C    3.917 --    23 C    1.294    51 C    1.272    19 N    1.126
    21   7 N    3.490 --    22 C    1.185    26 C    1.109   178 H    0.939
    22   6 C    3.944 --    17 C    1.421    21 N    1.185    23 C    1.182
    23   6 C    3.922 --    20 C    1.294    24 C    1.216    22 C    1.182
    24   6 C    3.948 --    55 C    1.268    27 C    1.252    23 C    1.216
    25   6 C    3.913 --    26 C    1.471    30 C    1.244   179 H    0.966
    26   6 C    3.950 --    25 C    1.471    27 C    1.205    21 N    1.109
    27   6 C    3.929 --    24 C    1.252    28 C    1.247    26 C    1.205
    28   6 C    3.964 --    31 C    1.260    27 C    1.247    59 C    1.241
    29   6 C    3.892 --    33 C    1.431    30 C    1.326   180 H    0.970
    30   6 C    3.982 --    29 C    1.326    31 C    1.244    25 C    1.244
    31   6 C    3.965 --    28 C    1.260    30 C    1.244    32 C    1.235
    32   6 C    3.962 --    34 C    1.308    31 C    1.235    63 C    1.221
    33   6 C    3.980 --    34 C    1.454    29 C    1.431   198 H    0.971
    34   6 C    3.897 --    33 C    1.454    32 C    1.308   199 H    0.961
    35   6 C    3.937 --    40 C    1.316    36 C    1.231     4 C    1.182
    36   6 C    3.890 --    37 C    1.560    35 C    1.231   181 H    0.961
    37   6 C    3.951 --    36 C    1.560    38 C    1.270   182 H    0.958
    38   6 C    3.839 --    37 C    1.270    69 C    1.248    41 N    1.122
    39   6 C    3.962 --     8 C    1.284    40 C    1.231    44 C    1.214
    40   6 C    3.935 --    35 C    1.316    39 C    1.231    41 N    1.147
    41   7 N    3.618 --    42 C    1.148    40 C    1.147    38 C    1.122
    42   6 C    3.894 --    45 C    1.255    73 C    1.251    41 N    1.148
    43   6 C    3.961 --    44 C    1.256    48 C    1.247    12 C    1.239
    44   6 C    3.941 --    45 C    1.259    43 C    1.256    39 C    1.214
    45   6 C    3.948 --    44 C    1.259    42 C    1.255    46 C    1.213
    46   6 C    3.958 --    77 C    1.265    49 C    1.263    45 C    1.213
    47   6 C    3.949 --    16 C    1.290    48 C    1.243    52 C    1.192
    48   6 C    3.949 --    49 C    1.247    43 C    1.247    47 C    1.243
    49   6 C    3.951 --    46 C    1.263    48 C    1.247    50 C    1.226
    50   6 C    3.941 --    81 C    1.295    49 C    1.226    53 C    1.211
    51   6 C    3.943 --    20 C    1.272    56 C    1.237    52 C    1.215
    52   6 C    3.936 --    53 C    1.319    51 C    1.215    47 C    1.192
    53   6 C    3.939 --    52 C    1.319    50 C    1.211    54 C    1.198
    54   6 C    3.943 --    85 C    1.300    57 C    1.233    53 C    1.198
    55   6 C    3.963 --    24 C    1.268    56 C    1.259    60 C    1.218
    56   6 C    3.953 --    55 C    1.259    57 C    1.241    51 C    1.237
    57   6 C    3.949 --    58 C    1.262    56 C    1.241    54 C    1.233
    58   6 C    3.951 --    57 C    1.262    89 C    1.240    61 C    1.239
    59   6 C    3.963 --    60 C    1.256    28 C    1.241    64 C    1.235
    60   6 C    3.968 --    61 C    1.272    59 C    1.256    55 C    1.218
    61   6 C    3.943 --    60 C    1.272    58 C    1.239    62 C    1.215
    62   6 C    3.950 --    65 C    1.333    61 C    1.215    93 C    1.177
    63   6 C    3.847 --    64 C    1.278    32 C    1.221    67 N    1.143
    64   6 C    3.958 --    63 C    1.278    59 C    1.235    65 C    1.227
    65   6 C    3.906 --    62 C    1.333    64 C    1.227    66 C    1.146
    66   6 C    3.934 --    68 C    1.455    97 C    1.158    65 C    1.146
    67   7 N    3.450 --    68 C    1.204    63 C    1.143   200 H    0.931
    68   6 C    3.823 --    66 C    1.455    67 N    1.204   201 H    0.959
    69   6 C    3.924 --    70 C    1.266    38 C    1.248    74 C    1.217
    70   6 C    3.924 --    71 C    1.542    69 C    1.266   183 H    0.961
    71   6 C    3.929 --    70 C    1.542    72 C    1.276   184 H    0.961
    72   6 C    3.920 --    71 C    1.276   103 C    1.231    75 C    1.215
    73   6 C    3.935 --    78 C    1.256    42 C    1.251    74 C    1.220
    74   6 C    3.941 --    75 C    1.295    73 C    1.220    69 C    1.217
    75   6 C    3.945 --    74 C    1.295    76 C    1.226    72 C    1.215
    76   6 C    3.930 --    79 C    1.268    75 C    1.226   107 C    1.226
    77   6 C    3.949 --    46 C    1.265    82 C    1.252    78 C    1.220
    78   6 C    3.949 --    73 C    1.256    79 C    1.255    77 C    1.220
    79   6 C    3.949 --    76 C    1.268    78 C    1.255    80 C    1.212
    80   6 C    3.954 --    83 C    1.295   111 C    1.234    79 C    1.212
    81   6 C    3.902 --    50 C    1.295    82 C    1.276    86 N    1.111
    82   6 C    3.936 --    81 C    1.276    77 C    1.252    83 C    1.197
    83   6 C    3.922 --    80 C    1.295    84 C    1.228    82 C    1.197
    84   6 C    3.944 --    87 C    1.258   115 C    1.249    83 C    1.228
    85   6 C    3.903 --    54 C    1.300    90 C    1.250    86 N    1.131
    86   7 N    3.582 --    85 C    1.131    87 C    1.114    81 C    1.111
    87   6 C    3.889 --    88 C    1.294    84 C    1.258    86 N    1.114
    88   6 C    3.941 --    87 C    1.294   119 C    1.221    91 C    1.217
    89   6 C    3.935 --    90 C    1.273    58 C    1.240    94 C    1.209
    90   6 C    3.947 --    89 C    1.273    85 C    1.250    91 C    1.212
    91   6 C    3.925 --    92 C    1.292    88 C    1.217    90 C    1.212
    92   6 C    3.955 --    91 C    1.292    95 C    1.246   123 C    1.200
    93   6 C    3.908 --    94 C    1.271    98 N    1.185    62 C    1.177
    94   6 C    3.952 --    93 C    1.271    95 C    1.255    89 C    1.209
    95   6 C    3.953 --    94 C    1.255    92 C    1.246    96 C    1.224
    96   6 C    3.963 --    99 C    1.292    95 C    1.224   127 C    1.224
    97   6 C    3.832 --   101 C    1.322    66 C    1.158    98 N    1.121
    98   7 N    3.660 --    93 C    1.185    99 C    1.149    97 C    1.121
    99   6 C    3.914 --    96 C    1.292   100 C    1.231    98 N    1.149
   100   6 C    3.934 --   131 C    1.260   102 C    1.237    99 C    1.231
   101   6 C    3.953 --   102 C    1.502    97 C    1.322   202 H    0.961
   102   6 C    3.875 --   101 C    1.502   100 C    1.237   203 H    0.959
   103   6 C    3.849 --   104 C    1.289    72 C    1.231   108 N    1.134
   104   6 C    3.942 --   105 C    1.527   103 C    1.289   185 H    0.959
   105   6 C    3.901 --   104 C    1.527   106 C    1.268   186 H    0.961
   106   6 C    3.920 --   109 C    1.304   105 C    1.268   137 C    1.152
   107   6 C    3.896 --   112 C    1.283    76 C    1.226   108 N    1.147
   108   7 N    3.629 --   107 C    1.147   109 C    1.146   103 C    1.134
   109   6 C    3.929 --   106 C    1.304   110 C    1.236   108 N    1.146
   110   6 C    3.953 --   113 C    1.259   109 C    1.236   141 C    1.229
   111   6 C    3.937 --   116 C    1.272    80 C    1.234   112 C    1.223
   112   6 C    3.942 --   107 C    1.283   111 C    1.223   113 C    1.220
   113   6 C    3.952 --   110 C    1.259   114 C    1.257   112 C    1.220
   114   6 C    3.961 --   145 C    1.271   113 C    1.257   117 C    1.213
   115   6 C    3.949 --    84 C    1.249   116 C    1.246   120 C    1.243
   116   6 C    3.947 --   111 C    1.272   115 C    1.246   117 C    1.219
   117   6 C    3.945 --   118 C    1.299   116 C    1.219   114 C    1.213
   118   6 C    3.940 --   117 C    1.299   149 C    1.218   121 C    1.211
   119   6 C    3.950 --   120 C    1.277   124 C    1.236    88 C    1.221
   120   6 C    3.957 --   119 C    1.277   115 C    1.243   121 C    1.220
   121   6 C    3.939 --   122 C    1.290   120 C    1.220   118 C    1.211
   122   6 C    3.910 --   121 C    1.290   125 C    1.252   153 N    1.134
   123   6 C    3.936 --   128 C    1.267   124 C    1.259    92 C    1.200
   124   6 C    3.957 --   123 C    1.259   125 C    1.247   119 C    1.236
   125   6 C    3.938 --   122 C    1.252   124 C    1.247   126 C    1.229
   126   6 C    3.941 --   129 C    1.286   125 C    1.229   157 C    1.215
   127   6 C    3.941 --   132 C    1.262   128 C    1.230    96 C    1.224
   128   6 C    3.957 --   123 C    1.267   129 C    1.246   127 C    1.230
   129   6 C    3.945 --   126 C    1.286   128 C    1.246   130 C    1.201
   130   6 C    3.965 --   133 C    1.343   129 C    1.201   161 C    1.193
   131   6 C    3.879 --   132 C    1.272   100 C    1.260   135 N    1.130
   132   6 C    3.957 --   131 C    1.272   127 C    1.262   133 C    1.213
   133   6 C    3.907 --   130 C    1.343   132 C    1.213   134 C    1.154
   134   6 C    3.949 --   136 C    1.489   133 C    1.154   165 C    1.120
   135   7 N    3.479 --   136 C    1.224   131 C    1.130   204 H    0.930
   136   6 C    3.868 --   134 C    1.489   135 N    1.224   205 H    0.960
   137   6 C    3.971 --   138 C    1.363   142 C    1.262   106 C    1.152
   138   6 C    3.927 --   139 C    1.423   137 C    1.363   187 H    0.963
   139   6 C    3.979 --   140 C    1.461   138 C    1.423   188 H    0.971
   140   6 C    3.931 --   139 C    1.461   143 C    1.322   189 H    0.970
   141   6 C    3.963 --   146 C    1.274   142 C    1.242   110 C    1.229
   142   6 C    3.974 --   137 C    1.262   143 C    1.243   141 C    1.242
   143   6 C    3.983 --   140 C    1.322   144 C    1.246   142 C    1.243
   144   6 C    3.930 --   147 C    1.474   143 C    1.246   190 H    0.966
   145   6 C    3.947 --   114 C    1.271   146 C    1.252   150 C    1.215
   146   6 C    3.940 --   141 C    1.274   145 C    1.252   147 C    1.192
   147   6 C    3.958 --   144 C    1.474   146 C    1.192   148 N    1.127
   148   7 N    3.475 --   151 C    1.151   147 C    1.127   191 H    0.940
   149   6 C    3.957 --   154 C    1.269   150 C    1.261   118 C    1.218
   150   6 C    3.936 --   149 C    1.261   151 C    1.231   145 C    1.215
   151   6 C    3.941 --   152 C    1.403   150 C    1.231   148 N    1.151
   152   6 C    3.922 --   151 C    1.403   155 C    1.304   192 H    0.967
   153   7 N    3.598 --   122 C    1.134   158 C    1.131   154 C    1.123
   154   6 C    3.908 --   149 C    1.269   155 C    1.267   153 N    1.123
   155   6 C    3.957 --   152 C    1.304   154 C    1.267   156 C    1.226
   156   6 C    3.876 --   159 C    1.448   155 C    1.226   193 H    0.966
   157   6 C    3.919 --   158 C    1.308   126 C    1.215   162 C    1.191
   158   6 C    3.863 --   157 C    1.308   159 C    1.193   153 N    1.131
   159   6 C    3.948 --   156 C    1.448   158 C    1.193   160 N    1.151
   160   7 N    3.468 --   159 C    1.151   163 C    1.119   194 H    0.939
   161   6 C    3.949 --   162 C    1.315   166 C    1.235   130 C    1.193
   162   6 C    3.936 --   161 C    1.315   163 C    1.207   157 C    1.191
   163   6 C    3.954 --   164 C    1.464   162 C    1.207   160 N    1.119
   164   6 C    3.930 --   163 C    1.464   167 C    1.257   195 H    0.966
   165   6 C    3.972 --   169 C    1.399   166 C    1.262   134 C    1.120
   166   6 C    3.974 --   165 C    1.262   167 C    1.249   161 C    1.235
   167   6 C    3.979 --   168 C    1.305   164 C    1.257   166 C    1.249
   168   6 C    3.950 --   170 C    1.488   167 C    1.305   196 H    0.969
   169   6 C    3.954 --   165 C    1.399   170 C    1.395   206 H    0.966
   170   6 C    3.978 --   168 C    1.488   169 C    1.395   197 H    0.971
   171   1 H    0.999 --     1 C    0.968
   172   1 H    0.998 --     2 C    0.971
   173   1 H    0.999 --     3 C    0.963
   174   1 H    0.972 --     5 N    0.938
   175   1 H    0.998 --     9 C    0.966
   176   1 H    0.998 --    13 C    0.967
   177   1 H    0.998 --    17 C    0.965
   178   1 H    0.972 --    21 N    0.939
   179   1 H    0.999 --    25 C    0.966
   180   1 H    0.999 --    29 C    0.970
   181   1 H    0.998 --    36 C    0.961
   182   1 H    0.997 --    37 C    0.958
   183   1 H    0.998 --    70 C    0.961
   184   1 H    0.998 --    71 C    0.961
   185   1 H    0.997 --   104 C    0.959
   186   1 H    0.997 --   105 C    0.961
   187   1 H    0.999 --   138 C    0.963
   188   1 H    0.999 --   139 C    0.971
   189   1 H    0.999 --   140 C    0.970
   190   1 H    0.998 --   144 C    0.966
   191   1 H    0.973 --   148 N    0.940
   192   1 H    0.999 --   152 C    0.967
   193   1 H    0.998 --   156 C    0.966
   194   1 H    0.971 --   160 N    0.939
   195   1 H    0.998 --   164 C    0.966
   196   1 H    0.999 --   168 C    0.969
   197   1 H    0.999 --   170 C    0.971
   198   1 H    0.999 --    33 C    0.971
   199   1 H    0.999 --    34 C    0.961
   200   1 H    0.969 --    67 N    0.931
   201   1 H    0.998 --    68 C    0.959
   202   1 H    0.998 --   101 C    0.961
   203   1 H    0.999 --   102 C    0.959
   204   1 H    0.970 --   135 N    0.930
   205   1 H    0.997 --   136 C    0.960
   206   1 H    0.999 --   169 C    0.966
 ---------------------------------------------------------------------------

Topologies differ in total number of bonds
Writing topology from bond orders to xtbtopo.mol

molecular dipole:
                 x           y           z       tot (Debye)
 q only:       -0.414       1.027       0.005
   full:       -0.554       1.380       0.007       3.780
molecular quadrupole (traceless):
                xx          xy          yy          xz          yz          zz
 q only:       17.111      39.290      19.828       0.562      -0.908     -36.940
  q+dip:       69.122      36.700      54.326       0.414      -1.076    -123.448
   full:       41.668      37.607      27.361       0.407      -0.976     -69.029


           -------------------------------------------------
          | TOTAL ENERGY             -393.337896494053 Eh   |
          | GRADIENT NORM               0.000720505031 Eh/α |
          | HOMO-LUMO GAP               0.072185508494 eV   |
           -------------------------------------------------

------------------------------------------------------------------------
 * finished run on 2025/12/08 at 00:38:23.490     
------------------------------------------------------------------------
 total:
 * wall-time:     0 d,  0 h,  0 min,  0.826 sec
 *  cpu-time:     0 d,  0 h,  0 min, 11.266 sec
 * ratio c/w:    13.639 speedup
 SCF:
 * wall-time:     0 d,  0 h,  0 min,  0.707 sec
 *  cpu-time:     0 d,  0 h,  0 min,  9.812 sec
 * ratio c/w:    13.879 speedup

normal termination of xtb
