206
 energy: -393.337896462734 gnorm: 0.000719350716 xtb: 6.7.1pre (5071a88)
C          -10.07011932726416       -8.27641992418887       -0.10841101073129
C           -9.41779815427559       -9.50436920652263       -0.10871729595480
C           -8.04623369182147       -9.58415876515718       -0.08373551664865
C           -7.25182058286258       -8.42341845022635       -0.05788129031896
N           -9.93199036891455       -5.88223237871439       -0.09123185181627
C           -9.32294635960658       -7.11214369728239       -0.08970177039848
C           -7.91038269266837       -7.17517910500860       -0.06898807141855
C           -7.15802326490510       -5.97496060010456       -0.05822207853774
C           -9.92548999436639       -3.48409799374736       -0.06395335514852
C           -9.25377652693706       -4.69165542483532       -0.07144056192975
C           -7.84017688348128       -4.73137103589999       -0.05869027715938
C           -7.11674023744682       -3.52086459409478       -0.04527810177302
C           -9.84732608618721       -1.01867545058449       -0.02520713402492
C           -9.22341002350423       -2.27241482808216       -0.04305165266154
C           -7.80193472158923       -2.28665220495628       -0.03678964076138
C           -7.07477963484654       -1.07672250938940       -0.02144369775172
C           -9.79883402859318        1.40700170475542        0.02520240746666
C           -9.12798300834054        0.16512431785020       -0.00295331549566
N           -7.74142319077662        0.13747150769953       -0.00624162282564
C           -7.02600306835650        1.32520878159738        0.00689211518698
N           -9.73846322214825        3.80722351355136        0.07790825021989
C           -9.11412250593269        2.59821131107770        0.04494298467524
C           -7.69306552414774        2.55921584816553        0.03046776278912
C           -6.96489604985178        3.77637174205480        0.04164840954761
C           -9.75413575517092        6.21292637122419        0.13464697450953
C           -9.07728241476807        5.02232452180378        0.09558601295733
C           -7.65940137858296        5.00291180397959        0.07272716240205
C           -6.94791247541737        6.22322282165225        0.08490655155427
C           -9.74084491314431        8.67242868076743        0.19655185666920
C           -9.06141305378357        7.44944299736329        0.15210520134908
C           -7.64091104501837        7.45319478917610        0.12452071137460
C           -6.92484206944989        8.68412196054057        0.13965978401774
C           -9.03986886191229        9.86372206184787        0.21289366502970
C           -7.66069604066289        9.88235401893339        0.18472338549021
C           -5.81737349406895       -8.45117773700409       -0.02606153896977
C           -5.11180468006973       -9.67616223379038        0.04226201538382
C           -3.75541043126602       -9.67585358167771        0.03021515318447
C           -3.00046191471530       -8.49031574507897       -0.04900404347645
C           -5.75319293655928       -6.01523294930012       -0.04974898204233
C           -5.06805005358180       -7.25836012389323       -0.04126831595453
N           -3.67793208804182       -7.27351318481098       -0.04156896830619
C           -2.95781860357638       -6.09071248499376       -0.03649022089270
C           -5.70503572928102       -3.56164208012305       -0.03897645706041
C           -5.02834688190185       -4.79769357150563       -0.04281069712379
C           -3.62352245622482       -4.84504792273312       -0.03373806543197
C           -2.88814569322718       -3.62797500628706       -0.02177692720032
C           -5.67065943000022       -1.12008331752360       -0.02036467994484
C           -4.97833396457542       -2.35321934582187       -0.02782807422556
C           -3.56364072922414       -2.38910226083128       -0.02112212946690
C           -2.82562748780149       -1.17593596792097       -0.01298646828581
C           -5.61848764526175        1.31212553009183       -0.00040441838787
C           -4.91943283249651        0.08381532801539       -0.01140728681123
C           -3.52606148549361        0.05519141613283       -0.01078014995936
C           -2.77745360763716        1.26136299784579       -0.00670368075787
C           -5.55917546784623        3.75707281164428        0.02455538839881
C           -4.88329244715529        2.52171581192805        0.00617899008277
C           -3.46761431338903        2.49932731730830       -0.00167462066239
C           -2.75018985081578        3.71197099634347       -0.00182463796913
C           -5.53482495252060        6.19881853462398        0.05890232417395
C           -4.83322347533086        4.97573940952854        0.02971141622339
C           -3.42513802574254        4.95227079647128        0.01043858811827
C           -2.69896088124753        6.17465887216409        0.00736166234922
C           -5.50548727118562        8.63505548243039        0.10867962414060
C           -4.81319847379505        7.41322111418978        0.06699896544822
C           -3.39446920588602        7.38040989796621        0.03375353004113
C           -2.66105337858167        8.61456882066058        0.02940116013683
N           -4.74818805504114        9.78023719615263        0.12331924762615
C           -3.38720249469662        9.78118216931101        0.08421726976644
C           -1.58820795155416       -8.53683527222189       -0.10535348840873
C           -0.86107171766794       -9.74054087497115       -0.22765860514692
C            0.50386445756417       -9.76486286971207       -0.20275792421446
C            1.26730986149796       -8.58954304335644       -0.05723521002251
C           -1.54160172167779       -6.10063296669554       -0.02553604217568
C           -0.84086280428929       -7.33172895005465       -0.05290716192203
C            0.56233781640562       -7.35896018427236       -0.03250407550519
C            1.30471772916337       -6.15640687781048        0.00865085540658
C           -1.48077469185417       -3.64291230689721       -0.00783075634513
C           -0.80368654123830       -4.89281136076577       -0.00592641490556
C            0.61158820022660       -4.92662822624129        0.00841521961594
C            1.33540266948566       -3.70520942968730        0.01448285906517
C           -1.42248031752561       -1.18878586113013       -0.00612090790918
C           -0.75494990472608       -2.42935184318302       -0.00064141841689
C            0.66353312388682       -2.47551746777825        0.00832294213209
C            1.37478156987480       -1.25316931301236        0.00630555347282
C           -1.37575325393128        1.22345665734651       -0.00682683588553
N           -0.70647876507242        0.00729923047753       -0.00443438295608
C            0.68382177939016       -0.02159577688384       -0.00115447018969
C            1.41677046966225        1.17564160066426       -0.00606193991322
C           -1.33933151914630        3.68387177779546       -0.00962520008957
C           -0.66079641033628        2.44589055952230       -0.00969459021684
C            0.75519430576837        2.42735816607166       -0.01224627458168
C            1.48000532192657        3.62618899297035       -0.02106284464172
C           -1.26645657016577        6.15579464744545       -0.01478123586351
C           -0.60642749655127        4.90759958120405       -0.01726609377397
C            0.80092500017766        4.86418840133691       -0.02673640990916
C            1.51792721595022        6.08540553454846       -0.04433476004287
C           -1.22683526163502        8.55860048488086       -0.03189680672386
N           -0.55965570576772        7.33420686205192       -0.03346342859630
C            0.82978191263206        7.31385021698161       -0.05583491896694
C            1.58514042543830        8.52390340697711       -0.09250909283906
C           -0.48135544210011        9.73776231925745       -0.09896611017458
C            0.88237780545401        9.74950830542835       -0.13039162548293
C            2.68143007133894       -8.59312756847950        0.04687763009420
C            3.38468595973775       -9.80088840965224        0.18196472166243
C            4.74432186164299       -9.84967552331043        0.21975323427247
C            5.49503724996253       -8.66290551747201        0.12263510590031
C            2.72641272058844       -6.19634315490602        0.02541361603236
N            3.40209889887558       -7.40531771026850        0.04768470066946
C            4.79265746273296       -7.44127422336252        0.07234413804007
C            5.52644435336451       -6.22768817861765        0.05710007478728
C            2.74869161512388       -3.73858270732966        0.01953668699305
C            3.43549801246335       -4.98173062084935        0.02739765791859
C            4.85042704904283       -4.99259522320012        0.03809058891574
C            5.56977441264195       -3.78179252545684        0.03520711711586
C            2.78913582270351       -1.28316537061419        0.01011641419838
C            3.46590795833166       -2.52598166425551        0.01777604563610
C            4.88292622994906       -2.54225442798846        0.02334804610321
C            5.60849960463985       -1.34580108496241        0.01893790302023
C            2.83568397603934        1.14809940592357       -0.00453856577617
C            3.52407866228653       -0.07466227273837        0.00468888392649
C            4.94319104016814       -0.09714121206579        0.00795590864170
C            5.68133007329767        1.09686256756287        0.00011107364226
C            2.90086322497216        3.59662332369658       -0.02451453655763
C            3.57248915891069        2.35602054517348       -0.01369912418195
C            4.98706112467339        2.32741763220852       -0.01263735043336
C            5.70128614288549        3.54679559273282       -0.02521543807285
C            2.93825871196380        6.04818142312889       -0.05307232246010
C            3.61950993672954        4.80592586806876       -0.03912196108364
C            5.03168004326512        4.77882832300819       -0.04053946396979
C            5.77285025954206        5.99261302840901       -0.05716327850698
C            2.99429126822783        8.46572905620794       -0.09608676937666
C            3.68293886572670        7.24289914720217       -0.07416556570215
C            5.10706077117037        7.21421266431194       -0.07583404561925
C            5.83905797326585        8.45320442619474       -0.09701441372940
N            3.75361305559440        9.61539373828536       -0.11870798095918
C            5.10973388111200        9.61220802486594       -0.11907466928680
C            6.93746727373272       -8.69190708541971        0.10236433835754
C            7.66926645760906       -9.88223292315372        0.09156024594983
C            9.05384675304542       -9.86979428517232        0.08289109627914
C            9.75456826759239       -8.68418678137483        0.08384192981890
C            6.94649145705439       -6.24607246448571        0.07068303897441
C            7.65186525823181       -7.47125062179723        0.08528884528801
C            9.07182516481423       -7.46200226593122        0.08181810948291
C            9.76362453754695       -6.22744155753506        0.07423199633336
C            6.97411806915208       -3.79956948945953        0.04527488893890
C            7.65992034480860       -5.03045113822010        0.06119671227936
C            9.08351115718828       -5.03935898263212        0.06619073703600
N            9.74269057995782       -3.82803119221050        0.05972273142608
C            7.02349268785989       -1.35016753381245        0.02522047686073
C            7.70436282317523       -2.58370903418644        0.03906256379044
C            9.11558175064966       -2.60914062438786        0.04668993022477
C            9.81541275700122       -1.41907852727811        0.03990651283644
N            7.06646796594110        1.07166012364521        0.00409663064271
C            7.74301997004891       -0.13967263080875        0.01820810716489
C            9.15386308200466       -0.18012331779791        0.02525116846262
C            9.87520573627192        1.03840529893513        0.01642393765379
C            7.11460805007210        3.49453964830161       -0.02223184336100
C            7.77457656407277        2.26153794303125       -0.00603069669587
C            9.19851427288108        2.23026594672439        0.00011186113628
N            9.86862775184776        3.42665129765314       -0.01038174087853
C            7.19665212744801        5.94951752792876       -0.05494285550582
C            7.85354267404497        4.71243958394990       -0.03580041346538
C            9.26960708198247        4.66773397848766       -0.03030218775666
C           10.00053019422435        5.82666549277925       -0.04407967288062
C            7.28958511083878        8.41687959503556       -0.09349323764732
C            7.94235298006468        7.15666840586350       -0.07132990708330
C            9.36089624630702        7.08746566288499       -0.06561955666540
C           10.10089024243697        8.28004450975695       -0.08187530608957
C            8.07180398018010        9.56698067078349       -0.10989973049465
C            9.45901382775958        9.49415781990462       -0.10394838892909
H          -11.14904684358510       -8.22717440856064       -0.12509322254936
H          -10.00469633817579      -10.41080611765863       -0.12917590250379
H           -7.59127773477646      -10.56018099166532       -0.09078853169133
H          -10.94148389862380       -5.85459566885549       -0.10414916744330
H          -11.00581243280239       -3.46691016264634       -0.07234668173916
H          -10.92369230307051       -0.96001367454522       -0.02548896910533
H          -10.87701614215785        1.39104719199658        0.03224039396848
H          -10.74834638561613        3.82204048991448        0.09135759711906
H          -10.83505422933566        6.22464483576062        0.15385669862957
H          -10.82069208597587        8.67684881796458        0.21871010884675
H           -5.64074993161731      -10.60955673357816        0.11414484797319
H           -3.23176962651050      -10.61246295028658        0.09604807897906
H           -1.37606461950143      -10.67656065986806       -0.36398856882932
H            0.99046555281852      -10.71871450671807       -0.32139695299427
H            2.82512027099461      -10.71471005419377        0.26970448268673
H            5.23285878715649      -10.80098480571958        0.33433416222397
H            7.17179101553841      -10.83800814440624        0.08199510249963
H            9.58899970174743      -10.80887575473590        0.07511578091834
H           10.83482111774822       -8.68538782092165        0.08133514920456
H           10.84454257581858       -6.23784254256599        0.07398975496712
H           10.75209183911769       -3.84494650071460        0.06350863823023
H           10.89551926377846       -1.42642261197408        0.04530050407562
H           10.95374339250385        1.01750696393033        0.02172302915364
H           10.87737334701988        3.39134100392410       -0.00591412761118
H           11.08083423216919        5.79008446620861       -0.03925457811801
H           11.18005508349074        8.22904075402479       -0.07704872920515
H           10.03530487671121       10.40848363493003       -0.11683073442378
H           -9.58087481294950       10.79916949478614        0.24818783985550
H           -7.15927884975903       10.84035284660891        0.19857258702171
H           -5.22893397878106       10.66450437700450        0.15698737353446
H           -2.94213357699150       10.76051346179512        0.10301435613796
H           -1.00727621207923       10.67507228747023       -0.12842082299063
H            1.39583823144795       10.69556094714895       -0.18574196114981
H            3.27497317484690       10.50137770123373       -0.13613674986874
H            5.56486751038975       10.58851583687272       -0.13732934332214
H            7.61165138390229       10.54231788154341       -0.12728119171927
