206
 energy: -393.306065184617 gnorm: 0.089239544402 xtb: 6.7.1pre (5071a88)
C          -10.14701900000000       -8.33549600000000       -0.10747000000000
C           -9.48508700000000       -9.57015800000000       -0.10911300000000
C           -8.10185600000000       -9.65590000000000       -0.09295900000000
C           -7.30673400000000       -8.48349800000000       -0.07429500000000
N           -9.99951700000000       -5.92057300000000       -0.09105200000000
C           -9.39209300000000       -7.16578000000000       -0.09219700000000
C           -7.96964000000000       -7.22574900000000       -0.07723800000000
C           -7.21767900000000       -6.01540700000000       -0.06547200000000
C          -10.00376600000000       -3.50805700000000       -0.07092300000000
C           -9.32567000000000       -4.72123500000000       -0.07621200000000
C           -7.89842300000000       -4.76658200000000       -0.06562400000000
C           -7.17258200000000       -3.55090800000000       -0.05396600000000
C           -9.92248700000000       -1.03176200000000       -0.04302700000000
C           -9.29680600000000       -2.28670600000000       -0.05534500000000
C           -7.86103600000000       -2.30551200000000       -0.04929600000000
C           -7.12417300000000       -1.09915500000000       -0.03743500000000
C           -9.87235300000000        1.41600800000000       -0.00164900000000
C           -9.21045700000000        0.16700900000000       -0.02499400000000
N           -7.79802800000000        0.13263700000000       -0.02703000000000
C           -7.06795300000000        1.34355700000000       -0.01605600000000
N           -9.79644700000000        3.83175300000000        0.04882900000000
C           -9.17391200000000        2.60928400000000        0.01777700000000
C           -7.74876600000000        2.57818400000000        0.00532500000000
C           -7.02131600000000        3.80579300000000        0.01997900000000
C           -9.82500800000000        6.25910500000000        0.12404000000000
C           -9.13871600000000        5.06331900000000        0.07824600000000
C           -7.71358200000000        5.03788600000000        0.05873200000000
C           -6.99685500000000        6.27047300000000        0.08529400000000
C           -9.80440300000000        8.74504500000000        0.20745000000000
C           -9.12871000000000        7.50947900000000        0.15831900000000
C           -7.68971900000000        7.51272800000000        0.14189700000000
C           -6.96457900000000        8.75429600000000        0.18265300000000
C           -9.08925600000000        9.94606400000000        0.23113300000000
C           -7.70062700000000        9.96887500000000        0.21953800000000
C           -5.86033500000000       -8.51189200000000       -0.05249800000000
C           -5.14464400000000       -9.74781800000000       -0.02511600000000
C           -3.78956500000000       -9.75523000000000       -0.01594200000000
C           -3.00875700000000       -8.56688700000000       -0.03444400000000
C           -5.80099700000000       -6.05292700000000       -0.05425300000000
C           -5.12249600000000       -7.31284800000000       -0.04912800000000
N           -3.70524700000000       -7.32590700000000       -0.03741200000000
C           -2.97886100000000       -6.12431100000000       -0.03083600000000
C           -5.75149500000000       -3.59199300000000       -0.04560300000000
C           -5.07172700000000       -4.83646000000000       -0.04520300000000
C           -3.65436900000000       -4.88191500000000       -0.03412500000000
C           -2.91343700000000       -3.65584100000000       -0.02568900000000
C           -5.70719100000000       -1.13152600000000       -0.03432800000000
C           -5.01985500000000       -2.37315700000000       -0.03674600000000
C           -3.59367000000000       -2.40901800000000       -0.02827100000000
C           -2.85557200000000       -1.18475100000000       -0.02123600000000
C           -5.66030100000000        1.31849200000000       -0.02150300000000
C           -4.95579900000000        0.08193000000000       -0.02762100000000
C           -3.55778900000000        0.05396900000000       -0.02277400000000
C           -2.80126500000000        1.27362900000000       -0.01720300000000
C           -5.60247000000000        3.78556800000000        0.00265800000000
C           -4.92364000000000        2.54345900000000       -0.01530300000000
C           -3.49791000000000        2.52363700000000       -0.01706300000000
C           -2.77769800000000        3.74451000000000       -0.01337800000000
C           -5.57799300000000        6.25048900000000        0.05760100000000
C           -4.87144200000000        5.01566400000000        0.01301900000000
C           -3.45628700000000        4.99059600000000       -0.00319000000000
C           -2.72809800000000        6.22887600000000        0.00223400000000
C           -5.53654100000000        8.69966900000000        0.18871300000000
C           -4.84991900000000        7.47625400000000        0.09821200000000
C           -3.41539400000000        7.43523900000000        0.05492800000000
C           -2.68428400000000        8.68000200000000        0.08597800000000
N           -4.76942300000000        9.85863700000000        0.27753000000000
C           -3.39054200000000        9.84310100000000        0.25816200000000
C           -1.60404000000000       -8.60082000000000       -0.04159800000000
C           -0.86309000000000       -9.82873600000000       -0.07191300000000
C            0.50030400000000       -9.84943100000000       -0.05336000000000
C            1.28051800000000       -8.65239500000000       -0.00521800000000
C           -1.55189800000000       -6.14579300000000       -0.01899800000000
C           -0.84840000000000       -7.38614000000000       -0.02186700000000
C            0.56442000000000       -7.40988800000000       -0.00554800000000
C            1.30383000000000       -6.19847200000000        0.01164300000000
C           -1.49982000000000       -3.66936900000000       -0.01296600000000
C           -0.81585300000000       -4.92575800000000       -0.00826900000000
C            0.61336300000000       -4.95803100000000        0.00601900000000
C            1.34318200000000       -3.72515700000000        0.01270400000000
C           -1.44375800000000       -1.20900100000000       -0.01111800000000
C           -0.76640900000000       -2.44566400000000       -0.00574300000000
C            0.66391000000000       -2.48967400000000        0.00614000000000
C            1.38090300000000       -1.26211400000000        0.00937300000000
C           -1.40209200000000        1.24469300000000       -0.00925200000000
N           -0.71709000000000        0.00681400000000       -0.00557700000000
C            0.69903700000000       -0.01914500000000        0.00294800000000
C            1.42279200000000        1.18387600000000        0.00357300000000
C           -1.35370400000000        3.71128200000000       -0.00829100000000
C           -0.67033900000000        2.47035900000000       -0.00547300000000
C            0.75545300000000        2.44543900000000       -0.00158500000000
C            1.48396800000000        3.64698000000000       -0.00815800000000
C           -1.28181700000000        6.19133000000000       -0.01747400000000
C           -0.61090100000000        4.94571700000000       -0.01123400000000
C            0.80166000000000        4.89754100000000       -0.01704000000000
C            1.53073200000000        6.11768700000000       -0.04554500000000
C           -1.23663800000000        8.63127700000000       -0.08654100000000
N           -0.56451500000000        7.38597700000000       -0.05521500000000
C            0.85029300000000        7.36297600000000       -0.08376100000000
C            1.59180800000000        8.58381700000000       -0.17006800000000
C           -0.48630200000000        9.78870700000000       -0.29169900000000
C            0.88848000000000        9.80192300000000       -0.33062400000000
C            2.68705200000000       -8.66760000000000        0.03791900000000
C            3.42046300000000       -9.88432300000000        0.08807200000000
C            4.77643300000000       -9.92242700000000        0.10716500000000
C            5.53851700000000       -8.72169300000000        0.07940000000000
C            2.74139000000000       -6.22238300000000        0.02809300000000
N            3.42784200000000       -7.46240100000000        0.04206400000000
C            4.84307100000000       -7.49774000000000        0.05819500000000
C            5.57112600000000       -6.26322600000000        0.05572000000000
C            2.76674000000000       -3.75965800000000        0.02326100000000
C            3.45767300000000       -5.01780400000000        0.03194300000000
C            4.89080300000000       -5.02825800000000        0.04404300000000
C            5.61366900000000       -3.81051300000000        0.04440500000000
C            2.80922400000000       -1.29126300000000        0.01793600000000
C            3.49055300000000       -2.54170300000000        0.02534600000000
C            4.92310200000000       -2.55441800000000        0.03423600000000
C            5.64688000000000       -1.35648100000000        0.03233800000000
C            2.85555200000000        1.15557700000000        0.00867500000000
C            3.54808500000000       -0.07188000000000        0.01687200000000
C            4.98066200000000       -0.09693300000000        0.02242900000000
C            5.70928200000000        1.10497300000000        0.01596800000000
C            2.91916400000000        3.62263500000000       -0.01174200000000
C            3.59617300000000        2.37186000000000        0.00074600000000
C            5.02234500000000        2.34742300000000        0.00285000000000
C            5.74057000000000        3.57372700000000       -0.01137700000000
C            2.95772400000000        6.08641200000000       -0.05411100000000
C            3.64357300000000        4.83420000000000       -0.03202900000000
C            5.06930000000000        4.80706500000000       -0.03046800000000
C            5.81006800000000        6.03967600000000       -0.05108800000000
C            3.01450000000000        8.51410600000000       -0.12006600000000
C            3.70204100000000        7.29259400000000       -0.08142300000000
C            5.14460500000000        7.26087700000000       -0.07559300000000
C            5.87300300000000        8.51396700000000       -0.09843100000000
N            3.77661000000000        9.67778200000000       -0.12611300000000
C            5.13867400000000        9.67652000000000       -0.10547100000000
C            6.99243500000000       -8.75450700000000        0.08198100000000
C            7.72632100000000       -9.95642700000000        0.08605100000000
C            9.12221000000000       -9.94047000000000        0.09267400000000
C            9.83118400000000       -8.74589500000000        0.09438200000000
C            7.00177500000000       -6.28888800000000        0.06778700000000
C            7.71228300000000       -7.52485000000000        0.07901700000000
C            9.14624600000000       -7.51344100000000        0.08636100000000
C            9.84114800000000       -6.26795200000000        0.08461300000000
C            7.02638400000000       -3.82940300000000        0.05451700000000
C            7.71776600000000       -5.06287400000000        0.06592900000000
C            9.15456700000000       -5.07544500000000        0.07489200000000
N            9.81008400000000       -3.85132200000000        0.07253100000000
C            7.07721200000000       -1.35969400000000        0.03985300000000
C            7.76100100000000       -2.60019800000000        0.05197000000000
C            9.17700900000000       -2.62092900000000        0.06031500000000
C            9.88446500000000       -1.42410700000000        0.05536600000000
N            7.11891100000000        1.08454700000000        0.02071200000000
C            7.80302100000000       -0.15094900000000        0.03447400000000
C            9.22010800000000       -0.17793000000000        0.04150900000000
C            9.94267600000000        1.05382200000000        0.03277100000000
C            7.17072900000000        3.52062600000000       -0.00745400000000
C            7.83057200000000        2.29837000000000        0.00965400000000
C            9.26791600000000        2.24888100000000        0.01573600000000
N            9.93356400000000        3.45909100000000        0.00367900000000
C            7.25212400000000        5.99647100000000       -0.04688200000000
C            7.91119200000000        4.75650500000000       -0.02365500000000
C            9.33640200000000        4.71313800000000       -0.01941000000000
C           10.07802300000000        5.87539700000000       -0.03850900000000
C            7.34079400000000        8.48864600000000       -0.10037700000000
C            8.00156400000000        7.21628600000000       -0.06962800000000
C            9.43533700000000        7.14553400000000       -0.06611800000000
C           10.17789800000000        8.35011400000000       -0.09282500000000
C            8.12688200000000        9.64578300000000       -0.13302100000000
C            9.52700300000000        9.57077500000000       -0.12689000000000
H          -11.23184500000000       -8.28598600000000       -0.11904900000000
H          -10.07424900000000      -10.48279800000000       -0.12380700000000
H           -7.64323800000000      -10.63650800000000       -0.09885700000000
H          -11.01154300000000       -5.89295900000000       -0.10090100000000
H          -11.09014100000000       -3.49426800000000       -0.07669100000000
H          -11.00509700000000       -0.96658600000000       -0.04344800000000
H          -10.95654500000000        1.40367700000000        0.00448800000000
H          -10.80878600000000        3.84235400000000        0.06018600000000
H          -10.91224700000000        6.26440500000000        0.13774500000000
H          -10.89126300000000        8.75564300000000        0.22068600000000
H           -5.67613800000000      -10.68973900000000       -0.00346000000000
H           -3.27185500000000      -10.70271700000000        0.01450200000000
H           -1.37864100000000      -10.77874400000000       -0.12219500000000
H            0.98348000000000      -10.81741300000000       -0.09009400000000
H            2.86970500000000      -10.81266200000000        0.12043500000000
H            5.27013400000000      -10.88423200000000        0.15165400000000
H            7.22335200000000      -10.91566100000000        0.08006500000000
H            9.66091900000000      -10.88468300000000        0.09580900000000
H           10.91796300000000       -8.74902800000000        0.10006900000000
H           10.92824500000000       -6.27211300000000        0.09043200000000
H           10.82164500000000       -3.86254100000000        0.07734200000000
H           10.97085100000000       -1.43477200000000        0.06091300000000
H           11.02818700000000        1.03568900000000        0.03778500000000
H           10.94484900000000        3.42297100000000        0.00426000000000
H           11.16414800000000        5.83269600000000       -0.03563100000000
H           11.26374200000000        8.30203100000000       -0.08966600000000
H           10.10548400000000       10.49073600000000       -0.15117600000000
H           -9.63335900000000       10.88751400000000        0.25542300000000
H           -7.19347300000000       10.92883500000000        0.20992500000000
H           -5.22148400000000       10.72145100000000        0.53950400000000
H           -2.93020700000000       10.81515000000000        0.37048100000000
H           -1.02550400000000       10.71811300000000       -0.42767400000000
H            1.40120200000000       10.73604400000000       -0.52563200000000
H            3.31106100000000       10.57041800000000       -0.05324500000000
H            5.58500400000000       10.66189300000000       -0.09520200000000
H            7.66292800000000       10.62600400000000       -0.16632600000000
206
 energy: -393.323524553943 gnorm: 0.050619519831 xtb: 6.7.1pre (5071a88)
C          -10.12519329780845       -8.31957010221873       -0.10716664279462
C           -9.47020315468439       -9.54910572488954       -0.10909095363515
C           -8.09528103205838       -9.63151536944642       -0.09305890301782
C           -7.29683483970507       -8.46750343342056       -0.07399661039252
N           -9.98083234665380       -5.91427953942355       -0.09076841415330
C           -9.37394435810708       -7.15318692634368       -0.09196519350975
C           -7.95645738745979       -7.21437876537447       -0.07708965217042
C           -7.20352364938687       -6.00783739229118       -0.06527909493067
C           -9.97755246220004       -3.50517740300507       -0.07051865533304
C           -9.30559803600499       -4.71708984344035       -0.07589648069743
C           -7.88401014679513       -4.75958381756885       -0.06531087885928
C           -7.15906692012968       -3.54406519107147       -0.05372237331708
C           -9.89702166878597       -1.02815985603175       -0.04254181822207
C           -9.27458847927553       -2.28493964637143       -0.05502958281926
C           -7.84541793344037       -2.30087747129533       -0.04902425012447
C           -7.11482366448101       -1.08989250046275       -0.03723794783731
C           -9.84762789773836        1.41638768385665       -0.00135715014149
C           -9.18400088868340        0.16800798653928       -0.02472190830151
N           -7.78403647445535        0.13589032522968       -0.02682147977851
C           -7.06038854472410        1.33854863923463       -0.01578533171306
N           -9.77914846496490        3.83082818930383        0.04901085671566
C           -9.15695538250543        2.61204679595733        0.01809429447728
C           -7.73435673247839        2.57592312589744        0.00575137024122
C           -7.00672695032072        3.80220362059690        0.02044178034471
C           -9.80023763761842        6.25217253289144        0.12365597958022
C           -9.12103951343719        5.05760536278615        0.07826575482370
C           -7.69873756976866        5.03384292109377        0.05926090129379
C           -6.98440275627014        6.26257370468473        0.08645072510046
C           -9.78213030378886        8.72628203415472        0.20635912882058
C           -9.10696490409913        7.49688088865444        0.15740119023403
C           -7.67734370192467        7.49921314982274        0.14139529522999
C           -6.95589778755678        8.73418999963455        0.18399519312194
C           -9.07526407468887        9.92002763007516        0.22866373849993
C           -7.69413878017951        9.93961081190528        0.21770597009926
C           -5.85465559620371       -8.49369430475943       -0.05233008090436
C           -5.14199164036529       -9.72453123366980       -0.02443707553593
C           -3.78763811776490       -9.72923930557537       -0.01518140795571
C           -3.01141442821593       -8.54363933575805       -0.03440610508533
C           -5.79040952340663       -6.04626865391109       -0.05403267330127
C           -5.10881683756964       -7.29958384786102       -0.04897269779330
N           -3.70208717414890       -7.31339883366872       -0.03781803646845
C           -2.97582210327167       -6.12003227506478       -0.03113229169206
C           -5.74105017921527       -3.58504537559360       -0.04540536273915
C           -5.06226090335766       -4.82775388775492       -0.04512486757379
C           -3.64753351076602       -4.87494583522494       -0.03408641190101
C           -2.90785911302013       -3.65003772846621       -0.02552480988462
C           -5.70162637324935       -1.12816301250116       -0.03414689496871
C           -5.01113125201651       -2.36835702457840       -0.03657272267075
C           -3.58775538562167       -2.40453369079254       -0.02811569924384
C           -2.84840529867760       -1.18282794202468       -0.02099520085445
C           -5.65212837741540        1.31874259623998       -0.02095049848899
C           -4.94927049732213        0.08325103557944       -0.02729247437155
C           -3.55102733760026        0.05443049946669       -0.02254321022361
C           -2.79619875544778        1.27033879041684       -0.01691201386616
C           -5.59244742352114        3.78090779578370        0.00334022500021
C           -4.91473622114997        2.53984912736885       -0.01464016113159
C           -3.49178853140097        2.51766056233823       -0.01664072237631
C           -2.77119858704977        3.73634725866809       -0.01267610747607
C           -5.56760646318778        6.23872721584461        0.05845979343950
C           -4.86323835970021        5.00726868997998        0.01444695627157
C           -3.44943010942451        4.98111671989869       -0.00185833897912
C           -2.71970763993403        6.21356509881882        0.00305519935812
C           -5.52988340668052        8.68092915432727        0.18801040572068
C           -4.84123683390232        7.45938154300954        0.09751021427758
C           -3.41114106291928        7.41964298549977        0.05356451943514
C           -2.67758825294025        8.65922681732336        0.07770772713328
N           -4.76354539450019        9.83151784158585        0.28015858458020
C           -3.38995285489305        9.81930604101446        0.25084820588241
C           -1.60350896093884       -8.58236413867125       -0.04115738505920
C           -0.86255200558988       -9.80010528444695       -0.07254560394300
C            0.49876517645451       -9.82202483637244       -0.05430919901974
C            1.27955869180867       -8.63439489948543       -0.00462809027203
C           -1.55100223415843       -6.13609462979843       -0.01886683989443
C           -0.84634597850339       -7.37274658489214       -0.02152593535651
C            0.56372356159053       -7.39787667154012       -0.00511128579135
C            1.30711539692311       -6.19019324852917        0.01175955030078
C           -1.49475736136044       -3.66527106764432       -0.01292146018195
C           -0.81191439688997       -4.92014557939988       -0.00816834403088
C            0.61386520421784       -4.95320406243491        0.00602786526245
C            1.34265358609431       -3.72400182856131        0.01253720554705
C           -1.43716444281079       -1.20245760288698       -0.01105775577499
C           -0.76309045848617       -2.44292058586496       -0.00577287223801
C            0.66479532912059       -2.48865460226181        0.00597110190728
C            1.37991426262660       -1.26134146996775        0.00921233714730
C           -1.39392294966928        1.23686015891633       -0.00931683919829
N           -0.71454001639138        0.00656894796928       -0.00564396274082
C            0.69266009855045       -0.02033188131899        0.00276428753574
C            1.42151139960767        1.18215263377649        0.00342709492144
C           -1.35037050973413        3.70495014809290       -0.00881771023736
C           -0.66784886592328        2.46365196954076       -0.00584368124670
C            0.75601611591288        2.44224966738481       -0.00186334345647
C            1.48435878315230        3.64432200792209       -0.00850542384558
C           -1.27766090789437        6.18463978529424       -0.01847324307114
C           -0.61072848067125        4.93640422316202       -0.01281853882068
C            0.80218137294604        4.89055136619786       -0.01782068762372
C            1.52795422353625        6.11259633279748       -0.04621902897997
C           -1.23435650427153        8.60568369730538       -0.07875102489482
N           -0.56421493488268        7.37026345847280       -0.05464768023647
C            0.84124100908466        7.34931875637949       -0.08456840675300
C            1.58979989281141        8.56356965926446       -0.16837396546469
C           -0.48877295186625        9.76592444813340       -0.28365212363288
C            0.88290062011820        9.77794860669546       -0.32890891746124
C            2.69020634088717       -8.64463751859572        0.03812953684037
C            3.41906454761949       -9.85765963369342        0.08873609087378
C            4.77529017902327       -9.89935036583699        0.10773480370718
C            5.53325466862544       -8.70318370645710        0.07909472702714
C            2.74045298045492       -6.22112884763314        0.02784447536539
N            3.42482232074037       -7.44791310124710        0.04138386157328
C            4.83050969896809       -7.48317877126261        0.05770738766973
C            5.56146613355925       -6.25636808413248        0.05549649277966
C            2.76358022786242       -3.75718303199268        0.02324742114527
C            3.45367757698959       -5.01178148483039        0.03177823814827
C            4.88191198074581       -5.02092998171502        0.04381854364408
C            5.60301121645793       -3.80430860451566        0.04421685843967
C            2.80498103472049       -1.29066851778193        0.01774955335797
C            3.48506706778505       -2.53968217528500        0.02526808065552
C            4.91354552312085       -2.55322961833896        0.03412192661036
C            5.63753735372955       -1.35418292533612        0.03226989356811
C            2.85154982140335        1.15487453035430        0.00831080252586
C            3.54216054090718       -0.07321744666072        0.01669023705057
C            4.97178142420716       -0.09596726728463        0.02217052235816
C            5.70473500354963        1.10407137884505        0.01574826466957
C            2.91611381554059        3.61822625846508       -0.01214573873980
C            3.59126072486091        2.36968184655569        0.00056268140551
C            5.01456596818940        2.34382103154269        0.00253883651028
C            5.73090558812925        3.56924855560069       -0.01133832906726
C            2.95435893367852        6.07871041282199       -0.05447356804700
C            3.63946553579504        4.82960917385513       -0.03164559435843
C            5.06125503611509        4.80294169653405       -0.03072510312811
C            5.80289384436812        6.02942839474267       -0.05104377168868
C            3.01011672557609        8.50092108804770       -0.12151753479919
C            3.69961074921023        7.28048728266405       -0.08111599412419
C            5.13751325192925        7.24989314422931       -0.07609768224217
C            5.86903411423097        8.49706026158098       -0.09757329719907
N            3.77315189860293        9.65800964981565       -0.12390151699116
C            5.13414881179550        9.65523757673876       -0.10339004913519
C            6.98331925709354       -8.73602610359897        0.08186675112542
C            7.71949119129343       -9.93003611754772        0.08559000411393
C            9.10705919490622       -9.91573541113658        0.09217477982357
C            9.80901162541590       -8.72723171490016        0.09411538728514
C            6.98902713492742       -6.27940693505599        0.06761586835898
C            7.69859362827468       -7.51024052764863        0.07874837022101
C            9.12515942604735       -7.50023351135157        0.08612099698197
C            9.81599043770955       -6.25843538101651        0.08433507320328
C            7.01310967856494       -3.82262134516525        0.05430098490501
C            7.70280704322096       -5.05638075416887        0.06575338949725
C            9.13382778769030       -5.06705858068031        0.07464892218767
N            9.78947292812508       -3.84659977817183        0.07226816448065
C            7.06327783348262       -1.35631190061798        0.03966825386621
C            7.74518200360151       -2.59612813449524        0.05174304887959
C            9.15903326604352       -2.61918335795404        0.06007640335240
C            9.86133229960844       -1.42329840432116        0.05512378327589
N            7.10580376524112        1.08226298869333        0.02047160311721
C            7.78615293094946       -0.14470786303857        0.03419758426575
C            9.20010247492292       -0.17786072143180        0.04132097861595
C            9.92072099104109        1.05200525435519        0.03251456958564
C            7.15648761618357        3.51580479008268       -0.00761229169332
C            7.81482698789339        2.28782272313284        0.00960271121981
C            9.24803730737074        2.24681103790788        0.01550580396116
N            9.91397117643947        3.45405420023981        0.00347767628932
C            7.23856895750681        5.98714109803029       -0.04675047007955
C            7.89560955749115        4.74772126544317       -0.02381787536402
C            9.31629082063009        4.70391727583104       -0.01964664226071
C           10.05146319881233        5.86646573367148       -0.03877300662978
C            7.33039370597112        8.46771734583385       -0.09958534196711
C            7.98637325907956        7.20130797697648       -0.06956051539769
C            9.41213335850934        7.13262305300848       -0.06616741292811
C           10.15272331063163        8.33204766456293       -0.09278081053084
C            8.11616284873635        9.61939515911081       -0.13207447076445
C            9.50803453053883        9.54657987523963       -0.12679307004868
H          -11.20671526899907       -8.27447777145066       -0.11862360378662
H          -10.05876017724632      -10.45859908226188       -0.12344948327256
H           -7.64341079637959      -10.61125532789421       -0.09820969052748
H          -10.99213619527411       -5.88827822180061       -0.10050768153258
H          -11.06088507613800       -3.49057396225241       -0.07672667958989
H          -10.97700676856076       -0.96645712761806       -0.04332866643187