      -----------------------------------------------------------      
     |                   =====================                   |     
     |                           x T B                           |     
     |                   =====================                   |     
     |                         S. Grimme                         |     
     |          Mulliken Center for Theoretical Chemistry        |     
     |                    University of Bonn                     |     
      -----------------------------------------------------------      

   * xtb version 6.7.1pre (5071a88) compiled by 'Marcel@Raven' on 2024-07-23

   xtb is free software: you can redistribute it and/or modify it under
   the terms of the GNU Lesser General Public License as published by
   the Free Software Foundation, either version 3 of the License, or
   (at your option) any later version.
   
   xtb is distributed in the hope that it will be useful,
   but WITHOUT ANY WARRANTY; without even the implied warranty of
   MERCHANTABILITY or FITNESS FOR A PARTICULAR PURPOSE.  See the
   GNU Lesser General Public License for more details.
   
   Cite this work as:
   * C. Bannwarth, E. Caldeweyher, S. Ehlert, A. Hansen, P. Pracht,
     J. Seibert, S. Spicher, S. Grimme, WIREs Comput. Mol. Sci., 2020, 11,
     e01493. DOI: 10.1002/wcms.1493
   
   for GFN2-xTB:
   * C. Bannwarth, S. Ehlert and S. Grimme., J. Chem. Theory Comput., 2019,
     15, 1652-1671. DOI: 10.1021/acs.jctc.8b01176
   for GFN1-xTB:
   * S. Grimme, C. Bannwarth, P. Shushkov, J. Chem. Theory Comput., 2017,
     13, 1989-2009. DOI: 10.1021/acs.jctc.7b00118
   for GFN0-xTB:
   * P. Pracht, E. Caldeweyher, S. Ehlert, S. Grimme, ChemRxiv, 2019, preprint.
     DOI: 10.26434/chemrxiv.8326202.v1
   for GFN-FF:
   * S. Spicher and S. Grimme, Angew. Chem. Int. Ed., 2020, 59, 15665-15673.
     DOI: 10.1002/anie.202004239
   
   for ALPB and GBSA implicit solvation:
   * S. Ehlert, M. Stahn, S. Spicher, S. Grimme, J. Chem. Theory Comput.,
     2021, 17, 4250-4261. DOI: 10.1021/acs.jctc.1c00471
   
   for ddCOSMO and CPCM-X implicit solvation:
   * M. Stahn, S. Ehlert, S. Grimme, J. Phys. Chem. A,
     2023, XX, XXXX-XXXX. DOI: 10.1021/acs.jpca.3c04382
   
   for DFT-D4:
   * E. Caldeweyher, C. Bannwarth and S. Grimme, J. Chem. Phys., 2017,
     147, 034112. DOI: 10.1063/1.4993215
   * E. Caldeweyher, S. Ehlert, A. Hansen, H. Neugebauer, S. Spicher,
     C. Bannwarth and S. Grimme, J. Chem. Phys., 2019, 150, 154122.
     DOI: 10.1063/1.5090222
   * E. Caldeweyher, J.-M. Mewes, S. Ehlert and S. Grimme, Phys. Chem. Chem. Phys.
     2020, 22, 8499-8512. DOI: 10.1039/D0CP00502A
   
   for sTDA-xTB:
   * S. Grimme and C. Bannwarth, J. Chem. Phys., 2016, 145, 054103.
     DOI: 10.1063/1.4959605
   
   in the mass-spec context:
   * V. Asgeirsson, C. Bauer and S. Grimme, Chem. Sci., 2017, 8, 4879.
     DOI: 10.1039/c7sc00601b
   * J. Koopman and S. Grimme, ACS Omega 2019, 4, 12, 15120-15133.
     DOI: 10.1021/acsomega.9b02011
   
   for metadynamics refer to:
   * S. Grimme, J. Chem. Theory Comput., 2019, 155, 2847-2862
     DOI: 10.1021/acs.jctc.9b00143
   
   for SPH calculations refer to:
   * S. Spicher and S. Grimme, J. Chem. Theory Comput., 2021, 17, 1701-1714
     DOI: 10.1021/acs.jctc.0c01306
   
   for ONIOM refer to:
   * C. Plett, A. Katbashev, S. Ehlert, S. Grimme, M. Bursch,
     Phys. Chem. Chem. Phys., 2023, 25, 17860-17868. DOI: 10.1039/D3CP02178E
   
   for DIPRO refer to:
   * J. Kohn, N. Gildemeister, S. Grimme, D. Fazzi, A. Hansen,
     J. Chem. Phys., 2023, just accepted.
   
   for PTB refer to:
   * S. Grimme, M. Mueller, A. Hansen, J. Chem. Phys., 2023, 158, 124111.
     DOI: 10.1063/5.0137838
   
   with help from (in alphabetical order)
   P. Atkinson, C. Bannwarth, F. Bohle, G. Brandenburg, E. Caldeweyher
   M. Checinski, S. Dohm, S. Ehlert, S. Ehrlich, I. Gerasimov, C. Hölzer
   A. Katbashev, J. Kohn, J. Koopman, C. Lavigne, S. Lehtola, F. März, M. Müller,
   F. Musil, H. Neugebauer, J. Pisarek, C. Plett, P. Pracht, F. Pultar,
   J. Seibert, P. Shushkov, S. Spicher, M. Stahn, M. Steiner, T. Strunk,
   J. Stückrath, T. Rose, and J. Unsleber
   
 * started run on 2025/12/08 at 00:49:45.058     
   ID    Z sym.   atoms
    1    6 C      1-4, 6-18, 20, 22-40, 42-97, 99-107, 109-134, 136-147,
                  149-159, 161-170
    2    5 B      5, 19, 21, 41, 98, 108, 135, 148, 160
    3    1 H      171-205

           -------------------------------------------------
          |                Calculation Setup                |
           -------------------------------------------------

          program call               : xtb "C:\Users\LENOVO GAMING\Documents\GitHub\molecular-conductivity-sim\dataset\2nm-9Bdoped-5percent.xyz" --opt --parallel 4
          coordinate file            : C:\Users\LENOVO GAMING\Documents\GitHub\molecular-conductivity-sim\dataset\2nm-9Bdoped-5percent.xyz
          omp threads                :                     4


           -------------------------------------------------
          |                 G F N 2 - x T B                 |
           -------------------------------------------------

        Reference                      10.1021/acs.jctc.8b01176
      * Hamiltonian:
        H0-scaling (s, p, d)           1.850000    2.230000    2.230000
        zeta-weighting                 0.500000
      * Dispersion:
        s8                             2.700000
        a1                             0.520000
        a2                             5.000000
        s9                             5.000000
      * Repulsion:
        kExp                           1.500000    1.000000
        rExp                           1.000000
      * Coulomb:
        alpha                          2.000000
        third order                    shell-resolved
        anisotropic                    true
        a3                             3.000000
        a5                             4.000000
        cn-shift                       1.200000
        cn-exp                         4.000000
        max-rad                        5.000000


          ...................................................
          :                      SETUP                      :
          :.................................................:
          :  # basis functions                 715          :
          :  # atomic orbitals                 715          :
          :  # shells                          375          :
          :  # electrons                       706          :
          :  max. iterations                   250          :
          :  Hamiltonian                  GFN2-xTB          :
          :  restarted?                      false          :
          :  GBSA solvation                  false          :
          :  PC potential                    false          :
          :  electronic temp.          300.0000000     K    :
          :  accuracy                    1.0000000          :
          :  -> integral cutoff          0.2500000E+02      :
          :  -> integral neglect         0.1000000E-07      :
          :  -> SCF convergence          0.1000000E-05 Eh   :
          :  -> wf. convergence          0.1000000E-03 e    :
          :  Broyden damping             0.4000000          :
          :  net charge                          0          :
          :  unpaired electrons                  0          :
          ...................................................

 iter      E             dE          RMSdq      gap      omega  full diag
   1   -380.6033312 -0.380603E+03  0.657E+00    0.27       0.0  T
   2   -378.1176506  0.248568E+01  0.498E+00    0.10       1.0  T
   3   -326.0556433  0.520620E+02  0.569E+00    0.05       1.0  T
   4   -189.6464662  0.136409E+03  0.102E+01    0.01       1.0  T
   5   -305.0459701 -0.115400E+03  0.730E+00    0.02       1.0  T
   6   -352.3540379 -0.473081E+02  0.469E+00    0.15       1.0  T
   7   -350.3665906  0.198745E+01  0.420E+00    0.05       1.0  T
   8   -368.1774387 -0.178108E+02  0.357E+00    0.08       1.0  T
   9   -377.2927582 -0.911532E+01  0.252E+00    0.14       1.0  T
  10   -380.6247676 -0.333201E+01  0.200E+00    0.12       1.0  T
  11   -380.9341208 -0.309353E+00  0.178E+00    0.04       1.0  T
  12   -381.2530548 -0.318934E+00  0.167E+00    0.08       1.0  T
  13   -381.3798278 -0.126773E+00  0.149E+00    0.11       1.0  T
  14   -381.4922907 -0.112463E+00  0.123E+00    0.20       1.0  T
  15   -381.5477778 -0.554871E-01  0.827E-01    0.27       1.0  T
  16   -381.5784319 -0.306541E-01  0.544E-01    0.19       1.0  T
  17   -381.5802173 -0.178543E-02  0.425E-01    0.22       1.0  T
  18   -381.5862141 -0.599683E-02  0.371E-01    0.15       1.0  T
  19   -381.5891445 -0.293038E-02  0.296E-01    0.13       1.0  T
  20   -381.6036968 -0.145523E-01  0.236E-01    0.15       1.0  T
  21   -381.6090140 -0.531724E-02  0.194E-01    0.18       1.0  T
  22   -381.6139955 -0.498153E-02  0.162E-01    0.20       1.0  T
  23   -381.6153341 -0.133854E-02  0.144E-01    0.20       1.0  T
  24   -381.6160463 -0.712258E-03  0.104E-01    0.20       1.0  T
  25   -381.6162588 -0.212446E-03  0.764E-02    0.20       1.0  T
  26   -381.6174429 -0.118410E-02  0.760E-02    0.19       1.0  T
  27   -381.6179708 -0.527953E-03  0.720E-02    0.19       1.0  T
  28   -381.6191304 -0.115956E-02  0.516E-02    0.19       1.0  T
  29   -381.6203831 -0.125266E-02  0.258E-02    0.19       1.0  T
  30   -381.6208141 -0.431025E-03  0.173E-02    0.19       1.0  T
  31   -381.6209515 -0.137393E-03  0.147E-02    0.19       1.0  T
  32   -381.6210380 -0.865550E-04  0.126E-02    0.19       1.0  T
  33   -381.6211890 -0.151020E-03  0.813E-03    0.19       1.0  T
  34   -381.6212414 -0.523222E-04  0.476E-03    0.19       1.5  T
  35   -381.6212496 -0.818878E-05  0.341E-03    0.19       2.0  T
  36   -381.6212544 -0.488223E-05  0.248E-03    0.19       2.8  T
  37   -381.6212566 -0.211667E-05  0.160E-03    0.19       4.4  T
  38   -381.6212571 -0.505216E-06  0.907E-04    0.19       7.7  T
  39   -381.6212568  0.301163E-06  0.694E-04    0.19      10.1  T

   *** convergence criteria satisfied after 39 iterations ***

         #    Occupation            Energy/Eh            Energy/eV
      -------------------------------------------------------------
         1        2.0000           -0.6702263             -18.2378
       ...           ...                  ...                  ...
       347        2.0000           -0.3598081              -9.7909
       348        2.0000           -0.3570054              -9.7146
       349        2.0000           -0.3546024              -9.6492
       350        2.0000           -0.3517772              -9.5723
       351        2.0000           -0.3507478              -9.5443
       352        1.9883           -0.3404488              -9.2641
       353        1.9538           -0.3391297              -9.2282 (HOMO)
       354        0.0577           -0.3322303              -9.0404 (LUMO)
       355        0.0002           -0.3267562              -8.8915
       356        0.0000           -0.3205340              -8.7222
       357                         -0.3065569              -8.3418
       358                         -0.2979154              -8.1067
       ...                                ...                  ...
       715                          0.7763606              21.1258
      -------------------------------------------------------------
                  HL-Gap            0.0068995 Eh            0.1877 eV
             Fermi-level           -0.3355713 Eh           -9.1314 eV

 SCC (total)                   0 d,  0 h,  0 min,  7.505 sec
 SCC setup                      ...        0 min,  0.004 sec (  0.053%)
 Dispersion                     ...        0 min,  0.016 sec (  0.213%)
 classical contributions        ...        0 min,  0.000 sec (  0.000%)
 integral evaluation            ...        0 min,  0.093 sec (  1.239%)
 iterations                     ...        0 min,  6.959 sec ( 92.725%)
 molecular gradient             ...        0 min,  0.420 sec (  5.596%)
 printout                       ...        0 min,  0.013 sec (  0.173%)

         :::::::::::::::::::::::::::::::::::::::::::::::::::::
         ::                     SUMMARY                     ::
         :::::::::::::::::::::::::::::::::::::::::::::::::::::
         :: total energy            -374.789653142189 Eh    ::
         :: gradient norm              0.082485777095 Eh/a0 ::
         :: HOMO-LUMO gap              0.187743710097 eV    ::
         ::.................................................::
         :: SCC energy              -381.637013940446 Eh    ::
         :: -> isotropic ES            0.182039720916 Eh    ::
         :: -> anisotropic ES          0.033585403414 Eh    ::
         :: -> anisotropic XC          0.135441338932 Eh    ::
         :: -> dispersion             -0.478368608841 Eh    ::
         :: repulsion energy           6.847360798256 Eh    ::
         :: add. restraining           0.000000000000 Eh    ::
         :: total charge               0.000000000206 e     ::
         :::::::::::::::::::::::::::::::::::::::::::::::::::::

      ----------------------------------------------------------- 
     |                   =====================                   |
     |                        A N C O P T                        |
     |                   =====================                   |
     |               Approximate Normal Coordinate               |
     |                Rational Function Optimizer                |
      ----------------------------------------------------------- 
      ----------------------------------------------------------- 
     |                   =====================                   |
     |                        A N C O P T                        |
     |                   =====================                   |
     |               Approximate Normal Coordinate               |
     |                Rational Function Optimizer                |
      ----------------------------------------------------------- 

          ...................................................
          :                      SETUP                      :
          :.................................................:
          :   optimization level            normal          :
          :   max. optcycles                   615          :
          :   ANC micro-cycles                  20          :
          :   degrees of freedom               609          :
          :.................................................:
          :   RF solver                   davidson          :
          :   write xtbopt.log                true          :
          :   linear?                        false          :
          :   energy convergence         0.5000000E-05 Eh   :
          :   grad. convergence          0.1000000E-02 Eh/α :
          :   maxmium RF displ.          1.0000000          :
          :   Hlow (freq-cutoff)         0.1000000E-01      :
          :   Hmax (freq-cutoff)         5.0000000          :
          :   S6 in model hess.         20.0000000          :
          ...................................................

generating ANC from exact Hessian ...
Using Lindh-Hessian (1995)
 Shifting diagonal of input Hessian by   9.939899084107508E-003
 Lowest  eigenvalues of input Hessian
    0.000000    0.000000    0.000000    0.000000    0.000000    0.000000
    0.010000    0.010067    0.010119    0.010190    0.010195    0.010591
    0.010598    0.010668    0.010712    0.010905    0.011344    0.011448
 Highest eigenvalues
    2.070650    2.072668    2.078297    2.090520    2.117048    2.120879
 

........................................................................
.............................. CYCLE    1 ..............................
........................................................................

 iter      E             dE          RMSdq      gap      omega  full diag
   1   -381.6212571 -0.381621E+03  0.506E-04    0.19       0.0  T
   2   -381.6212558  0.121429E-05  0.170E-03    0.19       4.1  T
   3   -381.6212570 -0.116561E-05  0.957E-04    0.19       7.3  T
   4   -381.6212566  0.433009E-06  0.123E-03    0.19       5.7  T
   5   -381.6212572 -0.582676E-06  0.809E-04    0.19       8.6  T
   6   -381.6212573 -0.177821E-06  0.381E-04    0.19      18.4  T
     SCC iter.                  ...        0 min,  1.090 sec
     gradient                   ...        0 min,  0.448 sec
 * total energy  :  -374.7896537 Eh     change       -0.5767292E-06 Eh
   gradient norm :     0.0824740 Eh/α   predicted     0.0000000E+00 (-100.00%)
   displ. norm   :     0.5068352 α      lambda       -0.2119197E-01
   maximum displ.:     0.2965474 α      in ANC's #49, #47, #50, ...

........................................................................
.............................. CYCLE    2 ..............................
........................................................................

 iter      E             dE          RMSdq      gap      omega  full diag
   1   -381.7936378 -0.381794E+03  0.992E-02    0.17       0.0  T
   2   -381.7934735  0.164263E-03  0.631E-02    0.17       1.0  T
   3   -381.7855700  0.790352E-02  0.135E-01    0.21       1.0  T
   4   -381.7867885 -0.121858E-02  0.107E-01    0.14       1.0  T
   5   -381.7930634 -0.627482E-02  0.332E-02    0.19       1.0  T
   6   -381.7936480 -0.584625E-03  0.125E-02    0.17       1.0  T
   7   -381.7936969 -0.488620E-04  0.474E-03    0.17       1.5  T
   8   -381.7936967  0.141460E-06  0.398E-03    0.17       1.8  T
   9   -381.7937030 -0.632282E-05  0.252E-03    0.17       2.8  T
  10   -381.7937044 -0.132934E-05  0.122E-03    0.17       5.7  T
  11   -381.7937047 -0.314387E-06  0.757E-04    0.17       9.2  T
  12   -381.7937049 -0.253596E-06  0.276E-04    0.17      25.3  T
     SCC iter.                  ...        0 min,  2.193 sec
     gradient                   ...        0 min,  0.457 sec
 * total energy  :  -374.8056635 Eh     change       -0.1600982E-01 Eh
   gradient norm :     0.0349004 Eh/α   predicted    -0.1331933E-01 ( -16.81%)
   displ. norm   :     0.5757864 α      lambda       -0.1105207E-01
   maximum displ.:     0.3782801 α      in ANC's #49, #47, #50, ...

........................................................................
.............................. CYCLE    3 ..............................
........................................................................

 iter      E             dE          RMSdq      gap      omega  full diag
   1   -381.9498271 -0.381950E+03  0.868E-02    0.16       0.0  T
   2   -381.9492774  0.549702E-03  0.605E-02    0.17       1.0  T
   3   -381.8520120  0.972655E-01  0.383E-01    0.07       1.0  T
   4   -381.9470297 -0.950177E-01  0.838E-02    0.18       1.0  T
   5   -381.9493455 -0.231578E-02  0.324E-02    0.17       1.0  T
   6   -381.9498061 -0.460597E-03  0.136E-02    0.16       1.0  T
   7   -381.9498221 -0.160291E-04  0.108E-02    0.16       1.0  T
   8   -381.9498246 -0.247177E-05  0.985E-03    0.16       1.0  T
   9   -381.9498522 -0.276644E-04  0.729E-03    0.16       1.0  T
  10   -381.9498711 -0.189139E-04  0.410E-03    0.16       1.7  T
  11   -381.9498779 -0.673795E-05  0.165E-03    0.16       4.2  T
  12   -381.9498791 -0.126382E-05  0.748E-04    0.16       9.3  T
  13   -381.9498792 -0.100372E-06  0.483E-04    0.16      14.5  T
  14   -381.9498793 -0.109433E-06  0.224E-04    0.16      31.1  T
     SCC iter.                  ...        0 min,  2.659 sec
     gradient                   ...        0 min,  0.477 sec
 * total energy  :  -374.8132893 Eh     change       -0.7625758E-02 Eh
   gradient norm :     0.0133967 Eh/α   predicted    -0.7358560E-02 (  -3.50%)
   displ. norm   :     0.4385920 α      lambda       -0.3558453E-02
   maximum displ.:     0.2979429 α      in ANC's #49, #47, #50, ...

........................................................................
.............................. CYCLE    4 ..............................
........................................................................

 iter      E             dE          RMSdq      gap      omega  full diag
   1   -382.0412354 -0.382041E+03  0.651E-02    0.15       0.0  T
   2   -382.0407608  0.474591E-03  0.473E-02    0.17       1.0  T
   3   -381.9869821  0.537787E-01  0.290E-01    0.08       1.0  T
   4   -382.0392165 -0.522344E-01  0.676E-02    0.18       1.0  T
   5   -382.0409282 -0.171167E-02  0.234E-02    0.17       1.0  T
   6   -382.0412152 -0.286971E-03  0.104E-02    0.16       1.0  T
   7   -382.0412058  0.933881E-05  0.991E-03    0.16       1.0  T
   8   -382.0412238 -0.179107E-04  0.808E-03    0.16       1.0  T
   9   -382.0412433 -0.195758E-04  0.598E-03    0.16       1.2  T
  10   -382.0412525 -0.913118E-05  0.412E-03    0.16       1.7  T
  11   -382.0412603 -0.786457E-05  0.118E-03    0.16       5.9  T
  12   -382.0412610 -0.642569E-06  0.404E-04    0.16      17.3  T
  13   -382.0412610 -0.561810E-07  0.208E-04    0.16      33.6  T
     SCC iter.                  ...        0 min,  2.590 sec
     gradient                   ...        0 min,  0.456 sec
 * total energy  :  -374.8156604 Eh     change       -0.2371140E-02 Eh
   gradient norm :     0.0106245 Eh/α   predicted    -0.2121484E-02 ( -10.53%)
   displ. norm   :     0.2505646 α      lambda       -0.8524292E-03
   maximum displ.:     0.1535702 α      in ANC's #49, #47, #50, ...

........................................................................
.............................. CYCLE    5 ..............................
........................................................................

 iter      E             dE          RMSdq      gap      omega  full diag
   1   -382.0789414 -0.382079E+03  0.512E-02    0.16       0.0  T
   2   -382.0788514  0.899420E-04  0.328E-02    0.16       1.0  T
   3   -382.0637906  0.150608E-01  0.156E-01    0.11       1.0  T
   4   -382.0774047 -0.136140E-01  0.539E-02    0.18       1.0  T
   5   -382.0788341 -0.142941E-02  0.139E-02    0.17       1.0  T
   6   -382.0789422 -0.108097E-03  0.468E-03    0.16       1.5  T
   7   -382.0789433 -0.111031E-05  0.378E-03    0.16       1.8  T
   8   -382.0789470 -0.375168E-05  0.280E-03    0.16       2.5  T
   9   -382.0789493 -0.222945E-05  0.191E-03    0.16       3.7  T
  10   -382.0789504 -0.114679E-05  0.113E-03    0.16       6.2  T
  11   -382.0789510 -0.586311E-06  0.354E-04    0.16      19.7  T
  12   -382.0789510 -0.261137E-07  0.154E-04    0.16      45.4  T
     SCC iter.                  ...        0 min,  2.291 sec
     gradient                   ...        0 min,  0.522 sec
 * total energy  :  -374.8161800 Eh     change       -0.5195186E-03 Eh
   gradient norm :     0.0046114 Eh/α   predicted    -0.4529777E-03 ( -12.81%)
   displ. norm   :     0.1345436 α      lambda       -0.1671828E-03
   maximum displ.:     0.0477644 α      in ANC's #8, #11, #13, ...

........................................................................
.............................. CYCLE    6 ..............................
........................................................................

 iter      E             dE          RMSdq      gap      omega  full diag
   1   -382.0855557 -0.382086E+03  0.380E-02    0.16       0.0  T
   2   -382.0855418  0.139201E-04  0.240E-02    0.16       1.0  T
   3   -382.0835177  0.202407E-02  0.587E-02    0.15       1.0  T
   4   -382.0848074 -0.128974E-02  0.360E-02    0.18       1.0  T
   5   -382.0855464 -0.738945E-03  0.482E-03    0.16       1.4  T
   6   -382.0855572 -0.107614E-04  0.131E-03    0.16       5.3  T
   7   -382.0855575 -0.329154E-06  0.957E-04    0.16       7.3  T
   8   -382.0855576 -0.887098E-07  0.723E-04    0.16       9.7  T
     SCC iter.                  ...        0 min,  1.494 sec
     gradient                   ...        0 min,  0.459 sec
 * total energy  :  -374.8163099 Eh     change       -0.1298969E-03 Eh
   gradient norm :     0.0022710 Eh/α   predicted    -0.8511388E-04 ( -34.48%)
   displ. norm   :     0.2894936 α      lambda       -0.2609401E-03
   maximum displ.:     0.1127333 α      in ANC's #8, #11, #13, ...

........................................................................
.............................. CYCLE    7 ..............................
........................................................................

 iter      E             dE          RMSdq      gap      omega  full diag
   1   -382.0884367 -0.382088E+03  0.904E-02    0.16       0.0  T
   2   -382.0883769  0.598602E-04  0.578E-02    0.16       1.0  T
   3   -382.0842138  0.416310E-02  0.103E-01    0.18       1.0  T
   4   -382.0883942 -0.418045E-02  0.112E-02    0.16       1.0  T
   5   -382.0884050 -0.107446E-04  0.846E-03    0.17       1.0  T
   6   -382.0884331 -0.281272E-04  0.456E-03    0.16       1.5  T
   7   -382.0884446 -0.114551E-04  0.216E-03    0.16       3.2  T
   8   -382.0884453 -0.753284E-06  0.147E-03    0.16       4.7  T
   9   -382.0884462 -0.918095E-06  0.753E-04    0.16       9.3  T
  10   -382.0884463 -0.496220E-07  0.606E-04    0.16      11.5  T
     SCC iter.                  ...        0 min,  1.807 sec
     gradient                   ...        0 min,  0.431 sec
 * total energy  :  -374.8165093 Eh     change       -0.1994545E-03 Eh
   gradient norm :     0.0054843 Eh/α   predicted    -0.1414354E-03 ( -29.09%)
   displ. norm   :     0.3929191 α      lambda       -0.2911704E-03
   maximum displ.:     0.1538469 α      in ANC's #8, #11, #13, ...

........................................................................
.............................. CYCLE    8 ..............................
........................................................................

 iter      E             dE          RMSdq      gap      omega  full diag
   1   -382.0855920 -0.382086E+03  0.120E-01    0.17       0.0  T
   2   -382.0853471  0.244918E-03  0.794E-02    0.16       1.0  T
   3   -382.0682188  0.171283E-01  0.179E-01    0.13       1.0  T
   4   -382.0797829 -0.115641E-01  0.992E-02    0.21       1.0  T
   5   -382.0855120 -0.572912E-02  0.166E-02    0.17       1.0  T
   6   -382.0856117 -0.997352E-04  0.588E-03    0.17       1.2  T
   7   -382.0856225 -0.107326E-04  0.310E-03    0.17       2.3  T
   8   -382.0856218  0.704321E-06  0.274E-03    0.17       2.6  T
   9   -382.0856242 -0.245890E-05  0.177E-03    0.17       4.0  T
  10   -382.0856238  0.425215E-06  0.163E-03    0.17       4.3  T
  11   -382.0856251 -0.125655E-05  0.286E-04    0.17      24.4  T
  12   -382.0856251 -0.364411E-07  0.726E-05    0.17      96.2  T
  13   -382.0856251  0.118592E-08  0.670E-05    0.17     104.2  T
     SCC iter.                  ...        0 min,  2.468 sec
     gradient                   ...        0 min,  0.478 sec
 * total energy  :  -374.8167289 Eh     change       -0.2195686E-03 Eh
   gradient norm :     0.0083385 Eh/α   predicted    -0.1680726E-03 ( -23.45%)
   displ. norm   :     0.3758276 α      lambda       -0.2770282E-03
   maximum displ.:     0.1481909 α      in ANC's #8, #3, #13, ...

........................................................................
.............................. CYCLE    9 ..............................
........................................................................

 iter      E             dE          RMSdq      gap      omega  full diag
   1   -382.0797493 -0.382080E+03  0.111E-01    0.17       0.0  T
   2   -382.0794937  0.255606E-03  0.746E-02    0.17       1.0  T
   3   -382.0655731  0.139207E-01  0.164E-01    0.14       1.0  T
   4   -382.0742458 -0.867270E-02  0.967E-02    0.21       1.0  T
   5   -382.0796606 -0.541485E-02  0.170E-02    0.17       1.0  T
   6   -382.0797766 -0.116001E-03  0.513E-03    0.17       1.4  T
   7   -382.0797840 -0.737994E-05  0.254E-03    0.17       2.7  T
   8   -382.0797837  0.311919E-06  0.223E-03    0.17       3.1  T
   9   -382.0797848 -0.112475E-05  0.160E-03    0.17       4.4  T
  10   -382.0797844  0.403364E-06  0.150E-03    0.17       4.7  T
  11   -382.0797855 -0.109642E-05  0.249E-04    0.17      28.0  T
  12   -382.0797855 -0.313440E-07  0.671E-05    0.17     104.1  T
  13   -382.0797855 -0.114613E-08  0.355E-05    0.17     196.6  T
     SCC iter.                  ...        0 min,  2.367 sec
     gradient                   ...        0 min,  0.442 sec
 * total energy  :  -374.8169360 Eh     change       -0.2070753E-03 Eh
   gradient norm :     0.0077443 Eh/α   predicted    -0.1580805E-03 ( -23.66%)
   displ. norm   :     0.2964279 α      lambda       -0.2530038E-03
   maximum displ.:     0.1231376 α      in ANC's #3, #8, #13, ...

........................................................................
.............................. CYCLE   10 ..............................
........................................................................

 iter      E             dE          RMSdq      gap      omega  full diag
   1   -382.0749824 -0.382075E+03  0.735E-02    0.16       0.0  T
   2   -382.0747646  0.217856E-03  0.520E-02    0.17       1.0  T
   3   -382.0637887  0.109758E-01  0.133E-01    0.13       1.0  T
   4   -382.0688861 -0.509740E-02  0.106E-01    0.21       1.0  T
   5   -382.0749359 -0.604980E-02  0.128E-02    0.17       1.0  T
   6   -382.0750025 -0.666261E-04  0.472E-03    0.17       1.5  T
   7   -382.0750076 -0.507876E-05  0.272E-03    0.17       2.6  T
   8   -382.0750072  0.412990E-06  0.249E-03    0.17       2.8  T
   9   -382.0750095 -0.229002E-05  0.142E-03    0.17       4.9  T
  10   -382.0750093  0.183238E-06  0.131E-03    0.16       5.3  T
  11   -382.0750100 -0.696958E-06  0.222E-04    0.16      31.4  T
  12   -382.0750100 -0.206306E-07  0.589E-05    0.16     118.6  T
     SCC iter.                  ...        0 min,  2.214 sec
     gradient                   ...        0 min,  0.407 sec
 * total energy  :  -374.8171006 Eh     change       -0.1646466E-03 Eh
   gradient norm :     0.0034974 Eh/α   predicted    -0.1376182E-03 ( -16.42%)
   displ. norm   :     0.2610708 α      lambda       -0.1286848E-03
   maximum displ.:     0.1150349 α      in ANC's #3, #8, #13, ...

........................................................................
.............................. CYCLE   11 ..............................
........................................................................

 iter      E             dE          RMSdq      gap      omega  full diag
   1   -382.0755990 -0.382076E+03  0.838E-02    0.16       0.0  T
   2   -382.0754249  0.174119E-03  0.558E-02    0.17       1.0  T
   3   -382.0583292  0.170957E-01  0.163E-01    0.11       1.0  T
   4   -382.0704957 -0.121665E-01  0.987E-02    0.20       1.0  T
   5   -382.0755500 -0.505431E-02  0.123E-02    0.17       1.0  T
   6   -382.0756111 -0.611428E-04  0.468E-03    0.17       1.5  T
   7   -382.0756159 -0.471694E-05  0.295E-03    0.16       2.4  T
   8   -382.0756156  0.279639E-06  0.268E-03    0.16       2.6  T
   9   -382.0756180 -0.240083E-05  0.166E-03    0.16       4.2  T
  10   -382.0756183 -0.295830E-06  0.121E-03    0.16       5.8  T
  11   -382.0756188 -0.536850E-06  0.219E-04    0.16      31.9  T
  12   -382.0756188 -0.194135E-07  0.581E-05    0.16     120.2  T
     SCC iter.                  ...        0 min,  2.133 sec
     gradient                   ...        0 min,  0.428 sec
 * total energy  :  -374.8171696 Eh     change       -0.6899737E-04 Eh
   gradient norm :     0.0037866 Eh/α   predicted    -0.6872820E-04 (  -0.39%)
   displ. norm   :     0.1351842 α      lambda       -0.8618744E-04
   maximum displ.:     0.0674148 α      in ANC's #3, #8, #4, ...

........................................................................
.............................. CYCLE   12 ..............................
........................................................................

 iter      E             dE          RMSdq      gap      omega  full diag
   1   -382.0783264 -0.382078E+03  0.220E-02    0.16       0.0  T
   2   -382.0782513  0.750909E-04  0.175E-02    0.17       1.0  T
   3   -382.0749450  0.330636E-02  0.720E-02    0.14       1.0  T
   4   -382.0780763 -0.313133E-02  0.251E-02    0.17       1.0  T
   5   -382.0783237 -0.247384E-03  0.355E-03    0.16       2.0  T
   6   -382.0783286 -0.490135E-05  0.157E-03    0.16       4.4  T
   7   -382.0783293 -0.689661E-06  0.878E-04    0.16       8.0  T
   8   -382.0783293 -0.464757E-07  0.733E-04    0.16       9.5  T
     SCC iter.                  ...        0 min,  1.442 sec
     gradient                   ...        0 min,  0.429 sec
 * total energy  :  -374.8172255 Eh     change       -0.5593713E-04 Eh
   gradient norm :     0.0031918 Eh/α   predicted    -0.4388784E-04 ( -21.54%)
   displ. norm   :     0.1498086 α      lambda       -0.5702670E-04
   maximum displ.:     0.0784390 α      in ANC's #3, #8, #4, ...

........................................................................
.............................. CYCLE   13 ..............................
........................................................................

 iter      E             dE          RMSdq      gap      omega  full diag
   1   -382.0807035 -0.382081E+03  0.277E-02    0.16       0.0  T
   2   -382.0806660  0.375084E-04  0.187E-02    0.16       1.0  T
   3   -382.0770663  0.359975E-02  0.746E-02    0.14       1.0  T
   4   -382.0801458 -0.307951E-02  0.347E-02    0.18       1.0  T
   5   -382.0806991 -0.553293E-03  0.367E-03    0.16       1.9  T
   6   -382.0807053 -0.627769E-05  0.137E-03    0.16       5.1  T
   7   -382.0807059 -0.583994E-06  0.796E-04    0.16       8.8  T
   8   -382.0807059  0.276144E-07  0.667E-04    0.16      10.5  T
     SCC iter.                  ...        0 min,  1.417 sec
     gradient                   ...        0 min,  0.447 sec
 * total energy  :  -374.8172701 Eh     change       -0.4455538E-04 Eh
   gradient norm :     0.0030379 Eh/α   predicted    -0.2915550E-04 ( -34.56%)
   displ. norm   :     0.1728725 α      lambda       -0.6364185E-04
   maximum displ.:     0.0917766 α      in ANC's #3, #4, #8, ...

........................................................................
.............................. CYCLE   14 ..............................
........................................................................

 iter      E             dE          RMSdq      gap      omega  full diag
   1   -382.0826313 -0.382083E+03  0.254E-02    0.16       0.0  T
   2   -382.0826292  0.209915E-05  0.152E-02    0.16       1.0  T
   3   -382.0824154  0.213854E-03  0.208E-02    0.16       1.0  T
   4   -382.0824985 -0.831423E-04  0.145E-02    0.17       1.0  T
   5   -382.0826303 -0.131812E-03  0.216E-03    0.16       3.2  T
   6   -382.0826318 -0.145256E-05  0.957E-04    0.16       7.3  T
   7   -382.0826320 -0.242684E-06  0.532E-04    0.16      13.1  T
   8   -382.0826320 -0.391464E-07  0.382E-04    0.16      18.3  T
     SCC iter.                  ...        0 min,  1.455 sec
     gradient                   ...        0 min,  0.459 sec
 * total energy  :  -374.8173154 Eh     change       -0.4530932E-04 Eh
   gradient norm :     0.0026129 Eh/α   predicted    -0.3277255E-04 ( -27.67%)
   displ. norm   :     0.1596844 α      lambda       -0.4284838E-04
   maximum displ.:     0.0901147 α      in ANC's #3, #4, #8, ...

........................................................................
.............................. CYCLE   15 ..............................
........................................................................

 iter      E             dE          RMSdq      gap      omega  full diag
   1   -382.0826709 -0.382083E+03  0.208E-02    0.16       0.0  T
   2   -382.0826690  0.190366E-05  0.125E-02    0.16       1.0  T
   3   -382.0825257  0.143327E-03  0.193E-02    0.17       1.0  T
   4   -382.0826656 -0.139945E-03  0.347E-03    0.16       2.0  T
   5   -382.0826641  0.151424E-05  0.334E-03    0.17       2.1  T
   6   -382.0826712 -0.708119E-05  0.601E-04    0.16      11.6  T
   7   -382.0826713 -0.108514E-06  0.399E-04    0.16      17.5  T
   8   -382.0826713 -0.316817E-08  0.363E-04    0.16      19.3  T
     SCC iter.                  ...        0 min,  1.464 sec
     gradient                   ...        0 min,  0.434 sec
 * total energy  :  -374.8173486 Eh     change       -0.3319675E-04 Eh
   gradient norm :     0.0023213 Eh/α   predicted    -0.2197755E-04 ( -33.80%)
   displ. norm   :     0.1693760 α      lambda       -0.4588902E-04
   maximum displ.:     0.0954589 α      in ANC's #3, #4, #1, ...

........................................................................
.............................. CYCLE   16 ..............................
........................................................................

 iter      E             dE          RMSdq      gap      omega  full diag
   1   -382.0819068 -0.382082E+03  0.244E-02    0.16       0.0  T
   2   -382.0818565  0.502665E-04  0.175E-02    0.16       1.0  T
   3   -382.0789189  0.293760E-02  0.682E-02    0.19       1.0  T
   4   -382.0816965 -0.277760E-02  0.228E-02    0.16       1.0  T
   5   -382.0819052 -0.208703E-03  0.320E-03    0.17       2.2  T
   6   -382.0819088 -0.363593E-05  0.120E-03    0.16       5.8  T
   7   -382.0819092 -0.425550E-06  0.646E-04    0.16      10.8  T
   8   -382.0819092  0.591569E-09  0.566E-04    0.16      12.3  T
     SCC iter.                  ...        0 min,  1.451 sec
     gradient                   ...        0 min,  0.429 sec
 * total energy  :  -374.8173852 Eh     change       -0.3664868E-04 Eh
   gradient norm :     0.0021027 Eh/α   predicted    -0.2360658E-04 ( -35.59%)
   displ. norm   :     0.1952337 α      lambda       -0.5002060E-04
   maximum displ.:     0.1146549 α      in ANC's #3, #4, #1, ...

........................................................................
.............................. CYCLE   17 ..............................
........................................................................

 iter      E             dE          RMSdq      gap      omega  full diag
   1   -382.0805076 -0.382081E+03  0.271E-02    0.16       0.0  T
   2   -382.0804374  0.701552E-04  0.197E-02    0.16       1.0  T
   3   -382.0765333  0.390414E-02  0.792E-02    0.19       1.0  T
   4   -382.0803953 -0.386200E-02  0.176E-02    0.16       1.0  T
   5   -382.0805057 -0.110454E-03  0.333E-03    0.17       2.1  T
   6   -382.0805098 -0.410580E-05  0.101E-03    0.16       6.9  T
   7   -382.0805099 -0.841125E-07  0.766E-04    0.16       9.1  T
   8   -382.0805100 -0.784127E-07  0.612E-04    0.16      11.4  T
     SCC iter.                  ...        0 min,  1.452 sec
     gradient                   ...        0 min,  0.428 sec
 * total energy  :  -374.8174241 Eh     change       -0.3885633E-04 Eh
   gradient norm :     0.0019975 Eh/α   predicted    -0.2596604E-04 ( -33.17%)
   displ. norm   :     0.2916047 α      lambda       -0.4131512E-04
   maximum displ.:     0.1741304 α      in ANC's #3, #4, #1, ...

........................................................................
.............................. CYCLE   18 ..............................
........................................................................

 iter      E             dE          RMSdq      gap      omega  full diag
   1   -382.0788285 -0.382079E+03  0.424E-02    0.16       0.0  T
   2   -382.0787136  0.114941E-03  0.295E-02    0.16       1.0  T
   3   -382.0709792  0.773438E-02  0.111E-01    0.20       1.0  T
   4   -382.0781156 -0.713637E-02  0.405E-02    0.15       1.0  T
   5   -382.0788248 -0.709183E-03  0.522E-03    0.17       1.3  T
   6   -382.0788336 -0.884464E-05  0.198E-03    0.16       3.5  T
   7   -382.0788342 -0.588222E-06  0.150E-03    0.16       4.6  T
   8   -382.0788343 -0.100824E-06  0.129E-03    0.16       5.4  T
   9   -382.0788345 -0.236351E-06  0.978E-04    0.16       7.1  T
  10   -382.0788348 -0.282100E-06  0.428E-04    0.16      16.3  T
     SCC iter.                  ...        0 min,  1.848 sec
     gradient                   ...        0 min,  0.441 sec
 * total energy  :  -374.8174678 Eh     change       -0.4372084E-04 Eh
   gradient norm :     0.0023119 Eh/α   predicted    -0.2144089E-04 ( -50.96%)
   displ. norm   :     0.1337855 α      lambda       -0.2935789E-04
   maximum displ.:     0.0824172 α      in ANC's #3, #4, #1, ...

........................................................................
.............................. CYCLE   19 ..............................
........................................................................

 iter      E             dE          RMSdq      gap      omega  full diag
   1   -382.0791177 -0.382079E+03  0.183E-02    0.16       0.0  T
   2   -382.0791159  0.185509E-05  0.113E-02    0.16       1.0  T
   3   -382.0790034  0.112460E-03  0.161E-02    0.16       1.0  T
   4   -382.0791045 -0.101089E-03  0.444E-03    0.16       1.6  T
   5   -382.0791153 -0.107966E-04  0.242E-03    0.16       2.9  T
   6   -382.0791181 -0.276193E-05  0.583E-04    0.16      12.0  T
   7   -382.0791181 -0.505603E-07  0.418E-04    0.16      16.7  T
   8   -382.0791182 -0.274858E-07  0.263E-04    0.16      26.6  T
     SCC iter.                  ...        0 min,  1.427 sec
     gradient                   ...        0 min,  0.437 sec
 * total energy  :  -374.8174941 Eh     change       -0.2631689E-04 Eh
   gradient norm :     0.0019385 Eh/α   predicted    -0.1494211E-04 ( -43.22%)
   displ. norm   :     0.3497067 α      lambda       -0.5741719E-04
   maximum displ.:     0.2118651 α      in ANC's #3, #4, #1, ...

........................................................................
.............................. CYCLE   20 ..............................
........................................................................

 iter      E             dE          RMSdq      gap      omega  full diag
   1   -382.0804220 -0.382080E+03  0.514E-02    0.16       0.0  T
   2   -382.0804052  0.167786E-04  0.318E-02    0.17       1.0  T
   3   -382.0765469  0.385827E-02  0.839E-02    0.13       1.0  T
   4   -382.0794909 -0.294401E-02  0.389E-02    0.17       1.0  T
   5   -382.0804200 -0.929074E-03  0.332E-03    0.16       2.1  T
   6   -382.0804219 -0.186968E-05  0.243E-03    0.16       2.9  T
   7   -382.0804244 -0.252851E-05  0.114E-03    0.16       6.1  T
   8   -382.0804247 -0.252432E-06  0.628E-04    0.16      11.1  T
   9   -382.0804245  0.127121E-06  0.721E-04    0.16       9.7  T
     SCC iter.                  ...        0 min,  1.634 sec
     gradient                   ...        0 min,  0.448 sec
 * total energy  :  -374.8175537 Eh     change       -0.5954391E-04 Eh
   gradient norm :     0.0017712 Eh/α   predicted    -0.3027056E-04 ( -49.16%)
   displ. norm   :     0.2514757 α      lambda       -0.2740493E-04
   maximum displ.:     0.1569277 α      in ANC's #3, #4, #1, ...
 * RMSD in coord.:     0.2623997 α      energy gain  -0.2790054E-01 Eh

generating ANC from exact Hessian ...
Using Lindh-Hessian (1995)
 Shifting diagonal of input Hessian by   9.935545962379959E-003
 Lowest  eigenvalues of input Hessian
    0.000000    0.000000    0.000000    0.000000    0.000000    0.000000
    0.010000    0.010070    0.010136    0.010207    0.010218    0.010653
    0.010662    0.010758    0.010829    0.010979    0.011533    0.011596
 Highest eigenvalues
    2.152317    2.154457    2.161485    2.172852    2.206755    2.210878
 

........................................................................
.............................. CYCLE   21 ..............................
........................................................................

 iter      E             dE          RMSdq      gap      omega  full diag
   1   -382.0806756 -0.382081E+03  0.340E-02    0.16       0.0  T
   2   -382.0806725  0.306032E-05  0.208E-02    0.16       1.0  T
   3   -382.0802971  0.375433E-03  0.266E-02    0.17       1.0  T
   4   -382.0805044 -0.207345E-03  0.169E-02    0.15       1.0  T
   5   -382.0806743 -0.169881E-03  0.214E-03    0.16       3.3  T
   6   -382.0806756 -0.130435E-05  0.142E-03    0.16       4.9  T
   7   -382.0806762 -0.630173E-06  0.643E-04    0.16      10.9  T
   8   -382.0806763 -0.256762E-07  0.411E-04    0.16      17.0  T
     SCC iter.                  ...        0 min,  1.446 sec
     gradient                   ...        0 min,  0.460 sec
 * total energy  :  -374.8175843 Eh     change       -0.3064289E-04 Eh
   gradient norm :     0.0017119 Eh/α   predicted     0.0000000E+00 (-100.00%)
   displ. norm   :     0.0409739 α      lambda       -0.1301372E-04
   maximum displ.:     0.0201170 α      in ANC's #3, #17, #9, ...

........................................................................
.............................. CYCLE   22 ..............................
........................................................................

 iter      E             dE          RMSdq      gap      omega  full diag
   1   -382.0809966 -0.382081E+03  0.149E-02    0.16       0.0  T
   2   -382.0809955  0.106068E-05  0.933E-03    0.16       1.0  T
   3   -382.0808688  0.126748E-03  0.154E-02    0.16       1.0  T
   4   -382.0809340 -0.652960E-04  0.101E-02    0.17       1.0  T
   5   -382.0809962 -0.621298E-04  0.130E-03    0.16       5.4  T
   6   -382.0809967 -0.528214E-06  0.504E-04    0.16      13.9  T
   7   -382.0809968 -0.653349E-07  0.311E-04    0.16      22.4  T
     SCC iter.                  ...        0 min,  1.256 sec
     gradient                   ...        0 min,  0.452 sec
 * total energy  :  -374.8175994 Eh     change       -0.1507666E-04 Eh
   gradient norm :     0.0008165 Eh/α   predicted    -0.7488757E-05 ( -50.33%)
   displ. norm   :     0.0965969 α      lambda       -0.2111456E-04
   maximum displ.:     0.0489710 α      in ANC's #3, #9, #17, ...

........................................................................
.............................. CYCLE   23 ..............................
........................................................................

 iter      E             dE          RMSdq      gap      omega  full diag
   1   -382.0812287 -0.382081E+03  0.284E-02    0.16       0.0  T
   2   -382.0812182  0.104906E-04  0.182E-02    0.16       1.0  T
   3   -382.0803508  0.867363E-03  0.400E-02    0.16       1.0  T
   4   -382.0807172 -0.366392E-03  0.291E-02    0.18       1.0  T
   5   -382.0812255 -0.508256E-03  0.331E-03    0.16       2.1  T
   6   -382.0812298 -0.435540E-05  0.104E-03    0.16       6.7  T
   7   -382.0812302 -0.346677E-06  0.558E-04    0.16      12.5  T
   8   -382.0812302 -0.318897E-08  0.492E-04    0.16      14.2  T
     SCC iter.                  ...        0 min,  1.431 sec
     gradient                   ...        0 min,  0.439 sec
 * total energy  :  -374.8176202 Eh     change       -0.2077912E-04 Eh
   gradient norm :     0.0015538 Eh/α   predicted    -0.1064157E-04 ( -48.79%)
   displ. norm   :     0.0897952 α      lambda       -0.1144528E-04
   maximum displ.:     0.0508625 α      in ANC's #3, #9, #17, ...

........................................................................
.............................. CYCLE   24 ..............................
........................................................................

 iter      E             dE          RMSdq      gap      omega  full diag
   1   -382.0809714 -0.382081E+03  0.206E-02    0.16       0.0  T
   2   -382.0809575  0.138542E-04  0.139E-02    0.16       1.0  T
   3   -382.0801079  0.849655E-03  0.378E-02    0.15       1.0  T
   4   -382.0804350 -0.327117E-03  0.310E-02    0.18       1.0  T
   5   -382.0809689 -0.533891E-03  0.291E-03    0.16       2.4  T
   6   -382.0809727 -0.382580E-05  0.850E-04    0.16       8.2  T
   7   -382.0809729 -0.240361E-06  0.429E-04    0.16      16.3  T
   8   -382.0809730 -0.160143E-07  0.310E-04    0.16      22.5  T
     SCC iter.                  ...        0 min,  1.449 sec
     gradient                   ...        0 min,  0.447 sec
 * total energy  :  -374.8176335 Eh     change       -0.1329115E-04 Eh
   gradient norm :     0.0013399 Eh/α   predicted    -0.5743314E-05 ( -56.79%)
   displ. norm   :     0.1054252 α      lambda       -0.1163830E-04
   maximum displ.:     0.0630308 α      in ANC's #3, #9, #1, ...

........................................................................
.............................. CYCLE   25 ..............................
........................................................................

 iter      E             dE          RMSdq      gap      omega  full diag
   1   -382.0810615 -0.382081E+03  0.182E-02    0.16       0.0  T
   2   -382.0810400  0.215078E-04  0.128E-02    0.16       1.0  T
   3   -382.0790808  0.195923E-02  0.549E-02    0.14       1.0  T
   4   -382.0808865 -0.180574E-02  0.203E-02    0.17       1.0  T
   5   -382.0810596 -0.173061E-03  0.252E-03    0.16       2.8  T
   6   -382.0810625 -0.291635E-05  0.918E-04    0.16       7.6  T
   7   -382.0810627 -0.253693E-06  0.459E-04    0.16      15.2  T
   8   -382.0810628 -0.185128E-07  0.347E-04    0.16      20.1  T
     SCC iter.                  ...        0 min,  1.443 sec
     gradient                   ...        0 min,  0.449 sec
 * total energy  :  -374.8176472 Eh     change       -0.1374520E-04 Eh
   gradient norm :     0.0006493 Eh/α   predicted    -0.5850992E-05 ( -57.43%)
   displ. norm   :     0.1102295 α      lambda       -0.1045047E-04
   maximum displ.:     0.0686344 α      in ANC's #3, #1, #9, ...

........................................................................
.............................. CYCLE   26 ..............................
........................................................................

 iter      E             dE          RMSdq      gap      omega  full diag
   1   -382.0810191 -0.382081E+03  0.135E-02    0.16       0.0  T
   2   -382.0810138  0.537483E-05  0.870E-03    0.16       1.0  T
   3   -382.0799305  0.108325E-02  0.411E-02    0.15       1.0  T
   4   -382.0809929 -0.106244E-02  0.808E-03    0.16       1.0  T
   5   -382.0810184 -0.254964E-04  0.149E-03    0.16       4.7  T
   6   -382.0810193 -0.872292E-06  0.583E-04    0.16      12.0  T
   7   -382.0810194 -0.757959E-07  0.375E-04    0.16      18.6  T
     SCC iter.                  ...        0 min,  1.263 sec
     gradient                   ...        0 min,  0.447 sec
 * total energy  :  -374.8176598 Eh     change       -0.1253721E-04 Eh
   gradient norm :     0.0006952 Eh/α   predicted    -0.5290277E-05 ( -57.80%)
   displ. norm   :     0.1158515 α      lambda       -0.1013038E-04
   maximum displ.:     0.0734383 α      in ANC's #3, #1, #9, ...

........................................................................
.............................. CYCLE   27 ..............................
........................................................................

 iter      E             dE          RMSdq      gap      omega  full diag
   1   -382.0809449 -0.382081E+03  0.134E-02    0.16       0.0  T
   2   -382.0809424  0.251488E-05  0.838E-03    0.16       1.0  T
   3   -382.0804710  0.471454E-03  0.299E-02    0.15       1.0  T
   4   -382.0808793 -0.408335E-03  0.102E-02    0.17       1.0  T
   5   -382.0809447 -0.653746E-04  0.101E-03    0.16       6.9  T
   6   -382.0809450 -0.377540E-06  0.522E-04    0.16      13.4  T
   7   -382.0809451 -0.718767E-07  0.350E-04    0.16      20.0  T
     SCC iter.                  ...        0 min,  1.261 sec
     gradient                   ...        0 min,  0.439 sec
 * total energy  :  -374.8176718 Eh     change       -0.1203681E-04 Eh
   gradient norm :     0.0011238 Eh/α   predicted    -0.5096380E-05 ( -57.66%)
   displ. norm   :     0.1282805 α      lambda       -0.1105981E-04
   maximum displ.:     0.0820300 α      in ANC's #3, #1, #4, ...

........................................................................
.............................. CYCLE   28 ..............................
........................................................................

 iter      E             dE          RMSdq      gap      omega  full diag
   1   -382.0809530 -0.382081E+03  0.165E-02    0.16       0.0  T
   2   -382.0809466  0.640897E-05  0.108E-02    0.16       1.0  T
   3   -382.0807021  0.244463E-03  0.225E-02    0.16       1.0  T
   4   -382.0807417 -0.395893E-04  0.184E-02    0.15       1.0  T
   5   -382.0809525 -0.210794E-03  0.184E-03    0.16       3.8  T
   6   -382.0809538 -0.128757E-05  0.681E-04    0.16      10.3  T
   7   -382.0809539 -0.118723E-06  0.377E-04    0.16      18.5  T
   8   -382.0809539  0.165085E-07  0.392E-04    0.16      17.8  T
     SCC iter.                  ...        0 min,  1.456 sec
     gradient                   ...        0 min,  0.435 sec
 * total energy  :  -374.8176851 Eh     change       -0.1326354E-04 Eh
   gradient norm :     0.0010382 Eh/α   predicted    -0.5571882E-05 ( -57.99%)
   displ. norm   :     0.1375197 α      lambda       -0.1101125E-04
   maximum displ.:     0.0889326 α      in ANC's #3, #1, #4, ...

........................................................................
.............................. CYCLE   29 ..............................
........................................................................

 iter      E             dE          RMSdq      gap      omega  full diag
   1   -382.0809442 -0.382081E+03  0.203E-02    0.16       0.0  T
   2   -382.0809330  0.112700E-04  0.135E-02    0.16       1.0  T
   3   -382.0803074  0.625571E-03  0.330E-02    0.17       1.0  T
   4   -382.0803313 -0.238783E-04  0.325E-02    0.15       1.0  T
   5   -382.0809438 -0.612577E-03  0.204E-03    0.16       3.4  T
   6   -382.0809454 -0.152582E-05  0.877E-04    0.16       8.0  T
   7   -382.0809456 -0.251297E-06  0.400E-04    0.16      17.5  T
   8   -382.0809456 -0.106513E-07  0.293E-04    0.16      23.8  T
     SCC iter.                  ...        0 min,  1.434 sec
     gradient                   ...        0 min,  0.463 sec
 * total energy  :  -374.8176990 Eh     change       -0.1392084E-04 Eh
   gradient norm :     0.0006364 Eh/α   predicted    -0.5556593E-05 ( -60.08%)
   displ. norm   :     0.1500894 α      lambda       -0.1145165E-04
   maximum displ.:     0.0977567 α      in ANC's #3, #1, #4, ...

........................................................................
.............................. CYCLE   30 ..............................
........................................................................

 iter      E             dE          RMSdq      gap      omega  full diag
   1   -382.0810180 -0.382081E+03  0.213E-02    0.16       0.0  T
   2   -382.0809987  0.192948E-04  0.144E-02    0.16       1.0  T
   3   -382.0794882  0.151052E-02  0.488E-02    0.18       1.0  T
   4   -382.0805799 -0.109168E-02  0.296E-02    0.15       1.0  T
   5   -382.0810172 -0.437294E-03  0.239E-03    0.16       2.9  T
   6   -382.0810193 -0.210104E-05  0.103E-03    0.16       6.8  T
   7   -382.0810197 -0.361630E-06  0.450E-04    0.16      15.5  T
   8   -382.0810197 -0.114368E-07  0.369E-04    0.16      18.9  T
     SCC iter.                  ...        0 min,  1.428 sec
     gradient                   ...        0 min,  0.426 sec
 * total energy  :  -374.8177134 Eh     change       -0.1442479E-04 Eh
   gradient norm :     0.0004229 Eh/α   predicted    -0.5783861E-05 ( -59.90%)
   displ. norm   :     0.1647708 α      lambda       -0.1196744E-04
   maximum displ.:     0.1073478 α      in ANC's #3, #1, #4, ...

........................................................................
.............................. CYCLE   31 ..............................
........................................................................

 iter      E             dE          RMSdq      gap      omega  full diag
   1   -382.0811002 -0.382081E+03  0.238E-02    0.16       0.0  T
   2   -382.0810797  0.204312E-04  0.159E-02    0.16       1.0  T
   3   -382.0789725  0.210718E-02  0.572E-02    0.18       1.0  T
   4   -382.0807452 -0.177262E-02  0.274E-02    0.15       1.0  T
   5   -382.0810996 -0.354394E-03  0.228E-03    0.16       3.1  T
   6   -382.0811012 -0.168874E-05  0.105E-03    0.16       6.6  T
   7   -382.0811016 -0.331364E-06  0.548E-04    0.16      12.7  T
   8   -382.0811016 -0.754983E-08  0.489E-04    0.16      14.3  T
     SCC iter.                  ...        0 min,  1.421 sec
     gradient                   ...        0 min,  0.433 sec
 * total energy  :  -374.8177285 Eh     change       -0.1513536E-04 Eh
   gradient norm :     0.0007425 Eh/α   predicted    -0.6056449E-05 ( -59.98%)
   displ. norm   :     0.1841358 α      lambda       -0.1279081E-04
   maximum displ.:     0.1198926 α      in ANC's #3, #1, #4, ...

........................................................................
.............................. CYCLE   32 ..............................
........................................................................

 iter      E             dE          RMSdq      gap      omega  full diag
   1   -382.0810861 -0.382081E+03  0.226E-02    0.16       0.0  T
   2   -382.0810745  0.115585E-04  0.145E-02    0.16       1.0  T
   3   -382.0792827  0.179184E-02  0.526E-02    0.18       1.0  T
   4   -382.0809360 -0.165327E-02  0.182E-02    0.16       1.0  T
   5   -382.0810859 -0.149913E-03  0.156E-03    0.16       4.5  T
   6   -382.0810866 -0.757402E-06  0.856E-04    0.16       8.2  T
   7   -382.0810868 -0.207256E-06  0.482E-04    0.16      14.5  T
     SCC iter.                  ...        0 min,  1.251 sec
     gradient                   ...        0 min,  0.443 sec
 * total energy  :  -374.8177449 Eh     change       -0.1640443E-04 Eh
   gradient norm :     0.0008957 Eh/α   predicted    -0.6494913E-05 ( -60.41%)
   displ. norm   :     0.2101468 α      lambda       -0.1425134E-04
   maximum displ.:     0.1365864 α      in ANC's #3, #1, #4, ...

........................................................................
.............................. CYCLE   33 ..............................
........................................................................

 iter      E             dE          RMSdq      gap      omega  full diag
   1   -382.0810241 -0.382081E+03  0.235E-02    0.16       0.0  T
   2   -382.0810224  0.172523E-05  0.143E-02    0.16       1.0  T
   3   -382.0807394  0.282973E-03  0.218E-02    0.17       1.0  T
   4   -382.0809344 -0.195002E-03  0.125E-02    0.16       1.0  T
   5   -382.0810239 -0.894355E-04  0.123E-03    0.16       5.7  T
   6   -382.0810242 -0.370328E-06  0.830E-04    0.16       8.4  T
   7   -382.0810244 -0.143979E-06  0.540E-04    0.16      12.9  T
     SCC iter.                  ...        0 min,  1.210 sec
     gradient                   ...        0 min,  0.430 sec
 * total energy  :  -374.8177630 Eh     change       -0.1805758E-04 Eh
   gradient norm :     0.0007992 Eh/α   predicted    -0.7267297E-05 ( -59.75%)
   displ. norm   :     0.2431448 α      lambda       -0.1579527E-04
   maximum displ.:     0.1580278 α      in ANC's #3, #1, #4, ...

........................................................................
.............................. CYCLE   34 ..............................
........................................................................

 iter      E             dE          RMSdq      gap      omega  full diag
   1   -382.0809231 -0.382081E+03  0.247E-02    0.16       0.0  T
   2   -382.0809209  0.219689E-05  0.148E-02    0.16       1.0  T
   3   -382.0802411  0.679799E-03  0.322E-02    0.15       1.0  T
   4   -382.0808912 -0.650093E-03  0.840E-03    0.16       1.0  T
   5   -382.0809229 -0.317356E-04  0.117E-03    0.16       6.0  T
   6   -382.0809233 -0.330967E-06  0.657E-04    0.16      10.6  T
   7   -382.0809233 -0.201197E-07  0.594E-04    0.16      11.8  T
     SCC iter.                  ...        0 min,  1.268 sec
     gradient                   ...        0 min,  0.429 sec
 * total energy  :  -374.8177824 Eh     change       -0.1942025E-04 Eh
   gradient norm :     0.0005374 Eh/α   predicted    -0.8105873E-05 ( -58.26%)
   displ. norm   :     0.2504380 α      lambda       -0.1449239E-04
   maximum displ.:     0.1635472 α      in ANC's #3, #1, #4, ...

........................................................................
.............................. CYCLE   35 ..............................
........................................................................

 iter      E             dE          RMSdq      gap      omega  full diag
   1   -382.0808627 -0.382081E+03  0.257E-02    0.16       0.0  T
   2   -382.0808587  0.400318E-05  0.156E-02    0.16       1.0  T
   3   -382.0797295  0.112913E-02  0.410E-02    0.15       1.0  T
   4   -382.0807996 -0.107005E-02  0.123E-02    0.17       1.0  T
   5   -382.0808622 -0.626464E-04  0.163E-03    0.16       4.3  T
   6   -382.0808629 -0.677748E-06  0.820E-04    0.16       8.5  T
   7   -382.0808630 -0.538756E-07  0.637E-04    0.16      11.0  T
     SCC iter.                  ...        0 min,  1.202 sec
     gradient                   ...        0 min,  0.433 sec
 * total energy  :  -374.8178001 Eh     change       -0.1772646E-04 Eh
   gradient norm :     0.0003835 Eh/α   predicted    -0.7452266E-05 ( -57.96%)
   displ. norm   :     0.2286219 α      lambda       -0.1159530E-04
   maximum displ.:     0.1502345 α      in ANC's #3, #1, #4, ...

........................................................................
.............................. CYCLE   36 ..............................
........................................................................

 iter      E             dE          RMSdq      gap      omega  full diag
   1   -382.0809753 -0.382081E+03  0.244E-02    0.16       0.0  T
   2   -382.0809690  0.625452E-05  0.151E-02    0.16       1.0  T
   3   -382.0798779  0.109110E-02  0.411E-02    0.15       1.0  T
   4   -382.0807673 -0.889382E-03  0.204E-02    0.17       1.0  T
   5   -382.0809744 -0.207109E-03  0.205E-03    0.16       3.4  T
   6   -382.0809757 -0.128204E-05  0.876E-04    0.16       8.0  T
   7   -382.0809759 -0.153193E-06  0.583E-04    0.16      12.0  T
   8   -382.0809759 -0.493719E-07  0.423E-04    0.16      16.5  T
     SCC iter.                  ...        0 min,  1.407 sec
     gradient                   ...        0 min,  0.458 sec
 * total energy  :  -374.8178144 Eh     change       -0.1421105E-04 Eh
   gradient norm :     0.0004247 Eh/α   predicted    -0.5933098E-05 ( -58.25%)
   displ. norm   :     0.1910714 α      lambda       -0.8542072E-05
   maximum displ.:     0.1263821 α      in ANC's #3, #1, #4, ...

........................................................................
.............................. CYCLE   37 ..............................
........................................................................

 iter      E             dE          RMSdq      gap      omega  full diag
   1   -382.0811688 -0.382081E+03  0.214E-02    0.16       0.0  T
   2   -382.0811622  0.658116E-05  0.135E-02    0.16       1.0  T
   3   -382.0802750  0.887192E-03  0.374E-02    0.15       1.0  T
   4   -382.0809186 -0.643538E-03  0.219E-02    0.17       1.0  T
   5   -382.0811685 -0.249932E-03  0.167E-03    0.16       4.2  T
   6   -382.0811693 -0.812142E-06  0.742E-04    0.16       9.4  T
   7   -382.0811694 -0.875346E-07  0.524E-04    0.16      13.3  T
     SCC iter.                  ...        0 min,  1.247 sec
     gradient                   ...        0 min,  0.456 sec
 * total energy  :  -374.8178246 Eh     change       -0.1020788E-04 Eh
   gradient norm :     0.0004356 Eh/α   predicted    -0.4344073E-05 ( -57.44%)
   displ. norm   :     0.1561450 α      lambda       -0.6269168E-05
   maximum displ.:     0.1038754 α      in ANC's #3, #1, #4, ...

........................................................................
.............................. CYCLE   38 ..............................
........................................................................

 iter      E             dE          RMSdq      gap      omega  full diag
   1   -382.0813964 -0.382081E+03  0.175E-02    0.16       0.0  T
   2   -382.0813929  0.355521E-05  0.110E-02    0.16       1.0  T
   3   -382.0810927  0.300183E-03  0.239E-02    0.16       1.0  T
   4   -382.0812656 -0.172881E-03  0.150E-02    0.17       1.0  T
   5   -382.0813958 -0.130192E-03  0.162E-03    0.16       4.3  T
   6   -382.0813968 -0.102438E-05  0.560E-04    0.16      12.5  T
   7   -382.0813968 -0.198276E-07  0.472E-04    0.16      14.8  T
   8   -382.0813968 -0.407957E-07  0.310E-04    0.16      22.5  T
     SCC iter.                  ...        0 min,  1.427 sec
     gradient                   ...        0 min,  0.432 sec
 * total energy  :  -374.8178319 Eh     change       -0.7348884E-05 Eh
   gradient norm :     0.0003674 Eh/α   predicted    -0.3171853E-05 ( -56.84%)
   displ. norm   :     0.1242746 α      lambda       -0.4623323E-05
   maximum displ.:     0.0828126 α      in ANC's #3, #1, #4, ...

........................................................................
.............................. CYCLE   39 ..............................
........................................................................

 iter      E             dE          RMSdq      gap      omega  full diag
   1   -382.0815677 -0.382082E+03  0.128E-02    0.16       0.0  T
   2   -382.0815662  0.147827E-05  0.797E-03    0.16       1.0  T
   3   -382.0813971  0.169163E-03  0.171E-02    0.16       1.0  T
   4   -382.0815060 -0.108922E-03  0.105E-02    0.17       1.0  T
   5   -382.0815676 -0.616136E-04  0.859E-04    0.16       8.1  T
   6   -382.0815678 -0.258185E-06  0.381E-04    0.16      18.3  T
   7   -382.0815678  0.811065E-08  0.350E-04    0.16      20.0  T
     SCC iter.                  ...        0 min,  1.318 sec
     gradient                   ...        0 min,  0.449 sec
 * total energy  :  -374.8178371 Eh     change       -0.5219779E-05 Eh
   gradient norm :     0.0002618 Eh/α   predicted    -0.2328794E-05 ( -55.39%)
   displ. norm   :     0.1041711 α      lambda       -0.3703725E-05
   maximum displ.:     0.0688066 α      in ANC's #3, #1, #4, ...

........................................................................
.............................. CYCLE   40 ..............................
........................................................................

 iter      E             dE          RMSdq      gap      omega  full diag
   1   -382.0816560 -0.382082E+03  0.980E-03    0.16       0.0  T
   2   -382.0816555  0.513662E-06  0.597E-03    0.16       1.2  T
   3   -382.0816009  0.545452E-04  0.114E-02    0.16       1.0  T
   4   -382.0816452 -0.442162E-04  0.409E-03    0.16       1.7  T
   5   -382.0816559 -0.107176E-04  0.712E-04    0.16       9.8  T
   6   -382.0816561 -0.189468E-06  0.250E-04    0.16      28.0  T
   7   -382.0816561  0.145278E-07  0.282E-04    0.16      24.8  T
     SCC iter.                  ...        0 min,  1.292 sec
     gradient                   ...        0 min,  0.453 sec
 * total energy  :  -374.8178414 Eh     change       -0.4287788E-05 Eh
   gradient norm :     0.0002499 Eh/α   predicted    -0.1862474E-05 ( -56.56%)
   displ. norm   :     0.1019212 α      lambda       -0.3517660E-05
   maximum displ.:     0.0658390 α      in ANC's #3, #1, #4, ...

   *** GEOMETRY OPTIMIZATION CONVERGED AFTER 40 ITERATIONS ***

------------------------------------------------------------------------
 total energy gain   :        -0.0281883 Eh      -17.6884 kcal/mol
 total RMSD          :         0.3831198 a0        0.2027 Å
 total power (kW/mol):        -1.8502077 (step)   -0.8485 (real)
------------------------------------------------------------------------

 ANCopt (total)                0 d,  0 h,  1 min, 27.227 sec
 optimizer setup                ...        0 min,  0.004 sec (  0.005%)
 model hessian                  ...        0 min,  0.441 sec (  0.506%)
 ANC generation                 ...        0 min,  0.182 sec (  0.209%)
 coordinate transformation      ...        0 min,  0.017 sec (  0.019%)
 single point calculation       ...        1 min, 26.429 sec ( 99.085%)
 optimization log               ...        0 min,  0.097 sec (  0.111%)
 hessian update                 ...        0 min,  0.012 sec (  0.014%)
 rational function              ...        0 min,  0.030 sec (  0.034%)

================
 final structure:
================
205
 xtb: 6.7.1pre (5071a88)
C           10.00286316818886        8.45946732075054       -1.39658342975217
C            9.34561977258199        9.67151891904748       -1.25533247991568
C            8.00993180715396        9.67394549083943       -0.93730191254594
C            7.29013704035857        8.48182472889437       -0.75450179295104
B           10.10873647211268        5.93063201790733       -1.39621741512260
C            9.34208719886425        7.24685166345170       -1.23842470729245
C            7.95642209510202        7.23726838382408       -0.92098540838402
C            7.24220518493564        5.99101843796113       -0.77835506032933
C            9.90325321820516        3.42370009121969       -1.23546429194351
C            9.29484523950559        4.65287289396875       -1.17734690688017
C            7.88956257732412        4.73295319214384       -0.89790920327165
C            7.14563629119727        3.54122517899791       -0.73262600063774
C            9.93659507961956        1.01248622230371       -1.05272717202298
C            9.22048988444693        2.20694551445411       -1.02748092407126
C            7.79799219167266        2.28299436546442       -0.78979042367403
C            7.07111424667605        1.10410186945079       -0.60344370654937
C            9.91680750149849       -1.45286491738243       -0.77703775181388
C            9.30163560122969       -0.21964266673041       -0.83035571087787
B            7.80017343368783       -0.20626341864221       -0.60592224230966
C            7.04115266120758       -1.48561746795774       -0.35075438826210
B            9.64145888115330       -3.97684434375149       -0.32992630773640
C            9.19687207971405       -2.63572471427305       -0.50132191667994
C            7.72803883069852       -2.69559579513939       -0.28118962685904
C            7.02085254161842       -3.90514942364572        0.00537292282177
C            9.73140584943875       -6.49080018510464        0.22884476640095
C            9.09949671432320       -5.28847691748638        0.02214124539210
C            7.66012515897750       -5.16497653242735        0.17074091380282
C            6.93061117822845       -6.32801296442126        0.49278907470882
C            9.69125016219684       -8.84745075187163        0.84435268421940
C            9.01877225555143       -7.64017690454840        0.59793058503842
C            7.60616945847281       -7.55992156690844        0.71641070930671
C            6.88762753245671       -8.72738643673442        1.06808345805171
C            8.98192409746632       -9.96176323483666        1.21308406528238
C            7.59979470212004       -9.89940960534204        1.32063359767720
C            5.89499676767969        8.48736720444241       -0.41797103040361
C            5.16843968594378        9.69962718888016       -0.16772856582775
C            3.83404988538609        9.78590216716083        0.11105452136846
C            3.01867528197084        8.62936699112734        0.17412732299128
C            5.85313028492001        6.01841179566140       -0.51046199915112
C            5.21553252129164        7.27559084353528       -0.33170069107908
B            3.73498201262780        7.31287325881557       -0.05201623757351
C            2.95628770817579        6.03073966899398       -0.01314781739687
C            5.73827376813956        3.57050118030496       -0.50148552316852
C            5.08061650455344        4.81610433534644       -0.39911685977560
C            3.65765680288993        4.82351787113924       -0.17937964184114
C            2.92915762865096        3.60753614935755       -0.12039486976212
C            5.67704342176701        1.10856859294929       -0.39773137315896
C            5.00634302379459        2.34926191357873       -0.36523209639181
C            3.60245411693039        2.36674174740910       -0.19841610700985
C            2.88199769190707        1.15264867249697       -0.10918053466924
C            5.63563016497247       -1.40102308366408       -0.18264829531368
C            4.97317369741403       -0.13089227868424       -0.22783316714561
C            3.56832723978106       -0.09362468216582       -0.10623020911535
C            2.82850889037788       -1.30262690624061        0.01695903747875
C            5.60615305111420       -3.83640344162070        0.13757429250544
C            4.91302327215839       -2.59599116796343        0.02357727203903
C            3.49644185019746       -2.54653423496458        0.10410660230362
C            2.75745693634720       -3.74445938330282        0.26423087145148
C            5.51142131967500       -6.26421196889724        0.58768591571294
C            4.86427460340544       -5.02680247075952        0.38944468711414
C            3.44329715651511       -4.97714979079609        0.43465837344013
C            2.69862230848056       -6.15817624989270        0.64224617381859
C            5.44795350713437       -8.66857239739883        1.13054430749781
C            4.76402169059138       -7.45172691267583        0.87229902776213
C            3.34675965632048       -7.41528643162989        0.88508343230483
C            2.61366830497038       -8.62482193702409        1.13253034612322
C            4.70201397020997       -9.81314256574893        1.42422338243324
C            3.33501448333408       -9.78944578950483        1.41813261454523
C            1.63768237864342        8.59366498025220        0.42993082779362
C            0.93749285643946        9.79042108489345        0.72156612300607
C           -0.39816518207921        9.80260418173309        0.92798752464433
C           -1.17783031110493        8.62368596997385        0.83985737326885
C            1.56352506685670        6.08730119703981        0.18111412079065
C            0.89611004111191        7.35097848318976        0.39494196593890
C           -0.50356310552933        7.36864456065673        0.56744793671697
C           -1.23798287821282        6.13114629283441        0.45838762242463
C            1.52351762557846        3.64426310710036        0.02122067378216
C            0.83743728498743        4.87821305866561        0.15967202417419
C           -0.57051146322651        4.90308501088539        0.26947376018089
C           -1.31476040432916        3.69848300017731        0.18585989702925
C            1.46910700315690        1.19236182418593       -0.02552878892909
C            0.78775673228262        2.43116671320610        0.02455307515274
C           -0.62700531805028        2.46177664892482        0.07770302063306
C           -1.36281998044463        1.25647931215611        0.02559854710506
C            1.41204942062704       -1.25714777742475        0.04605789182034
C            0.73074162422001       -0.01681472998615        0.00731715142654
C           -0.68105531038199        0.01557267536752        0.00408720919069
C           -1.41932580277865       -1.19453600016158       -0.01494310688561
C            1.34284975798403       -3.69370930257635        0.24857800158578
C            0.67007757218023       -2.45780107317994        0.11765265618747
C           -0.74425712262642       -2.43183546292400        0.06212904429643
C           -1.48664632683291       -3.64228022733050        0.09556580198939
C            1.29244770219234       -6.09381687056814        0.59939934850748
C            0.59958537722615       -4.89020997477106        0.37792929167656
C           -0.82524924775525       -4.87394646455265        0.28760865433903
C           -1.61192507620412       -6.06395247704738        0.39419239973858
C            1.18705557881346       -8.64669400138836        1.08430704915135
B            0.49599136713333       -7.34743491814080        0.79572041962956
C           -0.99382029076526       -7.28989972110225        0.67854378694338
C           -1.74080023328570       -8.46973733050445        0.86414281597953
C            0.34715672720808       -9.77186823184109        1.26301578544687
C           -1.01589320063760       -9.67502528030508        1.16325930393405
C           -2.57264625760256        8.68667820067497        1.00189141042359
C           -3.34139912301868        9.84143874389564        1.29347746836743
C           -4.70557316158165        9.78968605971524        1.37233866568564
C           -5.50469002637096        8.61794703196703        1.17400499361566
C           -2.64366720817671        6.11954727368578        0.53413831904253
B           -3.36052789782073        7.41137719704291        0.80646200118849
C           -4.86308031816884        7.41585049643689        0.88551930443986
C           -5.55629771590065        6.19958502785233        0.64822968027584
C           -2.72857851240792        3.71858650890932        0.21579116135127
C           -3.40552880380997        4.94854008438546        0.38656553341038
C           -4.84720860514839        4.99272872942412        0.40943439137801
C           -5.58138678772261        3.79961822308747        0.18034466536296
C           -2.77950170740665        1.28701556437658       -0.00207655303408
C           -3.46698927248639        2.51845622940153        0.08133286028523
C           -4.88208586234282        2.56169090273772        0.02934611224277
C           -5.59397050075513        1.35983537127051       -0.17398799445406
C           -2.83015329787781       -1.16134924871854       -0.10635541079887
C           -3.50806923154070        0.08002326781955       -0.11483944011989
C           -4.91398057637410        0.11911118224657       -0.23536992806862
C           -5.63079423339685       -1.09253493884500       -0.42217127549084
C           -2.89485640594943       -3.60599645179830       -0.06004040437101
C           -3.56285989949753       -2.37025687537636       -0.18363049565691
C           -4.96646057012397       -2.33493916777612       -0.37944332483757
C           -5.70271843419938       -3.54180643486938       -0.53227437511592
C           -3.00989480704939       -6.03703892302415        0.18854803362272
C           -3.65029602316417       -4.80859707978654       -0.08095641650954
C           -5.03468447251969       -4.78315747597090       -0.35289659780310
C           -5.74555672402171       -6.00886165703750       -0.44916673260214
C           -3.14197642104630       -8.45196917088580        0.72051810904858
C           -3.75710475951767       -7.24729264077549        0.27560627141626
C           -5.12435158976278       -7.22772813759491       -0.11842438653197
C           -5.88695227749857       -8.45886792201240       -0.18168056371095
B           -4.05278015232739       -9.65854522633937        1.05135969271512
C           -5.43363355395373       -9.59155385743820        0.43516944443068
C           -6.94156907506864        8.63678301957981        1.24748119973149
C           -7.67270851020629        9.77472260147864        1.59388121449197
C           -9.05732720680243        9.77696194218561        1.61679054326679
C           -9.75111256200116        8.63745831215043        1.27959324580537
C           -6.97114139088614        6.21924126220209        0.64016618278245
C           -7.64434296336916        7.43890494112967        0.94066237350219
C           -9.06136072900370        7.46690509858628        0.94087425499834
C           -9.75751603483600        6.29709704082081        0.57241923270902
C           -7.00243195325943        3.82482204790623        0.10385347976492
C           -7.69766427153624        5.04529637471810        0.33085425851358
[...]
     5   5 B       10   6 C                                       1.5306835
     9   6 C       10   6 C                                       1.3727360
     8   6 C       11   6 C                                       1.4198920
    11   6 C       12   6 C                                       1.4145532
     9   6 C       14   6 C                                       1.4106434
    13   6 C       14   6 C                                       1.3929025
    12   6 C       15   6 C                                       1.4184432
    15   6 C       16   6 C                                       1.3974493
    13   6 C       18   6 C                                       1.4038392
    17   6 C       18   6 C                                       1.3791725
    16   6 C       19   5 B                                       1.4995303
    18   6 C       19   5 B                                       1.5182024
    19   5 B       20   6 C                                       1.5092947
    17   6 C       22   6 C                                       1.4119079
    21   5 B       22   6 C                                       1.4232484
    20   6 C       23   6 C                                       1.3930900
    23   6 C       24   6 C                                       1.4301227
    21   5 B       26   6 C                                       1.4622089
    25   6 C       26   6 C                                       1.3739058
    24   6 C       27   6 C                                       1.4223856
    27   6 C       28   6 C                                       1.4101630
    25   6 C       30   6 C                                       1.4018339
    29   6 C       30   6 C                                       1.4037311
    28   6 C       31   6 C                                       1.4226682
    30   6 C       31   6 C                                       1.4198329
    31   6 C       32   6 C                                       1.4152564
    29   6 C       33   6 C                                       1.3714222
    32   6 C       34   6 C                                       1.3944900
    33   6 C       34   6 C                                       1.3877092
    36   6 C       37   6 C                                       1.3659282
    37   6 C       38   6 C                                       1.4164702
     8   6 C       39   6 C                                       1.4149369
    35   6 C       40   6 C                                       1.3919470
    39   6 C       40   6 C                                       1.4209103
    38   6 C       41   5 B                                       1.5157151
    40   6 C       41   5 B                                       1.5071973
    41   5 B       42   6 C                                       1.5005807
    12   6 C       43   6 C                                       1.4265177
    39   6 C       44   6 C                                       1.4334291
    43   6 C       44   6 C                                       1.4122748
    42   6 C       45   6 C                                       1.4060357
    45   6 C       46   6 C                                       1.4187326
    16   6 C       47   6 C                                       1.4091740
    43   6 C       48   6 C                                       1.4302844
    47   6 C       48   6 C                                       1.4107500
    46   6 C       49   6 C                                       1.4138552
    48   6 C       49   6 C                                       1.4138732
    49   6 C       50   6 C                                       1.4145822
    20   6 C       51   6 C                                       1.4180655
    51   6 C       52   6 C                                       1.4332212
    50   6 C       53   6 C                                       1.4227630
    52   6 C       53   6 C                                       1.4105921
    53   6 C       54   6 C                                       1.4227416
    24   6 C       55   6 C                                       1.4225253
    51   6 C       56   6 C                                       1.4116086
    55   6 C       56   6 C                                       1.4254989
    54   6 C       57   6 C                                       1.4145794
    56   6 C       57   6 C                                       1.4197303
    57   6 C       58   6 C                                       1.4166028
    28   6 C       59   6 C                                       1.4237894
    55   6 C       60   6 C                                       1.4250869
    59   6 C       60   6 C                                       1.4104188
    58   6 C       61   6 C                                       1.4208970
    60   6 C       61   6 C                                       1.4225635
    61   6 C       62   6 C                                       1.4115443
    59   6 C       64   6 C                                       1.4317133
    63   6 C       64   6 C                                       1.4195657
    62   6 C       65   6 C                                       1.4350534
    64   6 C       65   6 C                                       1.4177882
    63   6 C       67   6 C                                       1.3973956
    66   6 C       68   6 C                                       1.3993777
    67   6 C       68   6 C                                       1.3672186
    38   6 C       69   6 C                                       1.4049384
    69   6 C       70   6 C                                       1.4168776
    70   6 C       71   6 C                                       1.3515698
    71   6 C       72   6 C                                       1.4161544
    42   6 C       73   6 C                                       1.4073823
    74   6 C       75   6 C                                       1.4103743
    46   6 C       77   6 C                                       1.4132332
    73   6 C       78   6 C                                       1.4105168
    77   6 C       78   6 C                                       1.4186289
    76   6 C       79   6 C                                       1.4104402
    78   6 C       79   6 C                                       1.4124429
    79   6 C       80   6 C                                       1.4184372
    50   6 C       81   6 C                                       1.4159220
    77   6 C       82   6 C                                       1.4187877
    81   6 C       82   6 C                                       1.4147029
    80   6 C       83   6 C                                       1.4192068
    82   6 C       83   6 C                                       1.4160911
    83   6 C       84   6 C                                       1.4131101
    54   6 C       85   6 C                                       1.4174882
    81   6 C       86   6 C                                       1.4171699
    85   6 C       86   6 C                                       1.4156651
    84   6 C       87   6 C                                       1.4160210
    86   6 C       87   6 C                                       1.4121722
    87   6 C       88   6 C                                       1.4176632
    58   6 C       89   6 C                                       1.4156039
    85   6 C       90   6 C                                       1.4132292
    89   6 C       90   6 C                                       1.4132351
    88   6 C       91   6 C                                       1.4115836
    90   6 C       91   6 C                                       1.4156624
    91   6 C       92   6 C                                       1.4203650
    62   6 C       93   6 C                                       1.4082988
    89   6 C       94   6 C                                       1.4144921
    93   6 C       94   6 C                                       1.4063346
    92   6 C       95   6 C                                       1.4111444
    94   6 C       95   6 C                                       1.4277872
    95   6 C       96   6 C                                       1.4305012
    66   6 C       97   6 C                                       1.4275952
    93   6 C       98   5 B                                       1.4981466
    97   6 C       98   5 B                                       1.4996421
    96   6 C       99   6 C                                       1.4020900
    98   5 B       99   6 C                                       1.4955199
    99   6 C      100   6 C                                       1.4087027
    97   6 C      101   6 C                                       1.4154096
   101   6 C      102   6 C                                       1.3701224
    72   6 C      103   6 C                                       1.4056084
   103   6 C      104   6 C                                       1.4175598
   104   6 C      105   6 C                                       1.3674314
   105   6 C      106   6 C                                       1.4320952
    76   6 C      107   6 C                                       1.4077718
   103   6 C      108   5 B                                       1.5117352
   107   6 C      108   5 B                                       1.5022897
   106   6 C      109   6 C                                       1.3928113
   108   5 B      109   6 C                                       1.5046376
   109   6 C      110   6 C                                       1.4199151
    80   6 C      111   6 C                                       1.4142779
   107   6 C      112   6 C                                       1.4048021
   111   6 C      112   6 C                                       1.4142884
   110   6 C      113   6 C                                       1.4199764
   113   6 C      114   6 C                                       1.4195115
    84   6 C      115   6 C                                       1.4172812
   111   6 C      116   6 C                                       1.4155008
   115   6 C      116   6 C                                       1.4128138
   114   6 C      117   6 C                                       1.4297856
   116   6 C      117   6 C                                       1.4167112
   117   6 C      118   6 C                                       1.4115883
    88   6 C      119   6 C                                       1.4141754
   115   6 C      120   6 C                                       1.4143397
   119   6 C      120   6 C                                       1.4144427
   118   6 C      121   6 C                                       1.4161748
   120   6 C      121   6 C                                       1.4116099
   121   6 C      122   6 C                                       1.4201420
    92   6 C      123   6 C                                       1.4172459
   119   6 C      124   6 C                                       1.4157289
   123   6 C      124   6 C                                       1.4101616
   122   6 C      125   6 C                                       1.4095154
   124   6 C      125   6 C                                       1.4176337
   125   6 C      126   6 C                                       1.4219571
    96   6 C      127   6 C                                       1.4132706
   123   6 C      128   6 C                                       1.4203433
   127   6 C      128   6 C                                       1.4113172
   126   6 C      129   6 C                                       1.4210554
   128   6 C      129   6 C                                       1.4110742
   129   6 C      130   6 C                                       1.4201966
   100   6 C      131   6 C                                       1.4086301
   127   6 C      132   6 C                                       1.4249969
   131   6 C      132   6 C                                       1.4239295
   130   6 C      133   6 C                                       1.4074524
   132   6 C      133   6 C                                       1.4230275
   131   6 C      135   5 B                                       1.5475289 (max)
   134   6 C      136   6 C                                       1.3671063
   135   5 B      136   6 C                                       1.5135834
   137   6 C      138   6 C                                       1.3962323
   138   6 C      139   6 C                                       1.3848101
   139   6 C      140   6 C                                       1.3760483
   110   6 C      141   6 C                                       1.4150033
   137   6 C      142   6 C                                       1.4223014
   141   6 C      142   6 C                                       1.4251590
   140   6 C      143   6 C                                       1.4002440
   142   6 C      143   6 C                                       1.4172945
   143   6 C      144   6 C                                       1.4102633
   114   6 C      145   6 C                                       1.4233256
   141   6 C      146   6 C                                       1.4147990
   145   6 C      146   6 C                                       1.4228265
   144   6 C      147   6 C                                       1.3721544
   146   6 C      147   6 C                                       1.4338665
   147   6 C      148   5 B                                       1.5296593
   118   6 C      149   6 C                                       1.4204856
   145   6 C      150   6 C                                       1.4349448
   149   6 C      150   6 C                                       1.4135058
   148   5 B      151   6 C                                       1.5283585
   150   6 C      151   6 C                                       1.4268001
   151   6 C      152   6 C                                       1.3798547
   122   6 C      153   6 C                                       1.4147829
   149   6 C      154   6 C                                       1.4173632
   153   6 C      154   6 C                                       1.4179223
   152   6 C      155   6 C                                       1.3972323
   154   6 C      155   6 C                                       1.4137946
   155   6 C      156   6 C                                       1.4044945
   126   6 C      157   6 C                                       1.4135640
   153   6 C      158   6 C                                       1.4169532
   157   6 C      158   6 C                                       1.4219152
   156   6 C      159   6 C                                       1.3741196
   158   6 C      159   6 C                                       1.4316073
   159   6 C      160   5 B                                       1.5297905
   130   6 C      161   6 C                                       1.4316696
   161   6 C      162   6 C                                       1.4046418
   160   5 B      163   6 C                                       1.5314383
   162   6 C      163   6 C                                       1.4320290
   163   6 C      164   6 C                                       1.3753489
   161   6 C      166   6 C                                       1.4215494
   165   6 C      166   6 C                                       1.4124818
   164   6 C      167   6 C                                       1.4052765
   166   6 C      167   6 C                                       1.4157425
   167   6 C      168   6 C                                       1.4054482
   165   6 C      169   6 C                                       1.3878157
   168   6 C      170   6 C                                       1.3705062
   169   6 C      170   6 C                                       1.3919560
     1   6 C      171   1 H                                       1.0805465
     2   6 C      172   1 H                                       1.0806491
     3   6 C      173   1 H                                       1.0782611
     5   5 B      174   1 H                                       1.1716790
     9   6 C      175   1 H                                       1.0820405
    13   6 C      176   1 H                                       1.0848599
    17   6 C      177   1 H                                       1.0853133
    25   6 C      178   1 H                                       1.0807200
    29   6 C      179   1 H                                       1.0800118
    36   6 C      180   1 H                                       1.0798063
    37   6 C      181   1 H                                       1.0827953
    70   6 C      182   1 H                                       1.0785213
    71   6 C      183   1 H                                       1.0785349
   104   6 C      184   1 H                                       1.0828645
   105   6 C      185   1 H                                       1.0801954
   138   6 C      186   1 H                                       1.0783515
   139   6 C      187   1 H                                       1.0802606
   140   6 C      188   1 H                                       1.0804675
   144   6 C      189   1 H                                       1.0814271
   148   5 B      190   1 H                                       1.1706994
   152   6 C      191   1 H                                       1.0809247
   156   6 C      192   1 H                                       1.0810676
   160   5 B      193   1 H                                       1.1707140
   164   6 C      194   1 H                                       1.0811307
   168   6 C      195   1 H                                       1.0803234
   170   6 C      196   1 H                                       1.0802564
    33   6 C      197   1 H                                       1.0798495
    34   6 C      198   1 H                                       1.0770794 (min)
    67   6 C      199   1 H                                       1.0773167
    68   6 C      200   1 H                                       1.0787508
   101   6 C      201   1 H                                       1.0839996
   102   6 C      202   1 H                                       1.0790995
   135   5 B      203   1 H                                       1.1712500
   136   6 C      204   1 H                                       1.0817515
   169   6 C      205   1 H                                       1.0789772

 * 4 distinct bonds (by element types)

   Z      Z             #   av. dist./Å        max./Å        min./Å
   1 H    5 B           4     1.1710856     1.1716790     1.1706994
   1 H    6 C          31     1.0805211     1.0853133     1.0770794
   5 B    6 C          22     1.5086526     1.5475289     1.4232484
   6 C    6 C         194     1.4107492     1.4350534     1.3515698


optimized geometry written to: xtbopt.xyz


           -------------------------------------------------
          | TOTAL ENERGY             -374.817841426920 Eh   |
          | GRADIENT NORM               0.000246446841 Eh/α |
          | HOMO-LUMO GAP               0.161484317225 eV   |
           -------------------------------------------------

------------------------------------------------------------------------
 * finished run on 2025/12/08 at 00:51:21.135     
------------------------------------------------------------------------
 total:
 * wall-time:     0 d,  0 h,  1 min, 36.074 sec
 *  cpu-time:     0 d,  0 h,  6 min, 16.422 sec
 * ratio c/w:     3.918 speedup
 SCF:
 * wall-time:     0 d,  0 h,  0 min,  7.509 sec
 *  cpu-time:     0 d,  0 h,  0 min, 29.641 sec
 * ratio c/w:     3.947 speedup
 ANC optimizer:
 * wall-time:     0 d,  0 h,  1 min, 28.390 sec
 *  cpu-time:     0 d,  0 h,  5 min, 46.156 sec
 * ratio c/w:     3.916 speedup

normal termination of xtb
