      -----------------------------------------------------------      
     |                   =====================                   |     
     |                           x T B                           |     
     |                   =====================                   |     
     |                         S. Grimme                         |     
     |          Mulliken Center for Theoretical Chemistry        |     
     |                    University of Bonn                     |     
      -----------------------------------------------------------      

   * xtb version 6.7.1pre (5071a88) compiled by 'Marcel@Raven' on 2024-07-23

   xtb is free software: you can redistribute it and/or modify it under
   the terms of the GNU Lesser General Public License as published by
   the Free Software Foundation, either version 3 of the License, or
   (at your option) any later version.
   
   xtb is distributed in the hope that it will be useful,
   but WITHOUT ANY WARRANTY; without even the implied warranty of
   MERCHANTABILITY or FITNESS FOR A PARTICULAR PURPOSE.  See the
   GNU Lesser General Public License for more details.
   
   Cite this work as:
   * C. Bannwarth, E. Caldeweyher, S. Ehlert, A. Hansen, P. Pracht,
     J. Seibert, S. Spicher, S. Grimme, WIREs Comput. Mol. Sci., 2020, 11,
     e01493. DOI: 10.1002/wcms.1493
   
   for GFN2-xTB:
   * C. Bannwarth, S. Ehlert and S. Grimme., J. Chem. Theory Comput., 2019,
     15, 1652-1671. DOI: 10.1021/acs.jctc.8b01176
   for GFN1-xTB:
   * S. Grimme, C. Bannwarth, P. Shushkov, J. Chem. Theory Comput., 2017,
     13, 1989-2009. DOI: 10.1021/acs.jctc.7b00118
   for GFN0-xTB:
   * P. Pracht, E. Caldeweyher, S. Ehlert, S. Grimme, ChemRxiv, 2019, preprint.
     DOI: 10.26434/chemrxiv.8326202.v1
   for GFN-FF:
   * S. Spicher and S. Grimme, Angew. Chem. Int. Ed., 2020, 59, 15665-15673.
     DOI: 10.1002/anie.202004239
   
   for ALPB and GBSA implicit solvation:
   * S. Ehlert, M. Stahn, S. Spicher, S. Grimme, J. Chem. Theory Comput.,
     2021, 17, 4250-4261. DOI: 10.1021/acs.jctc.1c00471
   
   for ddCOSMO and CPCM-X implicit solvation:
   * M. Stahn, S. Ehlert, S. Grimme, J. Phys. Chem. A,
     2023, XX, XXXX-XXXX. DOI: 10.1021/acs.jpca.3c04382
   
   for DFT-D4:
   * E. Caldeweyher, C. Bannwarth and S. Grimme, J. Chem. Phys., 2017,
     147, 034112. DOI: 10.1063/1.4993215
   * E. Caldeweyher, S. Ehlert, A. Hansen, H. Neugebauer, S. Spicher,
     C. Bannwarth and S. Grimme, J. Chem. Phys., 2019, 150, 154122.
     DOI: 10.1063/1.5090222
   * E. Caldeweyher, J.-M. Mewes, S. Ehlert and S. Grimme, Phys. Chem. Chem. Phys.
     2020, 22, 8499-8512. DOI: 10.1039/D0CP00502A
   
   for sTDA-xTB:
   * S. Grimme and C. Bannwarth, J. Chem. Phys., 2016, 145, 054103.
     DOI: 10.1063/1.4959605
   
   in the mass-spec context:
   * V. Asgeirsson, C. Bauer and S. Grimme, Chem. Sci., 2017, 8, 4879.
     DOI: 10.1039/c7sc00601b
   * J. Koopman and S. Grimme, ACS Omega 2019, 4, 12, 15120-15133.
     DOI: 10.1021/acsomega.9b02011
   
   for metadynamics refer to:
   * S. Grimme, J. Chem. Theory Comput., 2019, 155, 2847-2862
     DOI: 10.1021/acs.jctc.9b00143
   
   for SPH calculations refer to:
   * S. Spicher and S. Grimme, J. Chem. Theory Comput., 2021, 17, 1701-1714
     DOI: 10.1021/acs.jctc.0c01306
   
   for ONIOM refer to:
   * C. Plett, A. Katbashev, S. Ehlert, S. Grimme, M. Bursch,
     Phys. Chem. Chem. Phys., 2023, 25, 17860-17868. DOI: 10.1039/D3CP02178E
   
   for DIPRO refer to:
   * J. Kohn, N. Gildemeister, S. Grimme, D. Fazzi, A. Hansen,
     J. Chem. Phys., 2023, just accepted.
   
   for PTB refer to:
   * S. Grimme, M. Mueller, A. Hansen, J. Chem. Phys., 2023, 158, 124111.
     DOI: 10.1063/5.0137838
   
   with help from (in alphabetical order)
   P. Atkinson, C. Bannwarth, F. Bohle, G. Brandenburg, E. Caldeweyher
   M. Checinski, S. Dohm, S. Ehlert, S. Ehrlich, I. Gerasimov, C. Hölzer
   A. Katbashev, J. Kohn, J. Koopman, C. Lavigne, S. Lehtola, F. März, M. Müller,
   F. Musil, H. Neugebauer, J. Pisarek, C. Plett, P. Pracht, F. Pultar,
   J. Seibert, P. Shushkov, S. Spicher, M. Stahn, M. Steiner, T. Strunk,
   J. Stückrath, T. Rose, and J. Unsleber
   
 * started run on 2025/12/08 at 00:51:21.169     
   ID    Z sym.   atoms
    1    6 C      1-4, 6-18, 20, 22-40, 42-97, 99-107, 109-134, 136-147,
                  149-159, 161-170
    2    5 B      5, 19, 21, 41, 98, 108, 135, 148, 160
    3    1 H      171-205

           -------------------------------------------------
          |                Calculation Setup                |
           -------------------------------------------------

          program call               : xtb "C:\Users\LENOVO GAMING\Documents\GitHub\molecular-conductivity-sim\results\2nm-9Bdoped-5percent\xtbopt.xyz" --sp
          coordinate file            : C:\Users\LENOVO GAMING\Documents\GitHub\molecular-conductivity-sim\results\2nm-9Bdoped-5percent\xtbopt.xyz
          omp threads                :                    16


           -------------------------------------------------
          |                 G F N 2 - x T B                 |
           -------------------------------------------------

        Reference                      10.1021/acs.jctc.8b01176
      * Hamiltonian:
        H0-scaling (s, p, d)           1.850000    2.230000    2.230000
        zeta-weighting                 0.500000
      * Dispersion:
        s8                             2.700000
        a1                             0.520000
        a2                             5.000000
        s9                             5.000000
      * Repulsion:
        kExp                           1.500000    1.000000
        rExp                           1.000000
      * Coulomb:
        alpha                          2.000000
        third order                    shell-resolved
        anisotropic                    true
        a3                             3.000000
        a5                             4.000000
        cn-shift                       1.200000
        cn-exp                         4.000000
        max-rad                        5.000000

q/qsh data taken from xtbrestart
CAMM data taken from xtbrestart

          ...................................................
          :                      SETUP                      :
          :.................................................:
          :  # basis functions                 715          :
          :  # atomic orbitals                 715          :
          :  # shells                          375          :
          :  # electrons                       706          :
          :  max. iterations                   250          :
          :  Hamiltonian                  GFN2-xTB          :
          :  restarted?                       true          :
          :  GBSA solvation                  false          :
          :  PC potential                    false          :
          :  electronic temp.          300.0000000     K    :
          :  accuracy                    1.0000000          :
          :  -> integral cutoff          0.2500000E+02      :
          :  -> integral neglect         0.1000000E-07      :
          :  -> SCF convergence          0.1000000E-05 Eh   :
          :  -> wf. convergence          0.1000000E-03 e    :
          :  Broyden damping             0.4000000          :
          :  net charge                          0          :
          :  unpaired electrons                  0          :
          ...................................................

 iter      E             dE          RMSdq      gap      omega  full diag
   1   -382.0816561 -0.382082E+03  0.726E-05    0.16       0.0  T
   2   -382.0816560  0.118881E-06  0.457E-04    0.16      15.3  T
   3   -382.0816561 -0.119200E-06  0.611E-05    0.16     114.3  T

   *** convergence criteria satisfied after 3 iterations ***

         #    Occupation            Energy/Eh            Energy/eV
      -------------------------------------------------------------
         1        2.0000           -0.6722085             -18.2917
       ...           ...                  ...                  ...
       347        2.0000           -0.3583574              -9.7514
       348        2.0000           -0.3569642              -9.7135
       349        2.0000           -0.3535564              -9.6208
       350        2.0000           -0.3511598              -9.5555
       351        2.0000           -0.3506054              -9.5405
       352        1.9810           -0.3399776              -9.2513
       353        1.9244           -0.3386383              -9.2148 (HOMO)
       354        0.0944           -0.3327076              -9.0534 (LUMO)
       355        0.0002           -0.3266933              -8.8898
       356                         -0.3195827              -8.6963
       357                         -0.3056725              -8.3178
       358                         -0.2970300              -8.0826
       ...                                ...                  ...
       715                          0.7950097              21.6333
      -------------------------------------------------------------
                  HL-Gap            0.0059308 Eh            0.1614 eV
             Fermi-level           -0.3355626 Eh           -9.1311 eV

 SCC (total)                   0 d,  0 h,  0 min,  0.702 sec
 SCC setup                      ...        0 min,  0.002 sec (  0.285%)
 Dispersion                     ...        0 min,  0.022 sec (  3.134%)
 classical contributions        ...        0 min,  0.001 sec (  0.142%)
 integral evaluation            ...        0 min,  0.055 sec (  7.835%)
 iterations                     ...        0 min,  0.429 sec ( 61.111%)
 molecular gradient             ...        0 min,  0.181 sec ( 25.783%)
 printout                       ...        0 min,  0.012 sec (  1.709%)

         :::::::::::::::::::::::::::::::::::::::::::::::::::::
         ::                     SUMMARY                     ::
         :::::::::::::::::::::::::::::::::::::::::::::::::::::
         :: total energy            -374.817841445057 Eh    ::
         :: gradient norm              0.000246920876 Eh/a0 ::
         :: HOMO-LUMO gap              0.161384457172 eV    ::
         ::.................................................::
         :: SCC energy              -382.097529661778 Eh    ::
         :: -> isotropic ES            0.182399036667 Eh    ::
         :: -> anisotropic ES          0.032688001704 Eh    ::
         :: -> anisotropic XC          0.125740969512 Eh    ::
         :: -> dispersion             -0.484446322526 Eh    ::
         :: repulsion energy           7.279688216721 Eh    ::
         :: add. restraining           0.000000000000 Eh    ::
         :: total charge               0.000000000626 e     ::
         :::::::::::::::::::::::::::::::::::::::::::::::::::::

           -------------------------------------------------
          |                Property Printout                |
           -------------------------------------------------

    * Orbital Energies and Occupations

         #    Occupation            Energy/Eh            Energy/eV
      -------------------------------------------------------------
         1        2.0000           -0.6722085             -18.2917
       ...           ...                  ...                  ...
       341        2.0000           -0.3661412              -9.9632
       342        2.0000           -0.3654700              -9.9449
       343        2.0000           -0.3627794              -9.8717
       344        2.0000           -0.3625006              -9.8641
       345        2.0000           -0.3614054              -9.8343
       346        2.0000           -0.3608486              -9.8192
       347        2.0000           -0.3583574              -9.7514
       348        2.0000           -0.3569642              -9.7135
       349        2.0000           -0.3535564              -9.6208
       350        2.0000           -0.3511598              -9.5555
       351        2.0000           -0.3506054              -9.5405
       352        1.9810           -0.3399776              -9.2513
       353        1.9244           -0.3386383              -9.2148 (HOMO)
       354        0.0944           -0.3327076              -9.0534 (LUMO)
       355        0.0002           -0.3266933              -8.8898
       356                         -0.3195827              -8.6963
       357                         -0.3056725              -8.3178
       358                         -0.2970300              -8.0826
       359                         -0.2899368              -7.8896
       360                         -0.2888691              -7.8605
       361                         -0.2880728              -7.8389
       362                         -0.2781627              -7.5692
       363                         -0.2750922              -7.4856
       364                         -0.2693864              -7.3304
       ...                                ...                  ...
       715                          0.7950097              21.6333
      -------------------------------------------------------------
                  HL-Gap            0.0059308 Eh            0.1614 eV
             Fermi-level           -0.3355626 Eh           -9.1311 eV

     #   Z          covCN         q      C6AA      α(0)
     1   6 C        2.923    -0.024    28.615     8.772
     2   6 C        2.910    -0.033    28.827     8.804
     3   6 C        2.924    -0.029    28.727     8.790
     4   6 C        2.978     0.006    27.871     8.660
     5   5 B        2.758     0.212    18.159     7.130
     6   6 C        2.890    -0.073    29.820     8.953
     7   6 C        2.979     0.008    27.837     8.655
     8   6 C        2.976    -0.004    28.119     8.698
     9   6 C        2.925    -0.023    28.576     8.766
    10   6 C        2.885    -0.075    29.863     8.959
    11   6 C        2.980     0.007    27.848     8.656
    12   6 C        2.983    -0.003    28.098     8.695
    13   6 C        2.914    -0.027    28.684     8.782
    14   6 C        2.971     0.003    27.954     8.673
    15   6 C        2.984     0.009    27.815     8.651
    16   6 C        2.903    -0.084    30.101     8.996
    17   6 C        2.904    -0.013    28.348     8.730
    18   6 C        2.885    -0.066    29.646     8.927
    19   5 B        2.752     0.187    18.522     7.202
    20   6 C        2.900    -0.073    29.829     8.955
    21   5 B        1.920     0.270    35.733    12.581
    22   6 C        2.884    -0.082    30.050     8.987
    23   6 C        3.030     0.007    27.844     8.655
    24   6 C        2.972    -0.019    28.479     8.754
    25   6 C        2.917    -0.026    28.660     8.779
    26   6 C        2.891    -0.068    29.683     8.932
    27   6 C        3.009     0.002    27.967     8.675
    28   6 C        2.982     0.004    27.927     8.669
    29   6 C        2.923    -0.034    28.848     8.808
    30   6 C        2.985     0.013    27.722     8.637
    31   6 C        2.993     0.006    27.884     8.662
    32   6 C        2.978     0.009    27.820     8.652
    33   6 C        2.913    -0.029    28.716     8.787
    34   6 C        2.924    -0.030    28.752     8.793
    35   6 C        2.969     0.011    27.757     8.642
    36   6 C        2.912    -0.039    28.961     8.824
    37   6 C        2.901    -0.033    28.819     8.802
    38   6 C        2.891    -0.061    29.517     8.908
    39   6 C        2.977     0.004    27.918     8.667
    40   6 C        2.903    -0.080    30.007     8.982
    41   5 B        2.752     0.185    18.547     7.207
    42   6 C        2.902    -0.080    29.999     8.981
    43   6 C        2.983     0.002    27.967     8.675
    44   6 C        2.976    -0.010    28.266     8.721
    45   6 C        2.979     0.007    27.852     8.657
    46   6 C        2.989    -0.001    28.041     8.686
    47   6 C        2.982     0.006    27.886     8.662
    48   6 C        2.987    -0.002    28.066     8.690
    49   6 C        2.989     0.001    27.997     8.680
    50   6 C        2.986    -0.003    28.094     8.695
    51   6 C        2.980     0.005    27.904     8.665
    52   6 C        2.977    -0.008    28.220     8.714
    53   6 C        2.986     0.002    27.975     8.676
    54   6 C        2.986    -0.002    28.067     8.690
    55   6 C        2.984     0.003    27.955     8.673
    56   6 C        2.985    -0.003    28.085     8.693
    57   6 C        2.987     0.001    27.999     8.680
    58   6 C        2.987    -0.002    28.067     8.690
    59   6 C        2.983     0.001    28.009     8.681
    60   6 C        2.983    -0.000    28.025     8.684
    61   6 C        2.987     0.004    27.931     8.669
    62   6 C        2.980     0.002    27.972     8.676
    63   6 C        2.980     0.005    27.895     8.664
    64   6 C        2.984     0.002    27.986     8.678
    65   6 C        2.980    -0.007    28.181     8.708
    66   6 C        2.970     0.010    27.784     8.646
    67   6 C        2.917    -0.040    28.994     8.830
    68   6 C        2.919    -0.029    28.724     8.789
    69   6 C        2.969     0.015    27.670     8.628
    70   6 C        2.915    -0.033    28.814     8.802
    71   6 C        2.915    -0.034    28.857     8.809
    72   6 C        2.970     0.018    27.603     8.618
    73   6 C        2.979     0.001    28.007     8.681
    74   6 C        2.974     0.001    28.011     8.681
    75   6 C        2.973     0.001    28.009     8.681
    76   6 C        2.979    -0.001    28.037     8.686
    77   6 C        2.989     0.001    27.989     8.678
    78   6 C        2.990     0.000    28.011     8.682
    79   6 C        2.990     0.000    28.017     8.683
    80   6 C        2.988     0.000    28.009     8.681
    81   6 C        2.988     0.001    27.993     8.679
    82   6 C        2.988    -0.002    28.064     8.690
    83   6 C        2.988     0.001    28.008     8.681
    84   6 C        2.989     0.000    28.011     8.682
    85   6 C        2.989     0.002    27.973     8.676
    86   6 C        2.989    -0.002    28.058     8.689
    87   6 C        2.989    -0.000    28.031     8.685
    88   6 C        2.990    -0.000    28.026     8.684
    89   6 C        2.991     0.000    28.013     8.682
    90   6 C        2.990    -0.001    28.049     8.688
    91   6 C        2.989    -0.001    28.046     8.687
    92   6 C        2.988    -0.000    28.028     8.684
    93   6 C        2.904    -0.076    29.891     8.965
    94   6 C        2.983     0.003    27.961     8.674
    95   6 C        2.982    -0.004    28.110     8.697
    96   6 C        2.984     0.004    27.929     8.669
    97   6 C        2.889    -0.060    29.496     8.904
    98   5 B        2.754     0.161    18.904     7.276
    99   6 C        2.907    -0.083    30.075     8.992
   100   6 C        2.970     0.017    27.637     8.623
   101   6 C        2.901    -0.031    28.779     8.796
   102   6 C        2.911    -0.040    28.999     8.830
   103   6 C        2.890    -0.065    29.623     8.923
   104   6 C        2.901    -0.032    28.786     8.797
   105   6 C        2.911    -0.043    29.057     8.839
   106   6 C        2.969     0.012    27.735     8.638
   107   6 C        2.903    -0.078    29.937     8.971
   108   5 B        2.753     0.184    18.568     7.211
   109   6 C        2.904    -0.080    30.009     8.982
   110   6 C        2.980     0.004    27.924     8.668
   111   6 C        2.990    -0.000    28.025     8.684
   112   6 C        2.979     0.007    27.863     8.659
   113   6 C        2.976    -0.009    28.229     8.715
   114   6 C        2.981     0.003    27.959     8.674
   115   6 C        2.990    -0.002    28.061     8.690
   116   6 C        2.988     0.000    28.014     8.682
   117   6 C        2.984    -0.001    28.039     8.686
   118   6 C        2.988     0.001    28.001     8.680
   119   6 C        2.990    -0.000    28.025     8.684
   120   6 C        2.991    -0.000    28.024     8.684
   121   6 C        2.988    -0.002    28.079     8.692
   122   6 C        2.990     0.000    28.019     8.683
   123   6 C        2.989    -0.003    28.092     8.694
   124   6 C        2.990     0.001    28.002     8.680
   125   6 C        2.988    -0.003    28.091     8.694
   126   6 C        2.985     0.000    28.017     8.683
   127   6 C        2.990    -0.001    28.040     8.686
   128   6 C        2.989    -0.001    28.042     8.687
   129   6 C        2.988     0.001    27.992     8.679
   130   6 C        2.983     0.002    27.966     8.675
   131   6 C        2.888    -0.060    29.502     8.905
   132   6 C        2.980    -0.001    28.057     8.689
   133   6 C        2.980    -0.001    28.056     8.689
   134   6 C        2.965     0.011    27.757     8.642
   135   5 B        2.754     0.208    18.218     7.143
   136   6 C        2.827    -0.121    31.076     9.135
   137   6 C        2.977     0.008    27.839     8.655
   138   6 C        2.921    -0.029    28.731     8.790
   139   6 C        2.912    -0.031    28.777     8.796
   140   6 C        2.923    -0.031    28.762     8.795
   141   6 C        2.985     0.000    28.018     8.683
   142   6 C        2.994     0.005    27.896     8.664
   143   6 C        2.982     0.009    27.802     8.649
   144   6 C        2.923    -0.024    28.616     8.772
   145   6 C        2.975    -0.008    28.221     8.714
   146   6 C        2.980     0.005    27.907     8.665
   147   6 C        2.886    -0.072    29.789     8.948
   148   5 B        2.759     0.213    18.137     7.125
   149   6 C        2.986    -0.002    28.065     8.690
   150   6 C        2.979     0.008    27.835     8.654
   151   6 C        2.888    -0.074    29.845     8.957
   152   6 C        2.924    -0.027    28.685     8.783
   153   6 C        2.988     0.000    28.015     8.682
   154   6 C        2.996     0.006    27.865     8.659
   155   6 C        2.979     0.005    27.896     8.664
   156   6 C        2.923    -0.026    28.649     8.778
   157   6 C        2.978    -0.004    28.118     8.698
   158   6 C        2.982     0.006    27.891     8.663
   159   6 C        2.887    -0.074    29.837     8.955
   160   5 B        2.758     0.213    18.133     7.125
   161   6 C        2.984    -0.001    28.046     8.687
   162   6 C        2.980     0.005    27.911     8.666
   163   6 C        2.887    -0.073    29.813     8.952
   164   6 C        2.923    -0.028    28.690     8.784
   165   6 C        2.979     0.006    27.887     8.662
   166   6 C        2.997     0.004    27.921     8.668
   167   6 C        2.983     0.009    27.811     8.651
   168   6 C        2.921    -0.033    28.835     8.806
   169   6 C        2.924    -0.031    28.764     8.795
   170   6 C        2.913    -0.031    28.776     8.796
   171   1 H        0.926     0.030     2.582     2.513
   172   1 H        0.926     0.025     2.659     2.550
   173   1 H        0.926     0.032     2.562     2.503
   174   1 H        0.938    -0.109     5.895     3.796
   175   1 H        0.925     0.032     2.557     2.501
   176   1 H        0.925     0.025     2.658     2.550
   177   1 H        0.925     0.024     2.675     2.558
   178   1 H        0.926     0.035     2.523     2.484
   179   1 H        0.926     0.035     2.523     2.484
   180   1 H        0.926     0.028     2.608     2.525
   181   1 H        0.925     0.020     2.732     2.585
   182   1 H        0.926     0.035     2.523     2.484
   183   1 H        0.926     0.034     2.525     2.485
   184   1 H        0.925     0.020     2.734     2.586
   185   1 H        0.926     0.026     2.643     2.542
   186   1 H        0.926     0.037     2.494     2.470
   187   1 H        0.926     0.031     2.575     2.510
   188   1 H        0.926     0.034     2.532     2.488
   189   1 H        0.925     0.035     2.513     2.479
   190   1 H        0.939    -0.106     5.763     3.753
   191   1 H        0.926     0.035     2.514     2.479
   192   1 H        0.926     0.035     2.511     2.478
   193   1 H        0.939    -0.106     5.755     3.751
   194   1 H        0.926     0.034     2.523     2.484
   195   1 H        0.926     0.033     2.549     2.497
   196   1 H        0.926     0.030     2.581     2.512
   197   1 H        0.926     0.035     2.511     2.478
   198   1 H        0.926     0.041     2.434     2.440
   199   1 H        0.926     0.031     2.574     2.509
   200   1 H        0.926     0.038     2.473     2.459
   201   1 H        0.925     0.017     2.787     2.611
   202   1 H        0.926     0.037     2.491     2.468
   203   1 H        0.939    -0.110     5.907     3.800
   204   1 H        0.925     0.019     2.752     2.594
   205   1 H        0.926     0.039     2.466     2.455

 Mol. C6AA /au·bohr⁶  :     916022.082310
 Mol. C8AA /au·bohr⁸  :   25723650.048997
 Mol. α(0) /au        :       1569.564277


Wiberg/Mayer (AO) data.
largest (>0.10) Wiberg bond orders for each atom

 ---------------------------------------------------------------------------
     #   Z sym  total        # sym  WBO       # sym  WBO       # sym  WBO
 ---------------------------------------------------------------------------
     1   6 C    3.964 --     6 C    1.423     2 C    1.392   171 H    0.970
     2   6 C    3.976 --     3 C    1.487     1 C    1.392   172 H    0.970
     3   6 C    3.971 --     2 C    1.487     4 C    1.325   173 H    0.960
     4   6 C    3.967 --     3 C    1.325     7 C    1.276    35 C    1.173
     5   5 B    3.351 --     6 C    1.072    10 C    1.068   174 H    0.969
     6   6 C    3.952 --     1 C    1.423     7 C    1.279     5 B    1.072
     7   6 C    3.969 --     6 C    1.279     4 C    1.276     8 C    1.189
     8   6 C    3.943 --    39 C    1.286    11 C    1.255     7 C    1.189
     9   6 C    3.948 --    10 C    1.513    14 C    1.253   175 H    0.965
    10   6 C    3.921 --     9 C    1.513    11 C    1.190     5 B    1.068
    11   6 C    3.942 --    12 C    1.278     8 C    1.255    10 C    1.190
    12   6 C    3.972 --    11 C    1.278    15 C    1.246    43 C    1.227
    13   6 C    3.885 --    14 C    1.400    18 C    1.293   176 H    0.963
    14   6 C    3.960 --    13 C    1.400     9 C    1.253    15 C    1.152
    15   6 C    3.948 --    16 C    1.338    12 C    1.246    14 C    1.152
    16   6 C    3.929 --    15 C    1.338    47 C    1.260    19 B    1.105
    17   6 C    3.901 --    18 C    1.436    22 C    1.291   177 H    0.963
    18   6 C    3.925 --    17 C    1.436    13 C    1.293    19 B    1.043
    19   5 B    3.485 --    16 C    1.105    20 C    1.075    18 C    1.043
    20   6 C    3.905 --    23 C    1.372    51 C    1.234    19 B    1.075
    21   5 B    3.177 --    22 C    1.483    26 C    1.241    23 C    0.102
    22   6 C    3.961 --    21 B    1.483    17 C    1.291    23 C    1.035
    23   6 C    3.937 --    20 C    1.372    24 C    1.229    22 C    1.035
                            21 B    0.102
    24   6 C    3.960 --    55 C    1.263    27 C    1.256    23 C    1.229
    25   6 C    3.906 --    26 C    1.459    30 C    1.281   178 H    0.967
    26   6 C    3.982 --    25 C    1.459    21 B    1.241    27 C    1.117
    27   6 C    3.935 --    28 C    1.291    24 C    1.256    26 C    1.117
    28   6 C    3.976 --    27 C    1.291    31 C    1.236    59 C    1.220
    29   6 C    3.927 --    33 C    1.489    30 C    1.296   179 H    0.968
    30   6 C    3.985 --    29 C    1.296    25 C    1.281    31 C    1.238
    31   6 C    3.958 --    32 C    1.259    30 C    1.238    28 C    1.236
    32   6 C    3.980 --    34 C    1.387    31 C    1.259    63 C    1.141
    33   6 C    3.981 --    29 C    1.489    34 C    1.398   197 H    0.970
    34   6 C    3.926 --    33 C    1.398    32 C    1.387   198 H    0.960
    35   6 C    3.947 --    40 C    1.385    36 C    1.194     4 C    1.173
    36   6 C    3.878 --    37 C    1.594    35 C    1.194   180 H    0.961
    37   6 C    3.962 --    36 C    1.594    38 C    1.257   181 H    0.959
    38   6 C    3.804 --    69 C    1.331    37 C    1.257    41 B    1.046
    39   6 C    3.962 --     8 C    1.286    44 C    1.231    40 C    1.227
    40   6 C    3.928 --    35 C    1.385    39 C    1.227    41 B    1.083
    41   5 B    3.434 --    42 C    1.085    40 C    1.083    38 C    1.046
    42   6 C    3.901 --    45 C    1.305    73 C    1.295    41 B    1.085
    43   6 C    3.968 --    44 C    1.297    12 C    1.227    48 C    1.220
    44   6 C    3.952 --    43 C    1.297    39 C    1.231    45 C    1.197
    45   6 C    3.948 --    42 C    1.305    46 C    1.236    44 C    1.197
    46   6 C    3.963 --    77 C    1.268    49 C    1.241    45 C    1.236
    47   6 C    3.943 --    48 C    1.276    16 C    1.260    52 C    1.205
    48   6 C    3.962 --    47 C    1.276    49 C    1.245    43 C    1.220
    49   6 C    3.955 --    50 C    1.256    48 C    1.245    46 C    1.241
    50   6 C    3.954 --    49 C    1.256    81 C    1.252    53 C    1.230
    51   6 C    3.952 --    56 C    1.275    20 C    1.234    52 C    1.223
    52   6 C    3.938 --    53 C    1.294    51 C    1.223    47 C    1.205
    53   6 C    3.964 --    52 C    1.294    50 C    1.230    54 C    1.225
    54   6 C    3.958 --    57 C    1.269    85 C    1.246    53 C    1.225
    55   6 C    3.968 --    24 C    1.263    56 C    1.242    60 C    1.231
    56   6 C    3.967 --    51 C    1.275    55 C    1.242    57 C    1.229
    57   6 C    3.952 --    54 C    1.269    58 C    1.241    56 C    1.229
    58   6 C    3.962 --    89 C    1.259    61 C    1.243    57 C    1.241
    59   6 C    3.957 --    60 C    1.298    28 C    1.220    64 C    1.207
    60   6 C    3.970 --    59 C    1.298    55 C    1.231    61 C    1.219
    61   6 C    3.953 --    62 C    1.273    58 C    1.243    60 C    1.219
    62   6 C    3.956 --    93 C    1.276    61 C    1.273    65 C    1.202
    63   6 C    3.932 --    67 C    1.339    64 C    1.264    32 C    1.141
    64   6 C    3.979 --    65 C    1.287    63 C    1.264    59 C    1.207
    65   6 C    3.950 --    64 C    1.287    66 C    1.232    62 C    1.202
    66   6 C    3.959 --    68 C    1.322    65 C    1.232    97 C    1.213
    67   6 C    3.967 --    68 C    1.492    63 C    1.339   199 H    0.959
    68   6 C    3.936 --    67 C    1.492    66 C    1.322   200 H    0.962
    69   6 C    3.941 --    38 C    1.331    70 C    1.232    74 C    1.183
    70   6 C    3.944 --    71 C    1.601    69 C    1.232   182 H    0.961
    71   6 C    3.946 --    70 C    1.601    72 C    1.236   183 H    0.961
    72   6 C    3.942 --   103 C    1.330    71 C    1.236    75 C    1.176
    73   6 C    3.947 --    42 C    1.295    78 C    1.268    74 C    1.182
    74   6 C    3.944 --    75 C    1.365    69 C    1.183    73 C    1.182
    75   6 C    3.943 --    74 C    1.365    76 C    1.189    72 C    1.176
    76   6 C    3.951 --   107 C    1.291    79 C    1.267    75 C    1.189
    77   6 C    3.964 --    46 C    1.268    78 C    1.238    82 C    1.235
    78   6 C    3.961 --    73 C    1.268    77 C    1.238    79 C    1.236
    79   6 C    3.960 --    76 C    1.267    80 C    1.240    78 C    1.236
    80   6 C    3.962 --   111 C    1.266    79 C    1.240    83 C    1.233
    81   6 C    3.953 --    82 C    1.257    50 C    1.252    86 C    1.234
    82   6 C    3.956 --    81 C    1.257    83 C    1.251    77 C    1.235
    83   6 C    3.953 --    84 C    1.257    82 C    1.251    80 C    1.233
    84   6 C    3.954 --    83 C    1.257    87 C    1.243   115 C    1.241
    85   6 C    3.953 --    90 C    1.252    54 C    1.246    86 C    1.244
    86   6 C    3.956 --    87 C    1.265    85 C    1.244    81 C    1.234
    87   6 C    3.957 --    86 C    1.265    84 C    1.243    88 C    1.234
    88   6 C    3.958 --    91 C    1.261   119 C    1.250    87 C    1.234
    89   6 C    3.960 --    58 C    1.259    90 C    1.244    94 C    1.239
    90   6 C    3.960 --    85 C    1.252    91 C    1.248    89 C    1.244
    91   6 C    3.951 --    88 C    1.261    90 C    1.248    92 C    1.229
    92   6 C    3.964 --    95 C    1.275   123 C    1.246    91 C    1.229
    93   6 C    3.905 --    94 C    1.284    62 C    1.276    98 B    1.096
    94   6 C    3.959 --    93 C    1.284    89 C    1.239    95 C    1.227
    95   6 C    3.948 --    92 C    1.275    94 C    1.227    96 C    1.207
    96   6 C    3.968 --    99 C    1.293   127 C    1.251    95 C    1.207
    97   6 C    3.805 --   101 C    1.276    66 C    1.213    98 B    1.109
    98   5 B    3.540 --    99 C    1.117    97 C    1.109    93 C    1.096
    99   6 C    3.914 --    96 C    1.293   100 C    1.267    98 B    1.117
   100   6 C    3.959 --   131 C    1.326    99 C    1.267   102 C    1.182
   101   6 C    3.966 --   102 C    1.582    97 C    1.276   201 H    0.960
   102   6 C    3.885 --   101 C    1.582   100 C    1.182   202 H    0.965
   103   6 C    3.817 --    72 C    1.330   104 C    1.256   108 B    1.060
   104   6 C    3.959 --   105 C    1.590   103 C    1.256   184 H    0.959
   105   6 C    3.893 --   104 C    1.590   106 C    1.206   185 H    0.962
   106   6 C    3.936 --   109 C    1.384   105 C    1.206   137 C    1.159
   107   6 C    3.895 --   112 C    1.314    76 C    1.291   108 B    1.075
   108   5 B    3.440 --   109 C    1.085   107 C    1.075   103 C    1.060
   109   6 C    3.927 --   106 C    1.384   110 C    1.224   108 B    1.085
   110   6 C    3.958 --   113 C    1.271   141 C    1.244   109 C    1.224
   111   6 C    3.961 --    80 C    1.266   112 C    1.247   116 C    1.231
   112   6 C    3.949 --   107 C    1.314   111 C    1.247   113 C    1.180
   113   6 C    3.951 --   114 C    1.272   110 C    1.271   112 C    1.180
   114   6 C    3.969 --   113 C    1.272   145 C    1.263   117 C    1.213
   115   6 C    3.958 --   116 C    1.259   120 C    1.243    84 C    1.241
   116   6 C    3.954 --   115 C    1.259   117 C    1.251   111 C    1.231
   117   6 C    3.952 --   118 C    1.273   116 C    1.251   114 C    1.213
   118   6 C    3.951 --   117 C    1.273   121 C    1.253   149 C    1.216
   119   6 C    3.949 --    88 C    1.250   120 C    1.244   124 C    1.243
   120   6 C    3.961 --   121 C    1.259   119 C    1.244   115 C    1.243
   121   6 C    3.957 --   120 C    1.259   118 C    1.253   122 C    1.229
   122   6 C    3.960 --   125 C    1.274   153 C    1.239   121 C    1.229
   123   6 C    3.947 --   124 C    1.264    92 C    1.246   128 C    1.224
   124   6 C    3.957 --   123 C    1.264   119 C    1.243   125 C    1.237
   125   6 C    3.963 --   122 C    1.274   124 C    1.237   126 C    1.232
   126   6 C    3.968 --   157 C    1.282   129 C    1.232   125 C    1.232
   127   6 C    3.963 --   128 C    1.254    96 C    1.251   132 C    1.230
   128   6 C    3.975 --   129 C    1.266   127 C    1.254   123 C    1.224
   129   6 C    3.947 --   128 C    1.266   130 C    1.236   126 C    1.232
   130   6 C    3.975 --   133 C    1.323   129 C    1.236   161 C    1.184
   131   6 C    3.853 --   100 C    1.326   132 C    1.274   135 B    1.034
   132   6 C    3.973 --   131 C    1.274   133 C    1.251   127 C    1.230
   133   6 C    3.914 --   130 C    1.323   132 C    1.251   134 C    1.132
   134   6 C    3.970 --   136 C    1.584   133 C    1.132   165 C    1.100
   135   5 B    3.311 --   136 C    1.126   131 C    1.034   203 H    0.962
   136   6 C    3.882 --   134 C    1.584   135 B    1.126   204 H    0.964
   137   6 C    3.977 --   138 C    1.370   142 C    1.253   106 C    1.159
   138   6 C    3.930 --   139 C    1.420   137 C    1.370   186 H    0.962
   139   6 C    3.981 --   140 C    1.465   138 C    1.420   187 H    0.970
   140   6 C    3.937 --   139 C    1.465   143 C    1.320   188 H    0.968
   141   6 C    3.971 --   146 C    1.269   110 C    1.244   142 C    1.238
   142   6 C    3.979 --   137 C    1.253   143 C    1.249   141 C    1.238
   143   6 C    3.986 --   140 C    1.320   142 C    1.249   144 C    1.246
   144   6 C    3.952 --   147 C    1.521   143 C    1.246   189 H    0.966
   145   6 C    3.948 --   146 C    1.263   114 C    1.263   150 C    1.205
   146   6 C    3.950 --   141 C    1.269   145 C    1.263   147 C    1.198
   147   6 C    3.953 --   144 C    1.521   146 C    1.198   148 B    1.064
   148   5 B    3.344 --   151 C    1.073   147 C    1.064   190 H    0.970
   149   6 C    3.972 --   150 C    1.287   154 C    1.252   118 C    1.216
   150   6 C    3.945 --   149 C    1.287   151 C    1.238   145 C    1.205
   151   6 C    3.936 --   152 C    1.461   150 C    1.238   148 B    1.073
   152   6 C    3.946 --   151 C    1.461   155 C    1.300   191 H    0.966
   153   6 C    3.967 --   158 C    1.269   154 C    1.244   122 C    1.239
   154   6 C    3.971 --   149 C    1.252   153 C    1.244   155 C    1.239
   155   6 C    3.970 --   152 C    1.300   156 C    1.267   154 C    1.239
   156   6 C    3.950 --   159 C    1.500   155 C    1.267   192 H    0.966
   157   6 C    3.933 --   126 C    1.282   158 C    1.255   162 C    1.191
   158   6 C    3.943 --   153 C    1.269   157 C    1.255   159 C    1.207
   159   6 C    3.938 --   156 C    1.500   158 C    1.207   160 B    1.070
   160   5 B    3.339 --   159 C    1.070   163 C    1.067   193 H    0.970
   161   6 C    3.968 --   162 C    1.334   166 C    1.229   130 C    1.184
   162   6 C    3.949 --   161 C    1.334   163 C    1.212   157 C    1.191
   163   6 C    3.950 --   164 C    1.500   162 C    1.212   160 B    1.067
   164   6 C    3.956 --   163 C    1.500   167 C    1.269   194 H    0.966
   165   6 C    3.983 --   169 C    1.422   166 C    1.263   134 C    1.100
   166   6 C    3.980 --   165 C    1.263   167 C    1.251   161 C    1.229
   167   6 C    3.982 --   168 C    1.292   164 C    1.269   166 C    1.251
   168   6 C    3.970 --   170 C    1.508   167 C    1.292   195 H    0.968
   169   6 C    3.970 --   165 C    1.422   170 C    1.377   205 H    0.963
   170   6 C    3.982 --   168 C    1.508   169 C    1.377   196 H    0.970
   171   1 H    0.998 --     1 C    0.970
   172   1 H    0.998 --     2 C    0.970
   173   1 H    0.998 --     3 C    0.960
   174   1 H    0.987 --     5 B    0.969
   175   1 H    0.997 --     9 C    0.965
   176   1 H    0.998 --    13 C    0.963
   177   1 H    0.998 --    17 C    0.963
   178   1 H    0.998 --    25 C    0.967
   179   1 H    0.998 --    29 C    0.968
   180   1 H    0.998 --    36 C    0.961
   181   1 H    0.998 --    37 C    0.959
   182   1 H    0.997 --    70 C    0.961
   183   1 H    0.997 --    71 C    0.961
   184   1 H    0.998 --   104 C    0.959
   185   1 H    0.998 --   105 C    0.962
   186   1 H    0.998 --   138 C    0.962
   187   1 H    0.998 --   139 C    0.970
   188   1 H    0.998 --   140 C    0.968
   189   1 H    0.998 --   144 C    0.966
   190   1 H    0.988 --   148 B    0.970
   191   1 H    0.998 --   152 C    0.966
   192   1 H    0.998 --   156 C    0.966
   193   1 H    0.988 --   160 B    0.970
   194   1 H    0.997 --   164 C    0.966
   195   1 H    0.998 --   168 C    0.968
   196   1 H    0.998 --   170 C    0.970
   197   1 H    0.997 --    33 C    0.970
   198   1 H    0.998 --    34 C    0.960
   199   1 H    0.998 --    67 C    0.959
   200   1 H    0.997 --    68 C    0.962
   201   1 H    0.999 --   101 C    0.960
   202   1 H    0.998 --   102 C    0.965
   203   1 H    0.985 --   135 B    0.962
   204   1 H    0.998 --   136 C    0.964
   205   1 H    0.998 --   169 C    0.963
 ---------------------------------------------------------------------------

Topologies differ in total number of bonds
Writing topology from bond orders to xtbtopo.mol

molecular dipole:
                 x           y           z       tot (Debye)
 q only:        2.546      -1.046      -0.065
   full:        2.885      -0.916      -0.057       7.694
molecular quadrupole (traceless):
                xx          xy          yy          xz          yz          zz
 q only:       54.768     -73.382     -10.868       2.865       7.564     -43.900
  q+dip:       91.847     -84.748      37.606       3.148      11.293    -129.453
   full:       59.787     -84.288       2.602       2.348      12.416     -62.389


           -------------------------------------------------
          | TOTAL ENERGY             -374.817841445057 Eh   |
          | GRADIENT NORM               0.000246920876 Eh/α |
          | HOMO-LUMO GAP               0.161384457172 eV   |
           -------------------------------------------------

------------------------------------------------------------------------
 * finished run on 2025/12/08 at 00:51:22.004     
------------------------------------------------------------------------
 total:
 * wall-time:     0 d,  0 h,  0 min,  0.832 sec
 *  cpu-time:     0 d,  0 h,  0 min, 11.500 sec
 * ratio c/w:    13.822 speedup
 SCF:
 * wall-time:     0 d,  0 h,  0 min,  0.707 sec
 *  cpu-time:     0 d,  0 h,  0 min,  9.969 sec
 * ratio c/w:    14.100 speedup

normal termination of xtb
