205
 energy: -374.817841426920 gnorm: 0.000246446841 xtb: 6.7.1pre (5071a88)
C           10.00286316818886        8.45946732075054       -1.39658342975217
C            9.34561977258199        9.67151891904748       -1.25533247991568
C            8.00993180715396        9.67394549083943       -0.93730191254594
C            7.29013704035857        8.48182472889437       -0.75450179295104
B           10.10873647211268        5.93063201790733       -1.39621741512260
C            9.34208719886425        7.24685166345170       -1.23842470729245
C            7.95642209510202        7.23726838382408       -0.92098540838402
C            7.24220518493564        5.99101843796113       -0.77835506032933
C            9.90325321820516        3.42370009121969       -1.23546429194351
C            9.29484523950559        4.65287289396875       -1.17734690688017
C            7.88956257732412        4.73295319214384       -0.89790920327165
C            7.14563629119727        3.54122517899791       -0.73262600063774
C            9.93659507961956        1.01248622230371       -1.05272717202298
C            9.22048988444693        2.20694551445411       -1.02748092407126
C            7.79799219167266        2.28299436546442       -0.78979042367403
C            7.07111424667605        1.10410186945079       -0.60344370654937
C            9.91680750149849       -1.45286491738243       -0.77703775181388
C            9.30163560122969       -0.21964266673041       -0.83035571087787
B            7.80017343368783       -0.20626341864221       -0.60592224230966
C            7.04115266120758       -1.48561746795774       -0.35075438826210
B            9.64145888115330       -3.97684434375149       -0.32992630773640
C            9.19687207971405       -2.63572471427305       -0.50132191667994
C            7.72803883069852       -2.69559579513939       -0.28118962685904
C            7.02085254161842       -3.90514942364572        0.00537292282177
C            9.73140584943875       -6.49080018510464        0.22884476640095
C            9.09949671432320       -5.28847691748638        0.02214124539210
C            7.66012515897750       -5.16497653242735        0.17074091380282
C            6.93061117822845       -6.32801296442126        0.49278907470882
C            9.69125016219684       -8.84745075187163        0.84435268421940
C            9.01877225555143       -7.64017690454840        0.59793058503842
C            7.60616945847281       -7.55992156690844        0.71641070930671
C            6.88762753245671       -8.72738643673442        1.06808345805171
C            8.98192409746632       -9.96176323483666        1.21308406528238
C            7.59979470212004       -9.89940960534204        1.32063359767720
C            5.89499676767969        8.48736720444241       -0.41797103040361
C            5.16843968594378        9.69962718888016       -0.16772856582775
C            3.83404988538609        9.78590216716083        0.11105452136846
C            3.01867528197084        8.62936699112734        0.17412732299128
C            5.85313028492001        6.01841179566140       -0.51046199915112
C            5.21553252129164        7.27559084353528       -0.33170069107908
B            3.73498201262780        7.31287325881557       -0.05201623757351
C            2.95628770817579        6.03073966899398       -0.01314781739687
C            5.73827376813956        3.57050118030496       -0.50148552316852
C            5.08061650455344        4.81610433534644       -0.39911685977560
C            3.65765680288993        4.82351787113924       -0.17937964184114
C            2.92915762865096        3.60753614935755       -0.12039486976212
C            5.67704342176701        1.10856859294929       -0.39773137315896
C            5.00634302379459        2.34926191357873       -0.36523209639181
C            3.60245411693039        2.36674174740910       -0.19841610700985
C            2.88199769190707        1.15264867249697       -0.10918053466924
C            5.63563016497247       -1.40102308366408       -0.18264829531368
C            4.97317369741403       -0.13089227868424       -0.22783316714561
C            3.56832723978106       -0.09362468216582       -0.10623020911535
C            2.82850889037788       -1.30262690624061        0.01695903747875
C            5.60615305111420       -3.83640344162070        0.13757429250544
C            4.91302327215839       -2.59599116796343        0.02357727203903
C            3.49644185019746       -2.54653423496458        0.10410660230362
C            2.75745693634720       -3.74445938330282        0.26423087145148
C            5.51142131967500       -6.26421196889724        0.58768591571294
C            4.86427460340544       -5.02680247075952        0.38944468711414
C            3.44329715651511       -4.97714979079609        0.43465837344013
C            2.69862230848056       -6.15817624989270        0.64224617381859
C            5.44795350713437       -8.66857239739883        1.13054430749781
C            4.76402169059138       -7.45172691267583        0.87229902776213
C            3.34675965632048       -7.41528643162989        0.88508343230483
C            2.61366830497038       -8.62482193702409        1.13253034612322
C            4.70201397020997       -9.81314256574893        1.42422338243324
C            3.33501448333408       -9.78944578950483        1.41813261454523
C            1.63768237864342        8.59366498025220        0.42993082779362
C            0.93749285643946        9.79042108489345        0.72156612300607
C           -0.39816518207921        9.80260418173309        0.92798752464433
C           -1.17783031110493        8.62368596997385        0.83985737326885
C            1.56352506685670        6.08730119703981        0.18111412079065
C            0.89611004111191        7.35097848318976        0.39494196593890
C           -0.50356310552933        7.36864456065673        0.56744793671697
C           -1.23798287821282        6.13114629283441        0.45838762242463
C            1.52351762557846        3.64426310710036        0.02122067378216
C            0.83743728498743        4.87821305866561        0.15967202417419
C           -0.57051146322651        4.90308501088539        0.26947376018089
C           -1.31476040432916        3.69848300017731        0.18585989702925
C            1.46910700315690        1.19236182418593       -0.02552878892909
C            0.78775673228262        2.43116671320610        0.02455307515274
C           -0.62700531805028        2.46177664892482        0.07770302063306
C           -1.36281998044463        1.25647931215611        0.02559854710506
C            1.41204942062704       -1.25714777742475        0.04605789182034
C            0.73074162422001       -0.01681472998615        0.00731715142654
C           -0.68105531038199        0.01557267536752        0.00408720919069
C           -1.41932580277865       -1.19453600016158       -0.01494310688561
C            1.34284975798403       -3.69370930257635        0.24857800158578
C            0.67007757218023       -2.45780107317994        0.11765265618747
C           -0.74425712262642       -2.43183546292400        0.06212904429643
C           -1.48664632683291       -3.64228022733050        0.09556580198939
C            1.29244770219234       -6.09381687056814        0.59939934850748
C            0.59958537722615       -4.89020997477106        0.37792929167656
C           -0.82524924775525       -4.87394646455265        0.28760865433903
C           -1.61192507620412       -6.06395247704738        0.39419239973858
C            1.18705557881346       -8.64669400138836        1.08430704915135
B            0.49599136713333       -7.34743491814080        0.79572041962956
C           -0.99382029076526       -7.28989972110225        0.67854378694338
C           -1.74080023328570       -8.46973733050445        0.86414281597953
C            0.34715672720808       -9.77186823184109        1.26301578544687
C           -1.01589320063760       -9.67502528030508        1.16325930393405
C           -2.57264625760256        8.68667820067497        1.00189141042359
C           -3.34139912301868        9.84143874389564        1.29347746836743
C           -4.70557316158165        9.78968605971524        1.37233866568564
C           -5.50469002637096        8.61794703196703        1.17400499361566
C           -2.64366720817671        6.11954727368578        0.53413831904253
B           -3.36052789782073        7.41137719704291        0.80646200118849
C           -4.86308031816884        7.41585049643689        0.88551930443986
C           -5.55629771590065        6.19958502785233        0.64822968027584
C           -2.72857851240792        3.71858650890932        0.21579116135127
C           -3.40552880380997        4.94854008438546        0.38656553341038
C           -4.84720860514839        4.99272872942412        0.40943439137801
C           -5.58138678772261        3.79961822308747        0.18034466536296
C           -2.77950170740665        1.28701556437658       -0.00207655303408
C           -3.46698927248639        2.51845622940153        0.08133286028523
C           -4.88208586234282        2.56169090273772        0.02934611224277
C           -5.59397050075513        1.35983537127051       -0.17398799445406
C           -2.83015329787781       -1.16134924871854       -0.10635541079887
C           -3.50806923154070        0.08002326781955       -0.11483944011989
C           -4.91398057637410        0.11911118224657       -0.23536992806862
C           -5.63079423339685       -1.09253493884500       -0.42217127549084
C           -2.89485640594943       -3.60599645179830       -0.06004040437101
C           -3.56285989949753       -2.37025687537636       -0.18363049565691
C           -4.96646057012397       -2.33493916777612       -0.37944332483757
C           -5.70271843419938       -3.54180643486938       -0.53227437511592
C           -3.00989480704939       -6.03703892302415        0.18854803362272
C           -3.65029602316417       -4.80859707978654       -0.08095641650954
C           -5.03468447251969       -4.78315747597090       -0.35289659780310
C           -5.74555672402171       -6.00886165703750       -0.44916673260214
C           -3.14197642104630       -8.45196917088580        0.72051810904858
C           -3.75710475951767       -7.24729264077549        0.27560627141626
C           -5.12435158976278       -7.22772813759491       -0.11842438653197
C           -5.88695227749857       -8.45886792201240       -0.18168056371095
B           -4.05278015232739       -9.65854522633937        1.05135969271512
C           -5.43363355395373       -9.59155385743820        0.43516944443068
C           -6.94156907506864        8.63678301957981        1.24748119973149
C           -7.67270851020629        9.77472260147864        1.59388121449197
C           -9.05732720680243        9.77696194218561        1.61679054326679
C           -9.75111256200116        8.63745831215043        1.27959324580537
C           -6.97114139088614        6.21924126220209        0.64016618278245
C           -7.64434296336916        7.43890494112967        0.94066237350219
C           -9.06136072900370        7.46690509858628        0.94087425499834
C           -9.75751603483600        6.29709704082081        0.57241923270902
C           -7.00243195325943        3.82482204790623        0.10385347976492
C           -7.69766427153624        5.04529637471810        0.33085425851358
C           -9.12800238513807        5.11815419796001        0.26159170924803
B           -9.93923169741296        3.89540975805132       -0.17045007933951
C           -7.00575052620127        1.39570873863264       -0.32685779283382
C           -7.71024120534568        2.61484775425626       -0.20279681954540
C           -9.12477627116093        2.62080726601898       -0.38937942600172
C           -9.76398139526279        1.44883970238124       -0.73853188366468
C           -7.02580134856537       -1.05687852734575       -0.65518223368573
C           -7.69620993968437        0.19189698156355       -0.61499166173864
C           -9.08816955348014        0.23189168327773       -0.85925298762608
C           -9.75834961517877       -0.94967893595376       -1.21611981830444
C           -7.07919436494607       -3.50550153167476       -0.85189714626448
C           -7.74081024706406       -2.24923354011433       -0.92869244904358
C           -9.13024541380510       -2.17088312237780       -1.26459458204605
B           -9.89640228192348       -3.42913496237013       -1.67698353809113
C           -7.11093725476419       -5.96771109610844       -0.87779263637276
C           -7.76699404560869       -4.74396064540562       -1.09002500610752
C           -9.12174977665688       -4.74447148068225       -1.55407613543163
C           -9.72752068349291       -5.93912897265036       -1.86619695727451
C           -7.17243108081898       -8.43239880391812       -0.86067215093132
C           -7.78829014885771       -7.19097424604048       -1.13396164455390
C           -9.09061176909039       -7.17919949419124       -1.68907073379063
C           -9.72140179822597       -8.38659241962717       -2.03488933747763
C           -7.81054490485239       -9.59888262942272       -1.25836332604725
C           -9.07193804669457       -9.57866209214867       -1.84659775604848
H           11.05559031622676        8.44739479806888       -1.63989438766184
H            9.87513299350306       10.60350940037639       -1.39248868314766
H            7.51060260404791       10.62429290685470       -0.83652044833181
H           11.25062227431194        5.90035166383818       -1.65700722882414
H           10.96475472268348        3.38049122501260       -1.44079088684808
H           11.00495567858245        1.06042132777158       -1.23501448955326
H           10.98693669316357       -1.55788476291768       -0.92434356875979
H           10.80406090097228       -6.55713937343024        0.11497702854878
H           10.76619953052286       -8.87806126321875        0.74449178609995
H            5.71587326643029       10.63007145864527       -0.19162975379324
H            3.42852628286015       10.77691520090652        0.27195608697810
H            1.49066200901286       10.71408943830273        0.78519537905201
H           -0.89076828535387       10.73588357587374        1.15062860841146
H           -2.87611233257262       10.80372027188218        1.46702208789363
H           -5.21600549482304       10.71599873210857        1.59194198462919
H           -7.15875724013459       10.68535267803111        1.85741242151250
H           -9.58721813350722       10.67724276398686        1.89187728133799
H          -10.83153639593079        8.62859726696083        1.27563471237914
H          -10.83732284570727        6.34095242386427        0.53269209805451
H          -11.10117996522245        3.92979401207325       -0.30912524388161
H          -10.83129902292963        1.46359224539389       -0.90886492531930
H          -10.81170546624257       -0.88717674561270       -1.45115550796053
H          -11.00761225734865       -3.39092033461922       -2.04348447550290
H          -10.73680165452876       -5.93142763981347       -2.25367070514363
H          -10.71376528962564       -8.35375685391268       -2.46060641283305
H           -9.53617547578007      -10.50858492934613       -2.14101386586975
H            9.49043464345591      -10.89258609071808        1.41571805554050
H            7.08419801360052      -10.80020929265147        1.60841781081536
H            5.19305206511813      -10.74572970885244        1.64732385243236
H            2.79892191191994      -10.69986090875198        1.63596757179609
H            0.75527437652753      -10.75292680657513        1.47753600360836
H           -1.59908536125295      -10.57315675604412        1.29630952707427
H           -3.73378804299423      -10.54943659035195        1.74156464407741
H           -6.10125919301911      -10.44208044492520        0.46782967619025
H           -7.32208336426686      -10.55157958693277       -1.12432845840701
