205
 energy: -374.789653718918 gnorm: 0.082473983867 xtb: 6.7.1pre (5071a88)
C           10.12559100000000        8.51865800000000       -1.12448000000000
C            9.46110600000000        9.74254400000000       -0.99419600000000
C            8.10043400000000        9.74394100000000       -0.74877000000000
C            7.35530800000000        8.54350900000000       -0.62881000000000
B           10.20352400000000        5.97928400000000       -1.14810200000000
C            9.44800000000000        7.29981900000000       -1.01805000000000
C            8.03511000000000        7.28982700000000       -0.77191600000000
C            7.30319900000000        6.03574300000000       -0.66766800000000
C           10.01027500000000        3.46482300000000       -1.04726100000000
C            9.39143700000000        4.69985800000000       -0.99504000000000
C            7.96359400000000        4.77084700000000       -0.77187700000000
C            7.20906900000000        3.56920700000000       -0.64366400000000
C           10.03123000000000        1.03484200000000       -0.89750800000000
C            9.31390700000000        2.24238600000000       -0.88574500000000
C            7.87042800000000        2.30339600000000       -0.69355900000000
C            7.13716600000000        1.11371900000000       -0.54170500000000
C           10.01919100000000       -1.44034000000000       -0.64457600000000
C            9.38127400000000       -0.20176300000000       -0.71066300000000
B            7.87178900000000       -0.19097200000000       -0.53481900000000
C            7.10137500000000       -1.46888400000000       -0.31477500000000
B            9.67834100000000       -3.97223600000000       -0.23203900000000
C            9.28293300000000       -2.61967400000000       -0.41042900000000
C            7.79752900000000       -2.68455300000000       -0.23771500000000
C            7.08073200000000       -3.91582600000000        0.01203300000000
C            9.84449400000000       -6.50838200000000        0.24062700000000
C            9.19128200000000       -5.30909900000000        0.06129800000000
C            7.73588600000000       -5.18733700000000        0.16728800000000
C            7.00265600000000       -6.36801600000000        0.43790700000000
C            9.79563000000000       -8.90332100000000        0.73747200000000
C            9.11950500000000       -7.68004400000000        0.53697700000000
C            7.69209000000000       -7.61037200000000        0.62839800000000
C            6.96766500000000       -8.80037500000000        0.91430700000000
C            9.07864700000000      -10.04895200000000        1.02578700000000
C            7.68450300000000       -9.99310500000000        1.10964300000000
C            5.93409800000000        8.55077300000000       -0.37115700000000
C            5.19769100000000        9.79106500000000       -0.17727300000000
C            3.85041000000000        9.87063700000000        0.05779200000000
C            3.03283200000000        8.69074800000000        0.11929100000000
C            5.89695700000000        6.06812800000000       -0.44864400000000
C            5.24157800000000        7.33374700000000       -0.30350300000000
B            3.75434300000000        7.36806200000000       -0.07015400000000
C            2.97919100000000        6.08531400000000       -0.02941800000000
C            5.78619700000000        3.59881500000000       -0.44993000000000
C            5.12192600000000        4.85139500000000       -0.35958000000000
C            3.68256400000000        4.86543600000000       -0.17040500000000
C            2.94748100000000        3.63609100000000       -0.11994700000000
C            5.72710500000000        1.12096800000000       -0.36975400000000
C            5.04388300000000        2.36576300000000       -0.33795700000000
C            3.62772100000000        2.38516900000000       -0.19263400000000
C            2.89878200000000        1.16382900000000       -0.11175400000000
C            5.68267600000000       -1.40334100000000       -0.17765600000000
C            5.00476400000000       -0.12527200000000       -0.22117200000000
C            3.59149000000000       -0.09176600000000       -0.11528300000000
C            2.84669000000000       -1.31331400000000       -0.00002800000000
C            5.65663900000000       -3.85802800000000        0.11587300000000
C            4.95326100000000       -2.60751400000000        0.00679700000000
C            3.52495700000000       -2.56611200000000        0.07546300000000
C            2.78298400000000       -3.77464900000000        0.22179500000000
C            5.57273600000000       -6.31123700000000        0.51405800000000
C            4.91134500000000       -5.06513200000000        0.33809100000000
C            3.47958500000000       -5.02155400000000        0.37586100000000
C            2.73142100000000       -6.21466700000000        0.56295200000000
C            5.51590800000000       -8.74953500000000        0.97837600000000
C            4.82401700000000       -7.51621500000000        0.76140700000000
C            3.39724700000000       -7.47899000000000        0.78045900000000
C            2.65978900000000       -8.70320100000000        1.00390000000000
C            4.76640100000000       -9.91258300000000        1.23943500000000
C            3.39372800000000       -9.88599300000000        1.24696500000000
C            1.64451900000000        8.66572100000000        0.33748700000000
C            0.92566200000000        9.88327300000000        0.57677700000000
C           -0.41621000000000        9.90143300000000        0.75725200000000
C           -1.20481400000000        8.70662100000000        0.69772600000000
C            1.57357900000000        6.13285700000000        0.14102700000000
C            0.89405400000000        7.40698800000000        0.32130100000000
C           -0.51496400000000        7.42694200000000        0.47560800000000
C           -1.25609600000000        6.18035600000000        0.39869100000000
C            1.53138500000000        3.67014900000000        0.00710600000000
C            0.83861900000000        4.91809600000000        0.13059000000000
C           -0.57846000000000        4.94299600000000        0.23588800000000
C           -1.32850900000000        3.72545700000000        0.17258300000000
C            1.47535900000000        1.19945600000000       -0.03553200000000
C            0.78933500000000        2.44692100000000        0.01773300000000
C           -0.63554800000000        2.47612900000000        0.07049100000000
C           -1.37483100000000        1.26182200000000        0.03405800000000
C            1.42142400000000       -1.27279000000000        0.02614700000000
C            0.73258100000000       -0.02045000000000        0.00205500000000
C           -0.68684600000000        0.01020900000000        0.00164400000000
C           -1.43129400000000       -1.21202900000000       -0.00618400000000
C            1.35783800000000       -3.72902400000000        0.20901200000000
C            0.67660300000000       -2.48410200000000        0.09754300000000
C           -0.74965200000000       -2.45872600000000        0.04799700000000
C           -1.49568600000000       -3.67970300000000        0.07728100000000
C            1.31418600000000       -6.15955900000000        0.52597500000000
C            0.61357200000000       -4.94182900000000        0.32586200000000
C           -0.82151600000000       -4.92500300000000        0.23738100000000
C           -1.60299200000000       -6.13716100000000        0.32062300000000
C            1.22827500000000       -8.71894400000000        0.96186400000000
B            0.52584600000000       -7.41795700000000        0.69878800000000
C           -0.96253800000000       -7.37071600000000        0.57866400000000
C           -1.70607600000000       -8.57333500000000        0.71036100000000
C            0.39512200000000       -9.87275600000000        1.12926500000000
C           -0.97245100000000       -9.79521000000000        1.01353500000000
C           -2.60392100000000        8.76735600000000        0.83399200000000
C           -3.37510900000000        9.95743000000000        1.06373200000000
C           -4.74579800000000        9.92197100000000        1.12723500000000
C           -5.54085500000000        8.72102900000000        0.96501200000000
C           -2.67137400000000        6.17914500000000        0.47567700000000
B           -3.38786700000000        7.48212100000000        0.69322300000000
C           -4.88859100000000        7.49585200000000        0.75284200000000
C           -5.59518800000000        6.26550200000000        0.56557900000000
C           -2.75077700000000        3.74690500000000        0.20816900000000
C           -3.43199500000000        4.99475300000000        0.35612000000000
C           -4.88715500000000        5.03579600000000        0.37864500000000
C           -5.62553300000000        3.82614500000000        0.19551000000000
C           -2.80266200000000        1.29142200000000        0.01623400000000
C           -3.49366200000000        2.53313600000000        0.09857200000000
C           -4.92016800000000        2.57218200000000        0.06423100000000
C           -5.63961500000000        1.36015400000000       -0.10393400000000
C           -2.85190400000000       -1.18012800000000       -0.08343800000000
C           -3.53695600000000        0.07316800000000       -0.07611500000000
C           -4.95220800000000        0.10921100000000       -0.16908600000000
C           -5.68110300000000       -1.11428000000000       -0.32642400000000
C           -2.91450500000000       -3.64588800000000       -0.05750600000000
C           -3.59078800000000       -2.39908200000000       -0.14805200000000
C           -5.00988400000000       -2.36504700000000       -0.30768000000000
C           -5.75374700000000       -3.58367500000000       -0.44552900000000
C           -3.01403800000000       -6.10901300000000        0.12862000000000
C           -3.67190600000000       -4.86538600000000       -0.08470400000000
C           -5.07276100000000       -4.84134600000000       -0.31808500000000
C           -5.79552700000000       -6.07677700000000       -0.41955700000000
C           -3.10857100000000       -8.57716300000000        0.51180500000000
C           -3.75582800000000       -7.34075200000000        0.16155800000000
C           -5.14900000000000       -7.31711000000000       -0.17813500000000
C           -5.92313800000000       -8.56240800000000       -0.24750600000000
B           -3.96635000000000       -9.85533600000000        0.64766100000000
C           -5.40000900000000       -9.75191100000000        0.21549700000000
C           -6.99006300000000        8.75093300000000        0.99967100000000
C           -7.72525000000000        9.92893200000000        1.23218300000000
C           -9.12018900000000        9.94288800000000        1.23401400000000
C           -9.82001400000000        8.76985400000000        0.99349300000000
C           -7.01887800000000        6.28342000000000        0.55647400000000
C           -7.70216900000000        7.52952100000000        0.77324900000000
C           -9.12961700000000        7.56369500000000        0.76204000000000
C           -9.83397600000000        6.36089600000000        0.49832600000000
C           -7.05592900000000        3.84842200000000        0.14463400000000
C           -7.75489500000000        5.08918500000000        0.32469500000000
C           -9.19819100000000        5.15630300000000        0.27734700000000
B          -10.00553500000000        3.90353400000000       -0.03198500000000
C           -7.06676100000000        1.39165700000000       -0.21365600000000
C           -7.77675300000000        2.61931100000000       -0.09719900000000
C           -9.20970200000000        2.61882100000000       -0.22327400000000
C           -9.86783000000000        1.43259500000000       -0.50333400000000
C           -7.09316800000000       -1.08010800000000       -0.50485700000000
C           -7.77536100000000        0.17628800000000       -0.45113700000000
C           -9.18822000000000        0.21065200000000       -0.62799000000000
C           -9.87996500000000       -0.98416200000000       -0.92131300000000
C           -7.15253500000000       -3.54595500000000       -0.69557000000000
C           -7.82580500000000       -2.28202800000000       -0.73335300000000
C           -9.24575700000000       -2.20667200000000       -0.98518400000000
B          -10.03396600000000       -3.46586100000000       -1.31406100000000
C           -7.19810600000000       -6.02554900000000       -0.76255600000000
C           -7.86697500000000       -4.79150200000000       -0.90473200000000
C           -9.26742600000000       -4.78041000000000       -1.26134600000000
C           -9.91778300000000       -5.96827400000000       -1.53003000000000
C           -7.28062400000000       -8.50465900000000       -0.80265300000000
C           -7.91325300000000       -7.24773400000000       -0.99128900000000
C           -9.27283600000000       -7.22075500000000       -1.42672800000000
C           -9.95332000000000       -8.42142800000000       -1.73087500000000
C           -7.97750300000000       -9.66665000000000       -1.15473800000000
C           -9.30037100000000       -9.63244400000000       -1.61669400000000
H           11.19623900000000        8.50505500000000       -1.31298900000000
H           10.00069000000000       10.68082100000000       -1.08244700000000
H            7.59881000000000       10.69895000000000       -0.65226900000000
H           11.38568600000000        5.94812500000000       -1.35055500000000
H           11.08560600000000        3.42423900000000       -1.20860800000000
H           11.11121800000000        1.08622000000000       -1.03973700000000
H           11.09888100000000       -1.53262700000000       -0.75406500000000
H           10.92531100000000       -6.55781400000000        0.15824400000000
H           10.87860800000000       -8.92539800000000        0.66201100000000
H            5.74304800000000       10.72658800000000       -0.21264300000000
H            3.43023500000000       10.86548400000000        0.18419700000000
H            1.47532400000000       10.81600100000000        0.61813200000000
H           -0.91201200000000       10.84797200000000        0.93600900000000
H           -2.90247000000000       10.92811300000000        1.19454100000000
H           -5.25634700000000       10.86275000000000        1.29803600000000
H           -7.20594800000000       10.86137000000000        1.41751700000000
H           -9.65021700000000       10.87207800000000        1.41782800000000
H          -10.90642900000000        8.76544500000000        0.98064100000000
H          -10.92054100000000        6.39808600000000        0.46599100000000
H          -11.20068700000000        3.92346200000000       -0.11475600000000
H          -10.94897700000000        1.43987900000000       -0.62010900000000
H          -10.95204100000000       -0.92986600000000       -1.09591600000000
H          -11.20062900000000       -3.42637000000000       -1.58450200000000
H          -10.96516900000000       -5.94515600000000       -1.82193600000000
H          -10.98561300000000       -8.37063200000000       -2.06587900000000
H           -9.80264800000000      -10.55918100000000       -1.87630100000000
H            9.58787500000000      -10.99395100000000        1.18390000000000
H            7.15975900000000      -10.91374100000000        1.33006500000000
H            5.26105600000000      -10.85633100000000        1.42775800000000
H            2.86076700000000      -10.81022600000000        1.43942100000000
H            0.81627400000000      -10.85369400000000        1.34311500000000
H           -1.54512500000000      -10.70505400000000        1.13897300000000
H           -3.52887000000000      -10.89190500000000        1.05541600000000
H           -6.05920100000000      -10.61548600000000        0.23690800000000
H           -7.48567800000000      -10.62945400000000       -1.08531000000000
205
 energy: -374.805663538382 gnorm: 0.034900447079 xtb: 6.7.1pre (5071a88)
C           10.10450956468231        8.50793794430988       -1.12064606324433
C            9.44464472835533        9.72353932438810       -0.99187771328313
C            8.09137571417258        9.72530407622865       -0.74821048441051
C            7.34948338884363        8.53120977813963       -0.62789108942227
B           10.19356046277451        5.97359809821681       -1.14788288849567
C            9.43012174051019        7.29384674141211       -1.01455109075601
C            8.02375161304059        7.28223582448029       -0.76929897210051
C            7.29648079899893        6.03075506763955       -0.66585688012349
C            9.98353029117866        3.46026297297998       -1.04286141387080
C            9.37155030147968        4.69266974133287       -0.99054919053269
C            7.94973748999803        4.76733641329741       -0.76839837856573
C            7.19634559119644        3.56994486628263       -0.64036575227237
C           10.00873065198727        1.03889070685644       -0.89398816421277
C            9.29098713164274        2.23954856012170       -0.88069899518419
C            7.85361820366506        2.30715324294618       -0.69020726062022
C            7.12028883956954        1.12094631448193       -0.53886806158510
C            9.99292159755209       -1.43099710833527       -0.64369960217722
C            9.36518080888968       -0.19704276391137       -0.70784672330953
B            7.85407708937042       -0.19044257084959       -0.53297929340795
C            7.08628686194319       -1.47576489725074       -0.31104520298979
B            9.67542283327645       -3.96476341304579       -0.23309975075908
C            9.26354860913711       -2.61466296978675       -0.40712967127934
C            7.78115554839809       -2.68707312487722       -0.23464432329520
C            7.07090317987884       -3.91397852954090        0.01390697321084
C            9.81617612522914       -6.50271387890275        0.24161631085968
C            9.17210203390358       -5.30071590495782        0.06192463121010
C            7.72072856225870       -5.18112679114662        0.16858716345164
C            6.99036872416915       -6.36039152323270        0.43797457414293
C            9.77264357507095       -8.89140059054298        0.73671055660988
C            9.09735428293074       -7.67282372802351        0.53736724694285
C            7.67629433704377       -7.60086956797695        0.62753134624705
C            6.95620664237346       -8.78873372238634        0.91221339242578
C            9.06019020246935      -10.03049752667497        1.02312723353832
C            7.67320726199104       -9.97552821845676        1.10652427758028
C            5.93299805422304        8.53610584446117       -0.37097045803041
C            5.19052195756570        9.76147450129931       -0.17715490160496
C            3.84731437970463        9.84481452133105        0.05552173662843
C            3.02698734801164        8.67814359708265        0.11798587328142
C            5.89376636191493        6.05884104056475       -0.44855303375558
C            5.24526515314546        7.32245023498214       -0.30384968060034
B            3.75251017242198        7.35608687473649       -0.07057998564562
C            2.97165823398489        6.06974307846359       -0.02959819865186
C            5.77653307347797        3.59748293566991       -0.44822096086611
C            5.11461854956944        4.84784571760478       -0.35825134741448
C            3.67755652813951        4.85504979993566       -0.17086126418517
C            2.94353694659107        3.63058581973127       -0.11971440567129
C            5.71433270406732        1.12297058184434       -0.36682582511176
C            5.03638203687851        2.36700152691960       -0.33633330035072
C            3.62261874348541        2.38281912489011       -0.19117536565031
C            2.89616023704400        1.16175393961334       -0.11257633187050
C            5.67123070823571       -1.40282040771427       -0.17455428514640
C            5.00011577436885       -0.12514088837332       -0.21975568324257
C            3.58818193935600       -0.09181243863155       -0.11310103175328
C            2.84489103607578       -1.31154096890365       -0.00119563414916
C            5.64904046213573       -3.85385137320279        0.11667944660031
C            4.94654413040456       -2.60659606589979        0.00813537184408
C            3.52112215388617       -2.56230668311352        0.07632896496035
C            2.78133536330779       -3.76966964951115        0.22114809684107
C            5.56378200511139       -6.30230008608284        0.51223835571907
C            4.90606105227448       -5.05815767175056        0.33732122174064
C            3.47743808328582       -5.01171568605421        0.37426122623010
C            2.73276154209185       -6.20252128805743        0.56094897243016
C            5.50935644300127       -8.73298559418487        0.97426215050816
C            4.81763772393431       -7.50450581725176        0.75857345512367
C            3.39445745332205       -7.46686567662197        0.77646919853755
C            2.66164332635864       -8.68834103074294        0.99957419077827
C            4.76174090644929       -9.88967369644435        1.23390654379175
C            3.39296533279507       -9.86400734896509        1.24182640150957
C            1.63950227866201        8.64856491344135        0.33581944508811
C            0.92380058885963        9.85781172885071        0.57407993752144
C           -0.41508143124547        9.87560852621618        0.75311057278291
C           -1.20028042689183        8.68895200487659        0.69442187103880
C            1.56823259439882        6.12271970706482        0.14072847480303
C            0.89191133373331        7.39586394373982        0.31928727168084
C           -0.51427353061733        7.41597084192904        0.47318917058121
C           -1.25215771331041        6.16982902366775        0.39604152409971
C            1.52920317493089        3.66463788344191        0.00792925265915
C            0.83713199873447        4.90854527159380        0.13011304089552
C           -0.57810060482088        4.93334859499914        0.23429727826918
C           -1.32699212660493        3.71891454961640        0.17122278516385
C            1.47436439888004        1.19754682895955       -0.03348408798601
C            0.78857659676673        2.44353060549321        0.01627144058153
C           -0.63479717201568        2.47243390391109        0.07189943816124
C           -1.37361044826379        1.25899567507979        0.03205890100190
C            1.42051205256592       -1.27011891577480        0.02849661641195
C            0.73244143802282       -0.02085176987032       -0.00004179638843
C           -0.68672853896420        0.00927248793779        0.00483640700344
C           -1.42942898172242       -1.21131628258761       -0.00838302542094
C            1.35804354982805       -3.72261733622914        0.20869693914829
C            0.67650888787321       -2.48017090575765        0.09552383086137
C           -0.74826547007124       -2.45645209181540        0.05045062913428
C           -1.49316471252305       -3.67687882862437        0.07617621437266
C            1.31818152161335       -6.14230199477338        0.52252902835912
C            0.61444166162507       -4.93111336965425        0.32295725397897
C           -0.82003296035107       -4.91818078899871        0.23721089316224
C           -1.60458556036721       -6.12448682414073        0.31743464756342
C            1.23224049430829       -8.70698221298575        0.95784052060934
B            0.52611460733705       -7.40506259849511        0.69586865004991
C           -0.96814703182896       -7.35568473405646        0.57379371382581
C           -1.70575138203136       -8.55513289842800        0.70320374146420
C            0.39719577457110       -9.84738390937495        1.12185324664233
C           -0.96488400496256       -9.76385825229896        1.00510680314532
C           -2.59769588617360        8.75505699514696        0.83143984590839
C           -3.37237499047610        9.93272523349255        1.05880580602795
C           -4.73827178824071        9.89253399568331        1.12042593144616
C           -5.53957548928721        8.70577227364103        0.96083851949458
C           -2.66541597614305        6.16290895131381        0.47150208574462
B           -3.38590148484711        7.46922438315960        0.69058798944778
C           -4.89256197574312        7.48441667877876        0.74980861648755
C           -5.59106946241232        6.25454478798147        0.56384902294065
C           -2.74785530783158        3.73978302946409        0.20704528803818
C           -3.42837625097907        4.98263670650038        0.35363971803798
C           -4.88031640874092        5.02910581545073        0.37677312695836
C           -5.61729121019012        3.82165825594787        0.19540922963713
C           -2.79969457354507        1.28846673067254        0.01779196499003
C           -3.49005547956948        2.52898540253432        0.09756929161381
C           -4.91412486956277        2.57035160623102        0.06448018802516
C           -5.63084510854171        1.35817730724929       -0.10277283325803
C           -2.84951935677148       -1.18014963438114       -0.08053768388890
C           -3.53249324966233        0.07132904200729       -0.07671367914131
C           -4.94691340928792        0.10811532795109       -0.16740320073328
C           -5.67253511743304       -1.11417300587608       -0.32494772327521
C           -2.91196756831836       -3.64351775485395       -0.05582010076994
C           -3.58686789280887       -2.39826720240353       -0.14848628376491
C           -5.00417975121150       -2.36453220708611       -0.30617962769720
C           -5.74764269268181       -3.58082648107762       -0.44347046772737
C           -3.01339096684353       -6.09986151008646        0.12713407605400
C           -3.66938924110041       -4.85903736158272       -0.08586542831116
C           -5.06896486878323       -4.83519636088542       -0.31676233832707
C           -5.78823053611426       -6.06794688574282       -0.41891408643759
C           -3.10478273643334       -8.55965127072521        0.50546214843191
C           -3.75241974407143       -7.32904524311512        0.15808319818023
C           -5.14367824965137       -7.30488158710952       -0.17841775185850
C           -5.91544359467660       -8.54308813603533       -0.25641360178848
B           -3.96290987997239       -9.84027989175735        0.65276426518696
C           -5.39880951622751       -9.72415459193795        0.21174666059658
C           -6.98319560954902        8.73880189888634        0.99695222934052
C           -7.71775931636794        9.91001929052019        1.22860094218571
C           -9.10498487248563        9.92297214236049        1.23015584855939
C           -9.80032145182886        8.75687658201846        0.99115067350892
C           -7.01084981276167        6.27672177155065        0.55535972523664
C           -7.68929587105757        7.52041973600251        0.77148388279252
C           -9.11063056193540        7.55587309042812        0.76099940674376
C           -9.81006423989997        6.35630347183627        0.49868917784726
C           -7.04527958751741        3.84534720458848        0.14454563663835
C           -7.74160917785602        5.08333094353013        0.32416176918703
C           -9.17923950320222        5.15395797651364        0.27808810822068
B           -9.99447451721796        3.89969091753482       -0.03250714319746
C           -7.05407956266783        1.39056681515613       -0.21220225746657
C           -7.76061861846496        2.61680816342894       -0.09553510090696
C           -9.18806177001887        2.61525091304266       -0.22161408389930
C           -9.84095932114879        1.43004696395563       -0.50083899690139
C           -7.08190824313460       -1.07955373310317       -0.50192694800210
C           -7.75731128657695        0.17552346929295       -0.44786127216917
C           -9.16442715431864        0.21049004640847       -0.62411636917092
C           -9.85403589836558       -0.98078647714690       -0.91630660842358
C           -7.14414243362970       -3.54271540782230       -0.69349412029756
C           -7.81180923239125       -2.27952697971132       -0.72934172305335
C           -9.22581436712248       -2.20273814495149       -0.97981739428622
B          -10.02288204497959       -3.46231099862567       -1.31255229126846
C           -7.18680827469725       -6.01807152719681       -0.75978040907667
C           -7.85364495493932       -4.78578085663217       -0.90072282973375
C           -9.24827032730918       -4.77824656498767       -1.25567587997580
C           -9.89358336769360       -5.96484439533490       -1.52374546789857
C           -7.27050428939251       -8.49120059450125       -0.80099573372456
C           -7.89864091579105       -7.23738929546163       -0.98751894798018
C           -9.25213618986118       -7.21285740345227       -1.42118213673184
C           -9.93127458566097       -8.40913202889299       -1.72351862910056
C           -7.96618292907955       -9.64770571889668       -1.15192354037682
C           -9.28179709235510       -9.61291095825818       -1.61153911889925
H           11.17130492514265        8.49705182096781       -1.30888171308605
H            9.98514398697171       10.65802483871146       -1.08018608588681
H            7.59551734991813       10.67991217502100       -0.65252526788265
H           11.35934942939242        5.94520916604269       -1.34703463452149
H           11.05563607725145        3.42073074275642       -1.20449879520117
H           11.08567778003982        1.08941973185592       -1.03707838008562
H           11.07029824847156       -1.52607397912602       -0.75239159474639