      -----------------------------------------------------------      
     |                   =====================                   |     
     |                           x T B                           |     
     |                   =====================                   |     
     |                         S. Grimme                         |     
     |          Mulliken Center for Theoretical Chemistry        |     
     |                    University of Bonn                     |     
      -----------------------------------------------------------      

   * xtb version 6.7.1pre (5071a88) compiled by 'Marcel@Raven' on 2024-07-23

   xtb is free software: you can redistribute it and/or modify it under
   the terms of the GNU Lesser General Public License as published by
   the Free Software Foundation, either version 3 of the License, or
   (at your option) any later version.
   
   xtb is distributed in the hope that it will be useful,
   but WITHOUT ANY WARRANTY; without even the implied warranty of
   MERCHANTABILITY or FITNESS FOR A PARTICULAR PURPOSE.  See the
   GNU Lesser General Public License for more details.
   
   Cite this work as:
   * C. Bannwarth, E. Caldeweyher, S. Ehlert, A. Hansen, P. Pracht,
     J. Seibert, S. Spicher, S. Grimme, WIREs Comput. Mol. Sci., 2020, 11,
     e01493. DOI: 10.1002/wcms.1493
   
   for GFN2-xTB:
   * C. Bannwarth, S. Ehlert and S. Grimme., J. Chem. Theory Comput., 2019,
     15, 1652-1671. DOI: 10.1021/acs.jctc.8b01176
   for GFN1-xTB:
   * S. Grimme, C. Bannwarth, P. Shushkov, J. Chem. Theory Comput., 2017,
     13, 1989-2009. DOI: 10.1021/acs.jctc.7b00118
   for GFN0-xTB:
   * P. Pracht, E. Caldeweyher, S. Ehlert, S. Grimme, ChemRxiv, 2019, preprint.
     DOI: 10.26434/chemrxiv.8326202.v1
   for GFN-FF:
   * S. Spicher and S. Grimme, Angew. Chem. Int. Ed., 2020, 59, 15665-15673.
     DOI: 10.1002/anie.202004239
   
   for ALPB and GBSA implicit solvation:
   * S. Ehlert, M. Stahn, S. Spicher, S. Grimme, J. Chem. Theory Comput.,
     2021, 17, 4250-4261. DOI: 10.1021/acs.jctc.1c00471
   
   for ddCOSMO and CPCM-X implicit solvation:
   * M. Stahn, S. Ehlert, S. Grimme, J. Phys. Chem. A,
     2023, XX, XXXX-XXXX. DOI: 10.1021/acs.jpca.3c04382
   
   for DFT-D4:
   * E. Caldeweyher, C. Bannwarth and S. Grimme, J. Chem. Phys., 2017,
     147, 034112. DOI: 10.1063/1.4993215
   * E. Caldeweyher, S. Ehlert, A. Hansen, H. Neugebauer, S. Spicher,
     C. Bannwarth and S. Grimme, J. Chem. Phys., 2019, 150, 154122.
     DOI: 10.1063/1.5090222
   * E. Caldeweyher, J.-M. Mewes, S. Ehlert and S. Grimme, Phys. Chem. Chem. Phys.
     2020, 22, 8499-8512. DOI: 10.1039/D0CP00502A
   
   for sTDA-xTB:
   * S. Grimme and C. Bannwarth, J. Chem. Phys., 2016, 145, 054103.
     DOI: 10.1063/1.4959605
   
   in the mass-spec context:
   * V. Asgeirsson, C. Bauer and S. Grimme, Chem. Sci., 2017, 8, 4879.
     DOI: 10.1039/c7sc00601b
   * J. Koopman and S. Grimme, ACS Omega 2019, 4, 12, 15120-15133.
     DOI: 10.1021/acsomega.9b02011
   
   for metadynamics refer to:
   * S. Grimme, J. Chem. Theory Comput., 2019, 155, 2847-2862
     DOI: 10.1021/acs.jctc.9b00143
   
   for SPH calculations refer to:
   * S. Spicher and S. Grimme, J. Chem. Theory Comput., 2021, 17, 1701-1714
     DOI: 10.1021/acs.jctc.0c01306
   
   for ONIOM refer to:
   * C. Plett, A. Katbashev, S. Ehlert, S. Grimme, M. Bursch,
     Phys. Chem. Chem. Phys., 2023, 25, 17860-17868. DOI: 10.1039/D3CP02178E
   
   for DIPRO refer to:
   * J. Kohn, N. Gildemeister, S. Grimme, D. Fazzi, A. Hansen,
     J. Chem. Phys., 2023, just accepted.
   
   for PTB refer to:
   * S. Grimme, M. Mueller, A. Hansen, J. Chem. Phys., 2023, 158, 124111.
     DOI: 10.1063/5.0137838
   
   with help from (in alphabetical order)
   P. Atkinson, C. Bannwarth, F. Bohle, G. Brandenburg, E. Caldeweyher
   M. Checinski, S. Dohm, S. Ehlert, S. Ehrlich, I. Gerasimov, C. Hölzer
   A. Katbashev, J. Kohn, J. Koopman, C. Lavigne, S. Lehtola, F. März, M. Müller,
   F. Musil, H. Neugebauer, J. Pisarek, C. Plett, P. Pracht, F. Pultar,
   J. Seibert, P. Shushkov, S. Spicher, M. Stahn, M. Steiner, T. Strunk,
   J. Stückrath, T. Rose, and J. Unsleber
   
 * started run on 2025/12/08 at 00:45:24.385     
   ID    Z sym.   atoms
    1    6 C      1-4, 6-20, 22-107, 109-147, 149-159, 161-170
    2    5 B      5, 21, 108, 148, 160
    3    1 H      171-205

           -------------------------------------------------
          |                Calculation Setup                |
           -------------------------------------------------

          program call               : xtb "C:\Users\LENOVO GAMING\Documents\GitHub\molecular-conductivity-sim\dataset\2nm-5Bdoped-3percent.xyz" --opt --parallel 4
          coordinate file            : C:\Users\LENOVO GAMING\Documents\GitHub\molecular-conductivity-sim\dataset\2nm-5Bdoped-3percent.xyz
          omp threads                :                     4


           -------------------------------------------------
          |                 G F N 2 - x T B                 |
           -------------------------------------------------

        Reference                      10.1021/acs.jctc.8b01176
      * Hamiltonian:
        H0-scaling (s, p, d)           1.850000    2.230000    2.230000
        zeta-weighting                 0.500000
      * Dispersion:
        s8                             2.700000
        a1                             0.520000
        a2                             5.000000
        s9                             5.000000
      * Repulsion:
        kExp                           1.500000    1.000000
        rExp                           1.000000
      * Coulomb:
        alpha                          2.000000
        third order                    shell-resolved
        anisotropic                    true
        a3                             3.000000
        a5                             4.000000
        cn-shift                       1.200000
        cn-exp                         4.000000
        max-rad                        5.000000


          ...................................................
          :                      SETUP                      :
          :.................................................:
          :  # basis functions                 715          :
          :  # atomic orbitals                 715          :
          :  # shells                          375          :
          :  # electrons                       710          :
          :  max. iterations                   250          :
          :  Hamiltonian                  GFN2-xTB          :
          :  restarted?                      false          :
          :  GBSA solvation                  false          :
          :  PC potential                    false          :
          :  electronic temp.          300.0000000     K    :
          :  accuracy                    1.0000000          :
          :  -> integral cutoff          0.2500000E+02      :
          :  -> integral neglect         0.1000000E-07      :
          :  -> SCF convergence          0.1000000E-05 Eh   :
          :  -> wf. convergence          0.1000000E-03 e    :
          :  Broyden damping             0.4000000          :
          :  net charge                          0          :
          :  unpaired electrons                  0          :
          ...................................................

 iter      E             dE          RMSdq      gap      omega  full diag
   1   -384.8798614 -0.384880E+03  0.595E+00    0.71       0.0  T
   2   -376.7181764  0.816169E+01  0.472E+00    0.01       1.0  T
   3   -263.6493528  0.113069E+03  0.809E+00    0.00       1.0  T
   4   -235.2443265  0.284050E+02  0.867E+00    0.05       1.0  T
   5   -352.1400017 -0.116896E+03  0.601E+00    0.03       1.0  T
   6   -384.0675315 -0.319275E+02  0.275E+00    0.15       1.0  T
   7   -384.6890509 -0.621519E+00  0.200E+00    0.25       1.0  T
   8   -385.3344531 -0.645402E+00  0.166E+00    0.34       1.0  T
   9   -385.4207853 -0.863322E-01  0.149E+00    0.23       1.0  T
  10   -385.4344285 -0.136432E-01  0.129E+00    0.29       1.0  T
  11   -385.4898157 -0.553873E-01  0.951E-01    0.35       1.0  T
  12   -385.5416983 -0.518826E-01  0.542E-01    0.30       1.0  T
  13   -385.5984706 -0.567723E-01  0.415E-01    0.13       1.0  T
  14   -385.5591265  0.393440E-01  0.583E-01    0.05       1.0  T
  15   -385.3724373  0.186689E+00  0.911E-01    0.11       1.0  T
  16   -385.4202064 -0.477691E-01  0.798E-01    0.08       1.0  T
  17   -385.2974678  0.122739E+00  0.813E-01    0.13       1.0  T
  18   -385.3170660 -0.195982E-01  0.697E-01    0.10       1.0  T
  19   -385.4881485 -0.171082E+00  0.434E-01    0.04       1.0  T
  20   -385.6066662 -0.118518E+00  0.170E-01    0.03       1.0  T
  21   -385.5446981  0.619681E-01  0.320E-01    0.02       1.0  T
  22   -385.6321634 -0.874653E-01  0.159E-01    0.07       1.0  T
  23   -385.6339734 -0.181002E-02  0.124E-01    0.08       1.0  T
  24   -385.6329506  0.102283E-02  0.101E-01    0.09       1.0  T
  25   -385.6331344 -0.183811E-03  0.939E-02    0.09       1.0  T
  26   -385.6342148 -0.108039E-02  0.646E-02    0.09       1.0  T
  27   -385.6352243 -0.100954E-02  0.385E-02    0.08       1.0  T
  28   -385.6359784 -0.754124E-03  0.184E-02    0.07       1.0  T
  29   -385.6362082 -0.229752E-03  0.617E-03    0.07       1.1  T
  30   -385.6362282 -0.200140E-04  0.741E-03    0.07       1.0  T
  31   -385.6362363 -0.811089E-05  0.196E-03    0.07       3.6  T
  32   -385.6362339  0.247444E-05  0.342E-03    0.07       2.0  T
  33   -385.6362356 -0.171973E-05  0.362E-03    0.07       1.9  T
  34   -385.6362394 -0.380190E-05  0.205E-03    0.07       3.4  T
  35   -385.6362398 -0.394129E-06  0.178E-03    0.07       3.9  T
  36   -385.6362406 -0.819964E-06  0.838E-04    0.07       8.3  T
  37   -385.6362408 -0.176480E-06  0.411E-04    0.07      17.0  T

   *** convergence criteria satisfied after 37 iterations ***

         #    Occupation            Energy/Eh            Energy/eV
      -------------------------------------------------------------
         1        2.0000           -0.6683748             -18.1874
       ...           ...                  ...                  ...
       349        2.0000           -0.3601680              -9.8007
       350        2.0000           -0.3530860              -9.6080
       351        2.0000           -0.3520743              -9.5804
       352        2.0000           -0.3517873              -9.5726
       353        2.0000           -0.3475405              -9.4571
       354        1.9901           -0.3347361              -9.1086
       355        1.5932           -0.3309917              -9.0067 (HOMO)
       356        0.4167           -0.3284264              -8.9369 (LUMO)
       357                         -0.3125038              -8.5037
       358                         -0.3006448              -8.1810
       359                         -0.2948724              -8.0239
       360                         -0.2873829              -7.8201
       ...                                ...                  ...
       715                          0.7624655              20.7477
      -------------------------------------------------------------
                  HL-Gap            0.0025653 Eh            0.0698 eV
             Fermi-level           -0.3296947 Eh           -8.9714 eV

 SCC (total)                   0 d,  0 h,  0 min,  7.358 sec
 SCC setup                      ...        0 min,  0.004 sec (  0.054%)
 Dispersion                     ...        0 min,  0.016 sec (  0.217%)
 classical contributions        ...        0 min,  0.001 sec (  0.014%)
 integral evaluation            ...        0 min,  0.092 sec (  1.250%)
 iterations                     ...        0 min,  6.779 sec ( 92.131%)
 molecular gradient             ...        0 min,  0.446 sec (  6.061%)
 printout                       ...        0 min,  0.020 sec (  0.272%)

         :::::::::::::::::::::::::::::::::::::::::::::::::::::
         ::                     SUMMARY                     ::
         :::::::::::::::::::::::::::::::::::::::::::::::::::::
         :: total energy            -378.656162725402 Eh    ::
         :: gradient norm              0.069846515767 Eh/a0 ::
         :: HOMO-LUMO gap              0.069804436108 eV    ::
         ::.................................................::
         :: SCC energy              -385.652577197975 Eh    ::
         :: -> isotropic ES            0.098787159395 Eh    ::
         :: -> anisotropic ES          0.027498522921 Eh    ::
         :: -> anisotropic XC          0.134826246421 Eh    ::
         :: -> dispersion             -0.484884463530 Eh    ::
         :: repulsion energy           6.996414472573 Eh    ::
         :: add. restraining           0.000000000000 Eh    ::
         :: total charge               0.000000000000 e     ::
         :::::::::::::::::::::::::::::::::::::::::::::::::::::

      ----------------------------------------------------------- 
     |                   =====================                   |
     |                        A N C O P T                        |
     |                   =====================                   |
     |               Approximate Normal Coordinate               |
     |                Rational Function Optimizer                |
      ----------------------------------------------------------- 
      ----------------------------------------------------------- 
     |                   =====================                   |
     |                        A N C O P T                        |
     |                   =====================                   |
     |               Approximate Normal Coordinate               |
     |                Rational Function Optimizer                |
      ----------------------------------------------------------- 

          ...................................................
          :                      SETUP                      :
          :.................................................:
          :   optimization level            normal          :
          :   max. optcycles                   615          :
          :   ANC micro-cycles                  20          :
          :   degrees of freedom               609          :
          :.................................................:
          :   RF solver                   davidson          :
          :   write xtbopt.log                true          :
          :   linear?                        false          :
          :   energy convergence         0.5000000E-05 Eh   :
          :   grad. convergence          0.1000000E-02 Eh/α :
          :   maxmium RF displ.          1.0000000          :
          :   Hlow (freq-cutoff)         0.1000000E-01      :
          :   Hmax (freq-cutoff)         5.0000000          :
          :   S6 in model hess.         20.0000000          :
          ...................................................

generating ANC from exact Hessian ...
Using Lindh-Hessian (1995)
 Shifting diagonal of input Hessian by   9.921429946085216E-003
 Lowest  eigenvalues of input Hessian
    0.000000    0.000000    0.000000    0.000000    0.000000    0.000000
    0.010000    0.010050    0.010066    0.010187    0.010204    0.010573
    0.010628    0.010656    0.010755    0.010944    0.011482    0.011551
 Highest eigenvalues
    2.088652    2.099241    2.107171    2.120504    2.132937    2.143341
 

........................................................................
.............................. CYCLE    1 ..............................
........................................................................

 iter      E             dE          RMSdq      gap      omega  full diag
   1   -385.6362408 -0.385636E+03  0.180E-04    0.07       0.0  T
   2   -385.6362383  0.250705E-05  0.229E-03    0.07       3.0  T
   3   -385.6362400 -0.174374E-05  0.128E-03    0.07       5.5  T
   4   -385.6362404 -0.377017E-06  0.924E-04    0.07       7.6  T
   5   -385.6362407 -0.298820E-06  0.457E-04    0.07      15.3  T
     SCC iter.                  ...        0 min,  0.941 sec
     gradient                   ...        0 min,  0.421 sec
 * total energy  :  -378.6561627 Eh     change        0.3849465E-07 Eh
   gradient norm :     0.0698421 Eh/α   predicted     0.0000000E+00 (-100.00%)
   displ. norm   :     0.5337526 α      lambda       -0.2016813E-01
   maximum displ.:     0.4354281 α      in ANC's #46, #189, #83, ...

........................................................................
.............................. CYCLE    2 ..............................
........................................................................

 iter      E             dE          RMSdq      gap      omega  full diag
   1   -385.8098840 -0.385810E+03  0.131E-01    0.05       0.0  T
   2   -385.7413618  0.685222E-01  0.381E-01    0.42       1.0  T
   3   -385.8134299 -0.720681E-01  0.556E-02    0.07       1.0  T
   4   -385.8079405  0.548933E-02  0.113E-01    0.05       1.0  T
   5   -385.8115048 -0.356427E-02  0.680E-02    0.09       1.0  T
   6   -385.8134630 -0.195821E-02  0.159E-02    0.07       1.0  T
   7   -385.8135363 -0.732456E-04  0.774E-03    0.07       1.0  T
   8   -385.8135015  0.347299E-04  0.116E-02    0.07       1.0  T
   9   -385.8135452 -0.436847E-04  0.671E-03    0.07       1.0  T
  10   -385.8135637 -0.185198E-04  0.188E-03    0.07       3.7  T
  11   -385.8135644 -0.627755E-06  0.154E-03    0.07       4.5  T
  12   -385.8135650 -0.626634E-06  0.103E-03    0.07       6.8  T
  13   -385.8135654 -0.454346E-06  0.241E-04    0.07      29.0  T
  14   -385.8135655 -0.743228E-08  0.206E-04    0.07      33.9  T
     SCC iter.                  ...        0 min,  2.576 sec
     gradient                   ...        0 min,  0.432 sec
 * total energy  :  -378.6717120 Eh     change       -0.1554929E-01 Eh
   gradient norm :     0.0301451 Eh/α   predicted    -0.1295792E-01 ( -16.67%)
   displ. norm   :     0.6107471 α      lambda       -0.1155541E-01
   maximum displ.:     0.5414809 α      in ANC's #46, #27, #83, ...

........................................................................
.............................. CYCLE    3 ..............................
........................................................................

 iter      E             dE          RMSdq      gap      omega  full diag
   1   -385.9738727 -0.385974E+03  0.109E-01    0.06       0.0  T
   2   -385.9158897  0.579830E-01  0.351E-01    0.35       1.0  T
   3   -385.9737640 -0.578743E-01  0.801E-02    0.06       1.0  T
   4   -385.9663970  0.736701E-02  0.142E-01    0.11       1.0  T
   5   -385.9752164 -0.881941E-02  0.371E-02    0.08       1.0  T
   6   -385.9754008 -0.184442E-03  0.291E-02    0.07       1.0  T
   7   -385.9757744 -0.373512E-03  0.597E-03    0.07       1.2  T
   8   -385.9757755 -0.115769E-05  0.539E-03    0.07       1.3  T
   9   -385.9757887 -0.131686E-04  0.730E-04    0.07       9.6  T
  10   -385.9757885  0.166254E-06  0.793E-04    0.07       8.8  T
  11   -385.9757885  0.165033E-07  0.794E-04    0.07       8.8  T
     SCC iter.                  ...        0 min,  2.017 sec
     gradient                   ...        0 min,  0.455 sec
 * total energy  :  -378.6798834 Eh     change       -0.8171442E-02 Eh
   gradient norm :     0.0124702 Eh/α   predicted    -0.7933431E-02 (  -2.91%)
   displ. norm   :     0.4682389 α      lambda       -0.3988589E-02
   maximum displ.:     0.4248039 α      in ANC's #46, #27, #26, ...

........................................................................
.............................. CYCLE    4 ..............................
........................................................................

 iter      E             dE          RMSdq      gap      omega  full diag
   1   -386.0730403 -0.386073E+03  0.631E-02    0.07       0.0  T
   2   -386.0621483  0.108920E-01  0.158E-01    0.11       1.0  T
   3   -386.0506398  0.115084E-01  0.219E-01    0.03       1.0  T
   4   -386.0685332 -0.178934E-01  0.101E-01    0.09       1.0  T
   5   -386.0720472 -0.351397E-02  0.480E-02    0.08       1.0  T
   6   -386.0727698 -0.722584E-03  0.276E-02    0.07       1.0  T
   7   -386.0727847 -0.149270E-04  0.262E-02    0.07       1.0  T
   8   -386.0729883 -0.203613E-03  0.157E-02    0.07       1.0  T
   9   -386.0730808 -0.924764E-04  0.618E-03    0.07       1.1  T
  10   -386.0730985 -0.177051E-04  0.314E-04    0.07      22.3  T
  11   -386.0730985 -0.133562E-07  0.284E-04    0.07      24.6  T
  12   -386.0730985  0.259540E-07  0.345E-04    0.07      20.3  T
     SCC iter.                  ...        0 min,  2.173 sec
     gradient                   ...        0 min,  0.447 sec
 * total energy  :  -378.6825127 Eh     change       -0.2629258E-02 Eh
   gradient norm :     0.0094170 Eh/α   predicted    -0.2431539E-02 (  -7.52%)
   displ. norm   :     0.2301923 α      lambda       -0.7637700E-03
   maximum displ.:     0.1961360 α      in ANC's #46, #27, #26, ...

........................................................................
.............................. CYCLE    5 ..............................
........................................................................

 iter      E             dE          RMSdq      gap      omega  full diag
   1   -386.1099713 -0.386110E+03  0.345E-02    0.07       0.0  T
   2   -386.0847031  0.252683E-01  0.231E-01    0.03       1.0  T
   3   -386.1078047 -0.231016E-01  0.725E-02    0.08       1.0  T
   4   -386.1088631 -0.105839E-02  0.510E-02    0.08       1.0  T
   5   -386.1098116 -0.948463E-03  0.215E-02    0.07       1.0  T
   6   -386.1099718 -0.160272E-03  0.101E-02    0.07       1.0  T
   7   -386.1099641  0.774925E-05  0.105E-02    0.07       1.0  T
   8   -386.1099986 -0.344939E-04  0.613E-03    0.07       1.1  T
   9   -386.1100081 -0.955397E-05  0.389E-03    0.07       1.8  T
  10   -386.1100151 -0.691580E-05  0.575E-04    0.07      12.1  T
  11   -386.1100151 -0.545954E-07  0.409E-04    0.07      17.1  T
  12   -386.1100152 -0.749900E-07  0.825E-05    0.07      84.6  T
     SCC iter.                  ...        0 min,  2.182 sec
     gradient                   ...        0 min,  0.454 sec
 * total energy  :  -378.6829515 Eh     change       -0.4388228E-03 Eh
   gradient norm :     0.0039180 Eh/α   predicted    -0.4021226E-03 (  -8.36%)
   displ. norm   :     0.0589391 α      lambda       -0.5586464E-04
   maximum displ.:     0.0298181 α      in ANC's #27, #1, #46, ...

........................................................................
.............................. CYCLE    6 ..............................
........................................................................

 iter      E             dE          RMSdq      gap      omega  full diag
   1   -386.1126853 -0.386113E+03  0.106E-02    0.07       0.0  T
   2   -386.1067416  0.594368E-02  0.112E-01    0.05       1.0  T
   3   -386.1124801 -0.573848E-02  0.225E-02    0.07       1.0  T
   4   -386.1126199 -0.139760E-03  0.126E-02    0.07       1.0  T
   5   -386.1126933 -0.734267E-04  0.270E-03    0.07       2.6  T
   6   -386.1126930  0.248491E-06  0.264E-03    0.07       2.6  T
   7   -386.1126945 -0.145057E-05  0.178E-03    0.07       3.9  T
   8   -386.1126957 -0.120409E-05  0.845E-04    0.07       8.3  T
   9   -386.1126957 -0.192397E-07  0.783E-04    0.07       8.9  T
  10   -386.1126960 -0.279777E-06  0.136E-04    0.07      51.3  T
     SCC iter.                  ...        0 min,  1.855 sec
     gradient                   ...        0 min,  0.458 sec
 * total energy  :  -378.6829898 Eh     change       -0.3832989E-04 Eh
   gradient norm :     0.0014214 Eh/α   predicted    -0.2804497E-04 ( -26.83%)
   displ. norm   :     0.0961624 α      lambda       -0.2908469E-04
   maximum displ.:     0.0558853 α      in ANC's #1, #27, #12, ...

........................................................................
.............................. CYCLE    7 ..............................
........................................................................

 iter      E             dE          RMSdq      gap      omega  full diag
   1   -386.1112971 -0.386111E+03  0.132E-02    0.07       0.0  T
   2   -386.1090588  0.223829E-02  0.687E-02    0.05       1.0  T
   3   -386.1106655 -0.160673E-02  0.380E-02    0.08       1.0  T
   4   -386.1112352 -0.569673E-03  0.123E-02    0.07       1.0  T
   5   -386.1112954 -0.602045E-04  0.397E-03    0.07       1.8  T
   6   -386.1113000 -0.462690E-05  0.201E-03    0.07       3.5  T
   7   -386.1113000 -0.109695E-07  0.189E-03    0.07       3.7  T
   8   -386.1113015 -0.147326E-05  0.716E-04    0.07       9.7  T
   9   -386.1113015  0.162790E-07  0.692E-04    0.07      10.1  T
  10   -386.1113017 -0.223993E-06  0.662E-05    0.07     105.5  T
     SCC iter.                  ...        0 min,  1.833 sec
     gradient                   ...        0 min,  0.445 sec
 * total energy  :  -378.6830157 Eh     change       -0.2590202E-04 Eh
   gradient norm :     0.0019834 Eh/α   predicted    -0.1460466E-04 ( -43.62%)
   displ. norm   :     0.0811224 α      lambda       -0.1720131E-04
   maximum displ.:     0.0515902 α      in ANC's #1, #12, #13, ...

........................................................................
.............................. CYCLE    8 ..............................
........................................................................

 iter      E             dE          RMSdq      gap      omega  full diag
   1   -386.1098038 -0.386110E+03  0.964E-03    0.07       0.0  T
   2   -386.1087562  0.104764E-02  0.476E-02    0.08       1.0  T
   3   -386.1097567 -0.100050E-02  0.115E-02    0.07       1.0  T
   4   -386.1097989 -0.421983E-04  0.490E-03    0.07       1.4  T
   5   -386.1098061 -0.721312E-05  0.105E-03    0.07       6.6  T
   6   -386.1098064 -0.314778E-06  0.461E-04    0.07      15.1  T
   7   -386.1098064  0.554869E-07  0.529E-04    0.07      13.2  T
     SCC iter.                  ...        0 min,  1.361 sec
     gradient                   ...        0 min,  0.438 sec
 * total energy  :  -378.6830388 Eh     change       -0.2306173E-04 Eh
   gradient norm :     0.0018686 Eh/α   predicted    -0.8629506E-05 ( -62.58%)
   displ. norm   :     0.2286889 α      lambda       -0.4611606E-04
   maximum displ.:     0.1353392 α      in ANC's #1, #12, #13, ...

........................................................................
.............................. CYCLE    9 ..............................
........................................................................

 iter      E             dE          RMSdq      gap      omega  full diag
   1   -386.1081006 -0.386108E+03  0.275E-02    0.07       0.0  T
   2   -386.1029797  0.512090E-02  0.105E-01    0.10       1.0  T
   3   -386.1066326 -0.365291E-02  0.582E-02    0.06       1.0  T
   4   -386.1080936 -0.146096E-02  0.751E-03    0.07       1.0  T
   5   -386.1081020 -0.840172E-05  0.588E-03    0.07       1.2  T
   6   -386.1081040 -0.196990E-05  0.531E-03    0.07       1.3  T
   7   -386.1081079 -0.396962E-05  0.424E-03    0.07       1.6  T
   8   -386.1081155 -0.759541E-05  0.136E-03    0.07       5.1  T
   9   -386.1081162 -0.732187E-06  0.184E-04    0.07      38.0  T
  10   -386.1081163 -0.637135E-08  0.135E-04    0.07      51.9  T
     SCC iter.                  ...        0 min,  1.806 sec
     gradient                   ...        0 min,  0.452 sec
 * total energy  :  -378.6830980 Eh     change       -0.5923158E-04 Eh
   gradient norm :     0.0015910 Eh/α   predicted    -0.2359688E-04 ( -60.16%)
   displ. norm   :     0.4201915 α      lambda       -0.7030455E-04
   maximum displ.:     0.2455093 α      in ANC's #1, #12, #13, ...

........................................................................
.............................. CYCLE   10 ..............................
........................................................................

 iter      E             dE          RMSdq      gap      omega  full diag
   1   -386.1066645 -0.386107E+03  0.493E-02    0.07       0.0  T
   2   -386.0995866  0.707792E-02  0.126E-01    0.10       1.0  T
   3   -386.0905237  0.906298E-02  0.188E-01    0.04       1.0  T
   4   -386.1062500 -0.157263E-01  0.307E-02    0.07       1.0  T
   5   -386.1065143 -0.264311E-03  0.201E-02    0.07       1.0  T
   6   -386.1065297 -0.153897E-04  0.189E-02    0.07       1.0  T
   7   -386.1065719 -0.422717E-04  0.159E-02    0.07       1.0  T
   8   -386.1066627 -0.907764E-04  0.768E-03    0.07       1.0  T
   9   -386.1066860 -0.232997E-04  0.211E-03    0.07       3.3  T
  10   -386.1066881 -0.208638E-05  0.177E-04    0.07      39.4  T
  11   -386.1066881 -0.117589E-07  0.487E-05    0.07     143.3  T
  12   -386.1066881 -0.790294E-09  0.138E-05    0.07     505.2  T
     SCC iter.                  ...        0 min,  2.190 sec
     gradient                   ...        0 min,  0.460 sec
 * total energy  :  -378.6831799 Eh     change       -0.8187659E-04 Eh
   gradient norm :     0.0025478 Eh/α   predicted    -0.3791200E-04 ( -53.70%)
   displ. norm   :     0.2870852 α      lambda       -0.6070428E-04
   maximum displ.:     0.1697175 α      in ANC's #1, #12, #13, ...

........................................................................
.............................. CYCLE   11 ..............................
........................................................................

 iter      E             dE          RMSdq      gap      omega  full diag
   1   -386.1068487 -0.386107E+03  0.330E-02    0.07       0.0  T
   2   -386.1063678  0.480919E-03  0.373E-02    0.07       1.0  T
   3   -386.0625867  0.437812E-01  0.307E-01    0.03       1.0  T
   4   -386.1067937 -0.442070E-01  0.108E-02    0.07       1.0  T
   5   -386.1068446 -0.509441E-04  0.396E-03    0.07       1.8  T
   6   -386.1068369  0.771641E-05  0.550E-03    0.07       1.3  T
   7   -386.1068405 -0.361572E-05  0.460E-03    0.07       1.5  T
   8   -386.1068487 -0.816083E-05  0.198E-03    0.07       3.5  T
   9   -386.1068500 -0.129224E-05  0.855E-04    0.07       8.2  T
  10   -386.1068503 -0.306908E-06  0.299E-04    0.07      23.3  T
  11   -386.1068503 -0.110522E-07  0.248E-04    0.07      28.2  T
     SCC iter.                  ...        0 min,  2.020 sec
     gradient                   ...        0 min,  0.440 sec
 * total energy  :  -378.6832273 Eh     change       -0.4738907E-04 Eh
   gradient norm :     0.0024928 Eh/α   predicted    -0.3285406E-04 ( -30.67%)
   displ. norm   :     0.2440707 α      lambda       -0.4714781E-04
   maximum displ.:     0.1484701 α      in ANC's #1, #12, #9, ...

........................................................................
.............................. CYCLE   12 ..............................
........................................................................

 iter      E             dE          RMSdq      gap      omega  full diag
   1   -386.1085348 -0.386109E+03  0.273E-02    0.07       0.0  T
   2   -386.1080367  0.498089E-03  0.366E-02    0.06       1.0  T
   3   -386.1004083  0.762836E-02  0.131E-01    0.10       1.0  T
   4   -386.1084815 -0.807316E-02  0.106E-02    0.07       1.0  T
   5   -386.1085300 -0.485236E-04  0.389E-03    0.07       1.8  T
   6   -386.1085280  0.202682E-05  0.421E-03    0.07       1.7  T
   7   -386.1085328 -0.476695E-05  0.271E-03    0.07       2.6  T
   8   -386.1085358 -0.307388E-05  0.809E-04    0.07       8.6  T
   9   -386.1085361 -0.255784E-06  0.774E-05    0.07      90.3  T
  10   -386.1085361  0.246058E-07  0.240E-04    0.07      29.0  T
     SCC iter.                  ...        0 min,  1.829 sec
     gradient                   ...        0 min,  0.456 sec
 * total energy  :  -378.6832645 Eh     change       -0.3720421E-04 Eh
   gradient norm :     0.0017179 Eh/α   predicted    -0.2498138E-04 ( -32.85%)
   displ. norm   :     0.2498899 α      lambda       -0.3148895E-04
   maximum displ.:     0.1607585 α      in ANC's #1, #9, #12, ...

........................................................................
.............................. CYCLE   13 ..............................
........................................................................

 iter      E             dE          RMSdq      gap      omega  full diag
   1   -386.1114810 -0.386111E+03  0.271E-02    0.07       0.0  T
   2   -386.1078488  0.363217E-02  0.897E-02    0.05       1.0  T
   3   -386.1104276 -0.257879E-02  0.494E-02    0.08       1.0  T
   4   -386.1114450 -0.101742E-02  0.950E-03    0.07       1.0  T
   5   -386.1114806 -0.355631E-04  0.417E-03    0.07       1.7  T
   6   -386.1114860 -0.539875E-05  0.216E-03    0.07       3.2  T
   7   -386.1114858  0.145794E-06  0.211E-03    0.07       3.3  T
   8   -386.1114877 -0.190209E-05  0.587E-04    0.07      11.9  T
   9   -386.1114878 -0.302705E-07  0.441E-04    0.07      15.8  T
  10   -386.1114879 -0.962232E-07  0.197E-05    0.07     355.1  T
     SCC iter.                  ...        0 min,  1.805 sec
     gradient                   ...        0 min,  0.417 sec
 * total energy  :  -378.6832962 Eh     change       -0.3169760E-04 Eh
   gradient norm :     0.0008029 Eh/α   predicted    -0.1618631E-04 ( -48.94%)
   displ. norm   :     0.0941052 α      lambda       -0.1262081E-04
   maximum displ.:     0.0652867 α      in ANC's #1, #9, #7, ...

........................................................................
.............................. CYCLE   14 ..............................
........................................................................

 iter      E             dE          RMSdq      gap      omega  full diag
   1   -386.1120332 -0.386112E+03  0.101E-02    0.07       0.0  T
   2   -386.1108034  0.122974E-02  0.516E-02    0.06       1.0  T
   3   -386.1120045 -0.120111E-02  0.982E-03    0.07       1.0  T
   4   -386.1120319 -0.273849E-04  0.310E-03    0.07       2.3  T
   5   -386.1120342 -0.232348E-05  0.174E-03    0.07       4.0  T
   6   -386.1120355 -0.129584E-05  0.339E-04    0.07      20.6  T
   7   -386.1120356 -0.339322E-07  0.148E-04    0.07      47.1  T
   8   -386.1120355  0.745375E-07  0.405E-04    0.07      17.3  T
     SCC iter.                  ...        0 min,  1.473 sec
     gradient                   ...        0 min,  0.423 sec
 * total energy  :  -378.6833122 Eh     change       -0.1604109E-04 Eh
   gradient norm :     0.0009255 Eh/α   predicted    -0.6335471E-05 ( -60.50%)
   displ. norm   :     0.1256596 α      lambda       -0.2082290E-04
   maximum displ.:     0.0702296 α      in ANC's #1, #9, #17, ...

........................................................................
.............................. CYCLE   15 ..............................
........................................................................

 iter      E             dE          RMSdq      gap      omega  full diag
   1   -386.1122086 -0.386112E+03  0.168E-02    0.07       0.0  T
   2   -386.1108206  0.138795E-02  0.554E-02    0.06       1.0  T
   3   -386.1117116 -0.891003E-03  0.337E-02    0.08       1.0  T
   4   -386.1122019 -0.490212E-03  0.472E-03    0.07       1.5  T
   5   -386.1122070 -0.514762E-05  0.310E-03    0.07       2.3  T
   6   -386.1122111 -0.408037E-05  0.831E-04    0.07       8.4  T
   7   -386.1122112 -0.150587E-06  0.543E-04    0.07      12.9  T
   8   -386.1122111  0.125643E-06  0.695E-04    0.07      10.0  T
     SCC iter.                  ...        0 min,  1.456 sec
     gradient                   ...        0 min,  0.443 sec
 * total energy  :  -378.6833360 Eh     change       -0.2380578E-04 Eh
   gradient norm :     0.0012951 Eh/α   predicted    -0.1048643E-04 ( -55.95%)
   displ. norm   :     0.1583510 α      lambda       -0.2087904E-04
   maximum displ.:     0.0910644 α      in ANC's #1, #9, #17, ...

........................................................................
.............................. CYCLE   16 ..............................
........................................................................

 iter      E             dE          RMSdq      gap      omega  full diag
   1   -386.1112876 -0.386111E+03  0.192E-02    0.07       0.0  T
   2   -386.1112876  0.404946E-07  0.114E-02    0.07       1.0  T
   3   -386.1110960  0.191608E-03  0.203E-02    0.07       1.0  T
   4   -386.1112640 -0.168035E-03  0.723E-03    0.07       1.0  T
   5   -386.1112874 -0.233818E-04  0.101E-03    0.07       6.9  T
   6   -386.1112877 -0.359640E-06  0.349E-04    0.07      20.0  T
   7   -386.1112877  0.467821E-08  0.255E-04    0.07      27.4  T
     SCC iter.                  ...        0 min,  1.263 sec
     gradient                   ...        0 min,  0.420 sec
 * total energy  :  -378.6833567 Eh     change       -0.2069982E-04 Eh
   gradient norm :     0.0013420 Eh/α   predicted    -0.1055691E-04 ( -49.00%)
   displ. norm   :     0.1148148 α      lambda       -0.1321836E-04
   maximum displ.:     0.0733081 α      in ANC's #1, #9, #13, ...

........................................................................
.............................. CYCLE   17 ..............................
........................................................................

 iter      E             dE          RMSdq      gap      omega  full diag
   1   -386.1107257 -0.386111E+03  0.130E-02    0.07       0.0  T
   2   -386.1100515  0.674135E-03  0.386E-02    0.08       1.0  T
   3   -386.1101177 -0.661448E-04  0.367E-02    0.06       1.0  T
   4   -386.1107239 -0.606183E-03  0.283E-03    0.07       2.5  T
   5   -386.1107267 -0.288701E-05  0.129E-03    0.07       5.4  T
   6   -386.1107270 -0.302676E-06  0.893E-04    0.07       7.8  T
   7   -386.1107267  0.300492E-06  0.111E-03    0.07       6.3  T
   8   -386.1107273 -0.596344E-06  0.114E-04    0.07      61.4  T
     SCC iter.                  ...        0 min,  1.440 sec
     gradient                   ...        0 min,  0.443 sec
 * total energy  :  -378.6833719 Eh     change       -0.1512493E-04 Eh
   gradient norm :     0.0008568 Eh/α   predicted    -0.6652048E-05 ( -56.02%)
   displ. norm   :     0.1050331 α      lambda       -0.1290615E-04
   maximum displ.:     0.0713246 α      in ANC's #1, #9, #13, ...

........................................................................
.............................. CYCLE   18 ..............................
........................................................................

 iter      E             dE          RMSdq      gap      omega  full diag
   1   -386.1105795 -0.386111E+03  0.106E-02    0.07       0.0  T
   2   -386.1094706  0.110888E-02  0.490E-02    0.08       1.0  T
   3   -386.1105020 -0.103138E-02  0.142E-02    0.06       1.0  T
   4   -386.1105801 -0.780452E-04  0.249E-03    0.07       2.8  T
   5   -386.1105820 -0.195496E-05  0.959E-04    0.07       7.3  T
   6   -386.1105822 -0.190995E-06  0.498E-04    0.07      14.0  T
   7   -386.1105819  0.292656E-06  0.880E-04    0.07       7.9  T
     SCC iter.                  ...        0 min,  1.271 sec
     gradient                   ...        0 min,  0.461 sec
 * total energy  :  -378.6833883 Eh     change       -0.1646524E-04 Eh
   gradient norm :     0.0005197 Eh/α   predicted    -0.6485444E-05 ( -60.61%)
   displ. norm   :     0.1411759 α      lambda       -0.1764721E-04
   maximum displ.:     0.0963059 α      in ANC's #1, #9, #13, ...

........................................................................
.............................. CYCLE   19 ..............................
........................................................................

 iter      E             dE          RMSdq      gap      omega  full diag
   1   -386.1102854 -0.386110E+03  0.150E-02    0.07       0.0  T
   2   -386.1099350  0.350338E-03  0.289E-02    0.07       1.0  T
   3   -386.1084988  0.143623E-02  0.619E-02    0.05       1.0  T
   4   -386.1102809 -0.178212E-02  0.339E-03    0.07       2.1  T
   5   -386.1102861 -0.519632E-05  0.765E-04    0.07       9.1  T
   6   -386.1102850  0.107401E-05  0.165E-03    0.07       4.2  T
   7   -386.1102856 -0.582013E-06  0.119E-03    0.07       5.9  T
   8   -386.1102863 -0.636203E-06  0.275E-04    0.07      25.4  T
   9   -386.1102863 -0.260389E-07  0.570E-05    0.07     122.5  T
     SCC iter.                  ...        0 min,  1.640 sec
     gradient                   ...        0 min,  0.435 sec
 * total energy  :  -378.6834107 Eh     change       -0.2238941E-04 Eh
   gradient norm :     0.0008565 Eh/α   predicted    -0.8903205E-05 ( -60.23%)
   displ. norm   :     0.1640249 α      lambda       -0.1639654E-04
   maximum displ.:     0.1130522 α      in ANC's #1, #9, #13, ...

........................................................................
.............................. CYCLE   20 ..............................
........................................................................

 iter      E             dE          RMSdq      gap      omega  full diag
   1   -386.1103318 -0.386110E+03  0.168E-02    0.07       0.0  T
   2   -386.1098170  0.514801E-03  0.346E-02    0.08       1.0  T
   3   -386.1081677  0.164924E-02  0.682E-02    0.05       1.0  T
   4   -386.1103250 -0.215732E-02  0.420E-03    0.07       1.7  T
   5   -386.1103311 -0.602464E-05  0.218E-03    0.07       3.2  T
   6   -386.1103323 -0.119831E-05  0.141E-03    0.07       5.0  T
   7   -386.1103320  0.319906E-06  0.155E-03    0.07       4.5  T
   8   -386.1103330 -0.107503E-05  0.361E-04    0.07      19.3  T
   9   -386.1103331 -0.487806E-07  0.454E-05    0.07     153.9  T
  10   -386.1103331 -0.683087E-09  0.786E-06    0.07     888.7  T
     SCC iter.                  ...        0 min,  1.757 sec
     gradient                   ...        0 min,  0.447 sec
 * total energy  :  -378.6834308 Eh     change       -0.2009273E-04 Eh
   gradient norm :     0.0010664 Eh/α   predicted    -0.8299486E-05 ( -58.69%)
   displ. norm   :     0.1449853 α      lambda       -0.1238424E-04
   maximum displ.:     0.1027451 α      in ANC's #1, #9, #5, ...
 * RMSD in coord.:     0.2085421 α      energy gain  -0.2726808E-01 Eh

generating ANC from exact Hessian ...
Using Lindh-Hessian (1995)
 Shifting diagonal of input Hessian by   9.913528737020623E-003
 Lowest  eigenvalues of input Hessian
    0.000000    0.000000    0.000000    0.000000    0.000000    0.000000
    0.010000    0.010051    0.010066    0.010203    0.010221    0.010627
    0.010685    0.010705    0.010828    0.011022    0.011630    0.011687
 Highest eigenvalues
    2.171725    2.183104    2.195551    2.200907    2.223661    2.229008
 

........................................................................
.............................. CYCLE   21 ..............................
........................................................................

 iter      E             dE          RMSdq      gap      omega  full diag
   1   -386.1106318 -0.386111E+03  0.140E-02    0.07       0.0  T
   2   -386.1105431  0.887275E-04  0.160E-02    0.06       1.0  T
   3   -386.1068173  0.372580E-02  0.900E-02    0.09       1.0  T
   4   -386.1106254 -0.380815E-02  0.375E-03    0.07       1.9  T
   5   -386.1106311 -0.566867E-05  0.158E-03    0.07       4.4  T
   6   -386.1106320 -0.933793E-06  0.370E-04    0.07      18.9  T
   7   -386.1106317  0.295072E-06  0.840E-04    0.07       8.3  T
     SCC iter.                  ...        0 min,  1.273 sec
     gradient                   ...        0 min,  0.424 sec
 * total energy  :  -378.6834465 Eh     change       -0.1564489E-04 Eh
   gradient norm :     0.0009214 Eh/α   predicted     0.0000000E+00 (-100.00%)
   displ. norm   :     0.0286242 α      lambda       -0.5198632E-05
   maximum displ.:     0.0217510 α      in ANC's #1, #12, #8, ...

........................................................................
.............................. CYCLE   22 ..............................
........................................................................

 iter      E             dE          RMSdq      gap      omega  full diag
   1   -386.1107540 -0.386111E+03  0.469E-03    0.07       0.0  T
   2   -386.1095568  0.119719E-02  0.506E-02    0.06       1.0  T
   3   -386.1107558 -0.119899E-02  0.277E-03    0.07       2.5  T
   4   -386.1107546  0.121795E-05  0.189E-03    0.07       3.7  T
   5   -386.1107556 -0.107046E-05  0.113E-03    0.07       6.2  T
   6   -386.1107562 -0.569212E-06  0.520E-04    0.07      13.4  T
   7   -386.1107562 -0.199259E-07  0.402E-04    0.07      17.4  T
     SCC iter.                  ...        0 min,  1.267 sec
     gradient                   ...        0 min,  0.441 sec
 * total energy  :  -378.6834533 Eh     change       -0.6886321E-05 Eh
   gradient norm :     0.0003982 Eh/α   predicted    -0.2685798E-05 ( -61.00%)
   displ. norm   :     0.0625111 α      lambda       -0.8311226E-05
   maximum displ.:     0.0448635 α      in ANC's #1, #12, #8, ...

........................................................................
.............................. CYCLE   23 ..............................
........................................................................

 iter      E             dE          RMSdq      gap      omega  full diag
   1   -386.1112699 -0.386111E+03  0.874E-03    0.07       0.0  T
   2   -386.1103859  0.883974E-03  0.438E-02    0.06       1.0  T
   3   -386.1112627 -0.876738E-03  0.652E-03    0.07       1.1  T
   4   -386.1112699 -0.722946E-05  0.210E-03    0.07       3.3  T
   5   -386.1112704 -0.487744E-06  0.162E-03    0.07       4.3  T
   6   -386.1112716 -0.123192E-05  0.474E-04    0.07      14.7  T
   7   -386.1112716  0.366599E-07  0.455E-04    0.07      15.3  T
   8   -386.1112717 -0.804132E-07  0.234E-04    0.07      29.8  T
     SCC iter.                  ...        0 min,  1.425 sec
     gradient                   ...        0 min,  0.447 sec
 * total energy  :  -378.6834629 Eh     change       -0.9537239E-05 Eh
   gradient norm :     0.0006315 Eh/α   predicted    -0.4162942E-05 ( -56.35%)
   displ. norm   :     0.0684062 α      lambda       -0.6592168E-05
   maximum displ.:     0.0503246 α      in ANC's #1, #8, #12, ...

........................................................................
.............................. CYCLE   24 ..............................
........................................................................

 iter      E             dE          RMSdq      gap      omega  full diag
   1   -386.1115678 -0.386112E+03  0.802E-03    0.07       0.0  T
   2   -386.1114378  0.130064E-03  0.175E-02    0.06       1.0  T
   3   -386.1113100  0.127759E-03  0.236E-02    0.07       1.0  T
   4   -386.1115675 -0.257486E-03  0.134E-03    0.07       5.2  T
   5   -386.1115673  0.242109E-06  0.135E-03    0.07       5.2  T
   6   -386.1115680 -0.792730E-06  0.462E-04    0.07      15.1  T
   7   -386.1115681 -0.231828E-07  0.357E-04    0.07      19.6  T
     SCC iter.                  ...        0 min,  1.260 sec
     gradient                   ...        0 min,  0.444 sec
 * total energy  :  -378.6834707 Eh     change       -0.7861240E-05 Eh
   gradient norm :     0.0008090 Eh/α   predicted    -0.3303387E-05 ( -57.98%)
   displ. norm   :     0.0621019 α      lambda       -0.5595204E-05
   maximum displ.:     0.0462389 α      in ANC's #1, #8, #7, ...

........................................................................
.............................. CYCLE   25 ..............................
........................................................................

 iter      E             dE          RMSdq      gap      omega  full diag
   1   -386.1112989 -0.386111E+03  0.601E-03    0.07       0.0  T
   2   -386.1112914  0.752546E-05  0.529E-03    0.07       1.3  T
   3   -386.1095830  0.170842E-02  0.603E-02    0.06       1.0  T
   4   -386.1112984 -0.171541E-02  0.108E-03    0.07       6.4  T
   5   -386.1112989 -0.540287E-06  0.242E-04    0.07      28.8  T
   6   -386.1112989 -0.115824E-07  0.178E-04    0.07      39.3  T
     SCC iter.                  ...        0 min,  1.055 sec
     gradient                   ...        0 min,  0.438 sec
 * total energy  :  -378.6834784 Eh     change       -0.7658356E-05 Eh
   gradient norm :     0.0006848 Eh/α   predicted    -0.2802809E-05 ( -63.40%)
   displ. norm   :     0.0705405 α      lambda       -0.6873351E-05
   maximum displ.:     0.0523543 α      in ANC's #1, #8, #7, ...

........................................................................
.............................. CYCLE   26 ..............................
........................................................................

 iter      E             dE          RMSdq      gap      omega  full diag
   1   -386.1109213 -0.386111E+03  0.675E-03    0.07       0.0  T
   2   -386.1107124  0.208989E-03  0.214E-02    0.07       1.0  T
   3   -386.1107985 -0.861342E-04  0.165E-02    0.06       1.0  T
   4   -386.1109214 -0.122951E-03  0.101E-03    0.07       6.9  T
   5   -386.1109218 -0.324107E-06  0.414E-04    0.07      16.9  T
   6   -386.1109218 -0.294019E-07  0.350E-04    0.07      20.0  T
     SCC iter.                  ...        0 min,  1.062 sec
     gradient                   ...        0 min,  0.432 sec
 * total energy  :  -378.6834878 Eh     change       -0.9365303E-05 Eh
   gradient norm :     0.0003779 Eh/α   predicted    -0.3444857E-05 ( -63.22%)
   displ. norm   :     0.0870541 α      lambda       -0.8086143E-05
   maximum displ.:     0.0646272 α      in ANC's #1, #8, #9, ...

........................................................................
.............................. CYCLE   27 ..............................
........................................................................

 iter      E             dE          RMSdq      gap      omega  full diag
   1   -386.1107808 -0.386111E+03  0.883E-03    0.07       0.0  T
   2   -386.1106128  0.167968E-03  0.197E-02    0.07       1.0  T
   3   -386.1103315  0.281271E-03  0.311E-02    0.06       1.0  T
   4   -386.1107764 -0.444859E-03  0.320E-03    0.07       2.2  T
   5   -386.1107811 -0.467398E-05  0.630E-04    0.07      11.1  T
   6   -386.1107812 -0.110500E-06  0.258E-04    0.07      27.1  T
   7   -386.1107810  0.226975E-06  0.702E-04    0.07       9.9  T
     SCC iter.                  ...        0 min,  1.226 sec
     gradient                   ...        0 min,  0.435 sec
 * total energy  :  -378.6834984 Eh     change       -0.1061328E-04 Eh
   gradient norm :     0.0003152 Eh/α   predicted    -0.4061571E-05 ( -61.73%)
   displ. norm   :     0.0943416 α      lambda       -0.7726848E-05
   maximum displ.:     0.0705828 α      in ANC's #1, #8, #9, ...

........................................................................
.............................. CYCLE   28 ..............................
........................................................................

 iter      E             dE          RMSdq      gap      omega  full diag
   1   -386.1107069 -0.386111E+03  0.965E-03    0.07       0.0  T
   2   -386.1106788  0.280834E-04  0.968E-03    0.07       1.0  T
   3   -386.1071854  0.349334E-02  0.863E-02    0.05       1.0  T
   4   -386.1107055 -0.352007E-02  0.193E-03    0.07       3.6  T
   5   -386.1107067 -0.121413E-05  0.828E-04    0.07       8.4  T
   6   -386.1107068 -0.120676E-06  0.564E-04    0.07      12.4  T
   7   -386.1107068  0.821065E-07  0.642E-04    0.07      10.9  T
     SCC iter.                  ...        0 min,  1.248 sec
     gradient                   ...        0 min,  0.436 sec
 * total energy  :  -378.6835089 Eh     change       -0.1051667E-04 Eh
   gradient norm :     0.0004759 Eh/α   predicted    -0.3878838E-05 ( -63.12%)
   displ. norm   :     0.0896438 α      lambda       -0.7012277E-05
   maximum displ.:     0.0673600 α      in ANC's #1, #10, #5, ...

........................................................................
.............................. CYCLE   29 ..............................
........................................................................

 iter      E             dE          RMSdq      gap      omega  full diag
   1   -386.1108157 -0.386111E+03  0.880E-03    0.07       0.0  T
   2   -386.1108019  0.138133E-04  0.752E-03    0.07       1.0  T
   3   -386.1067199  0.408206E-02  0.931E-02    0.05       1.0  T
   4   -386.1108155 -0.409566E-02  0.859E-04    0.07       8.1  T
   5   -386.1108155  0.218381E-07  0.931E-04    0.07       7.5  T
   6   -386.1108156 -0.842307E-07  0.662E-04    0.07      10.6  T
     SCC iter.                  ...        0 min,  1.064 sec
     gradient                   ...        0 min,  0.419 sec
 * total energy  :  -378.6835188 Eh     change       -0.9858780E-05 Eh
   gradient norm :     0.0005507 Eh/α   predicted    -0.3518930E-05 ( -64.31%)
   displ. norm   :     0.0903286 α      lambda       -0.7365665E-05
   maximum displ.:     0.0674796 α      in ANC's #1, #10, #5, ...

........................................................................
.............................. CYCLE   30 ..............................
........................................................................

 iter      E             dE          RMSdq      gap      omega  full diag
   1   -386.1109736 -0.386111E+03  0.886E-03    0.07       0.0  T
   2   -386.1109103  0.633704E-04  0.127E-02    0.06       1.0  T
   3   -386.1099296  0.980709E-03  0.471E-02    0.08       1.0  T
   4   -386.1109718 -0.104227E-02  0.197E-03    0.07       3.5  T
   5   -386.1109737 -0.191655E-05  0.389E-04    0.07      18.0  T
   6   -386.1109737 -0.441878E-08  0.359E-04    0.07      19.5  T
   7   -386.1109737  0.506253E-08  0.318E-04    0.07      22.0  T
     SCC iter.                  ...        0 min,  1.258 sec
     gradient                   ...        0 min,  0.432 sec
 * total energy  :  -378.6835294 Eh     change       -0.1062297E-04 Eh
   gradient norm :     0.0004776 Eh/α   predicted    -0.3696345E-05 ( -65.20%)
   displ. norm   :     0.1033236 α      lambda       -0.8740492E-05
   maximum displ.:     0.0762998 α      in ANC's #1, #10, #5, ...

........................................................................
.............................. CYCLE   31 ..............................
........................................................................

 iter      E             dE          RMSdq      gap      omega  full diag
   1   -386.1110840 -0.386111E+03  0.958E-03    0.07       0.0  T
   2   -386.1109763  0.107753E-03  0.162E-02    0.06       1.0  T
   3   -386.1102663  0.710014E-03  0.417E-02    0.08       1.0  T
   4   -386.1110835 -0.817258E-03  0.133E-03    0.07       5.2  T
   5   -386.1110839 -0.340427E-06  0.959E-04    0.07       7.3  T
   6   -386.1110842 -0.391329E-06  0.328E-04    0.07      21.3  T
     SCC iter.                  ...        0 min,  1.114 sec
     gradient                   ...        0 min,  0.466 sec
 * total energy  :  -378.6835419 Eh     change       -0.1252852E-04 Eh
   gradient norm :     0.0003235 Eh/α   predicted    -0.4391063E-05 ( -64.95%)
   displ. norm   :     0.1289763 α      lambda       -0.1083564E-04
   maximum displ.:     0.0939453 α      in ANC's #1, #10, #5, ...

........................................................................
.............................. CYCLE   32 ..............................
........................................................................

 iter      E             dE          RMSdq      gap      omega  full diag
   1   -386.1112027 -0.386111E+03  0.118E-02    0.07       0.0  T
   2   -386.1110806  0.122126E-03  0.177E-02    0.06       1.0  T
   3   -386.1096791  0.140145E-02  0.568E-02    0.08       1.0  T
   4   -386.1112012 -0.152211E-02  0.227E-03    0.07       3.1  T
   5   -386.1112017 -0.528155E-06  0.166E-03    0.07       4.2  T
   6   -386.1112027 -0.960782E-06  0.791E-04    0.07       8.8  T
   7   -386.1112030 -0.279361E-06  0.155E-04    0.07      45.0  T
     SCC iter.                  ...        0 min,  1.269 sec
     gradient                   ...        0 min,  0.441 sec
 * total energy  :  -378.6835575 Eh     change       -0.1555879E-04 Eh
   gradient norm :     0.0002177 Eh/α   predicted    -0.5458386E-05 ( -64.92%)
   displ. norm   :     0.1612038 α      lambda       -0.1315055E-04
   maximum displ.:     0.1161890 α      in ANC's #1, #10, #5, ...

........................................................................
.............................. CYCLE   33 ..............................
........................................................................

 iter      E             dE          RMSdq      gap      omega  full diag
   1   -386.1112350 -0.386111E+03  0.147E-02    0.07       0.0  T
   2   -386.1109309  0.304084E-03  0.270E-02    0.06       1.0  T
   3   -386.1097971  0.113376E-02  0.554E-02    0.08       1.0  T
   4   -386.1112244 -0.142725E-02  0.478E-03    0.07       1.5  T
   5   -386.1112354 -0.109724E-04  0.935E-04    0.07       7.5  T
   6   -386.1112354 -0.854740E-07  0.768E-04    0.07       9.1  T
   7   -386.1112353  0.103060E-06  0.843E-04    0.07       8.3  T
     SCC iter.                  ...        0 min,  1.268 sec
     gradient                   ...        0 min,  0.437 sec
 * total energy  :  -378.6835759 Eh     change       -0.1841225E-04 Eh
   gradient norm :     0.0003017 Eh/α   predicted    -0.6652138E-05 ( -63.87%)
   displ. norm   :     0.1908294 α      lambda       -0.1487439E-04
   maximum displ.:     0.1367026 α      in ANC's #1, #10, #5, ...

........................................................................
.............................. CYCLE   34 ..............................
........................................................................

 iter      E             dE          RMSdq      gap      omega  full diag
   1   -386.1112536 -0.386111E+03  0.173E-02    0.07       0.0  T
   2   -386.1108053  0.448362E-03  0.327E-02    0.06       1.0  T
   3   -386.1093800  0.142532E-02  0.633E-02    0.08       1.0  T
   4   -386.1112468 -0.186688E-02  0.409E-03    0.07       1.7  T
   5   -386.1112532 -0.632350E-05  0.184E-03    0.07       3.8  T
   6   -386.1112541 -0.943908E-06  0.115E-03    0.07       6.1  T
   7   -386.1112543 -0.220575E-06  0.851E-04    0.07       8.2  T
   8   -386.1112546 -0.301153E-06  0.227E-04    0.07      30.7  T
     SCC iter.                  ...        0 min,  1.451 sec
     gradient                   ...        0 min,  0.465 sec
 * total energy  :  -378.6835972 Eh     change       -0.2129109E-04 Eh
   gradient norm :     0.0004452 Eh/α   predicted    -0.7558337E-05 ( -64.50%)
   displ. norm   :     0.2069383 α      lambda       -0.1526549E-04
   maximum displ.:     0.1479877 α      in ANC's #1, #10, #5, ...

........................................................................
.............................. CYCLE   35 ..............................
........................................................................

 iter      E             dE          RMSdq      gap      omega  full diag
   1   -386.1112005 -0.386111E+03  0.189E-02    0.07       0.0  T
   2   -386.1111977  0.287988E-05  0.114E-02    0.07       1.0  T
   3   -386.1023569  0.884081E-02  0.137E-01    0.04       1.0  T
   4   -386.1111960 -0.883913E-02  0.319E-03    0.07       2.2  T
   5   -386.1111999 -0.389825E-05  0.158E-03    0.07       4.4  T
   6   -386.1112003 -0.450058E-06  0.800E-04    0.07       8.7  T
   7   -386.1112006 -0.229312E-06  0.468E-04    0.07      14.9  T
     SCC iter.                  ...        0 min,  1.297 sec
     gradient                   ...        0 min,  0.442 sec
 * total energy  :  -378.6836184 Eh     change       -0.2120749E-04 Eh
   gradient norm :     0.0004959 Eh/α   predicted    -0.7778507E-05 ( -63.32%)
   displ. norm   :     0.2021799 α      lambda       -0.1405431E-04
   maximum displ.:     0.1450925 α      in ANC's #1, #10, #5, ...

........................................................................
.............................. CYCLE   36 ..............................
........................................................................

 iter      E             dE          RMSdq      gap      omega  full diag
   1   -386.1111600 -0.386111E+03  0.182E-02    0.07       0.0  T
   2   -386.1111493  0.106160E-04  0.117E-02    0.07       1.0  T
   3   -386.0898199  0.213294E-01  0.212E-01    0.03       1.0  T
   4   -386.1111587 -0.213388E-01  0.195E-03    0.07       3.6  T
   5   -386.1111586  0.109891E-06  0.208E-03    0.07       3.4  T
   6   -386.1111599 -0.137917E-05  0.661E-04    0.07      10.6  T
   7   -386.1111601 -0.123267E-06  0.320E-04    0.07      21.8  T
   8   -386.1111600  0.641014E-07  0.444E-04    0.07      15.7  T
     SCC iter.                  ...        0 min,  1.458 sec
     gradient                   ...        0 min,  0.441 sec
 * total energy  :  -378.6836378 Eh     change       -0.1941318E-04 Eh
   gradient norm :     0.0004326 Eh/α   predicted    -0.7162832E-05 ( -63.10%)
   displ. norm   :     0.1776322 α      lambda       -0.1158678E-04
   maximum displ.:     0.1284973 α      in ANC's #1, #10, #2, ...

........................................................................
.............................. CYCLE   37 ..............................
........................................................................

 iter      E             dE          RMSdq      gap      omega  full diag
   1   -386.1112172 -0.386111E+03  0.160E-02    0.07       0.0  T
   2   -386.1111938  0.234001E-04  0.119E-02    0.07       1.0  T
   3   -386.1025507  0.864309E-02  0.135E-01    0.11       1.0  T
   4   -386.1112126 -0.866191E-02  0.310E-03    0.07       2.3  T
   5   -386.1112169 -0.431509E-05  0.886E-04    0.07       7.9  T
   6   -386.1112167  0.194674E-06  0.114E-03    0.07       6.1  T
   7   -386.1112172 -0.447134E-06  0.600E-04    0.07      11.6  T
   8   -386.1112173 -0.151346E-06  0.144E-04    0.07      48.7  T
     SCC iter.                  ...        0 min,  1.474 sec
     gradient                   ...        0 min,  0.439 sec
 * total energy  :  -378.6836541 Eh     change       -0.1626777E-04 Eh
   gradient norm :     0.0003343 Eh/α   predicted    -0.5877402E-05 ( -63.87%)
   displ. norm   :     0.1471896 α      lambda       -0.9205268E-05
   maximum displ.:     0.1076636 α      in ANC's #1, #10, #2, ...

........................................................................
.............................. CYCLE   38 ..............................
........................................................................

 iter      E             dE          RMSdq      gap      omega  full diag
   1   -386.1112522 -0.386111E+03  0.131E-02    0.07       0.0  T
   2   -386.1111649  0.873032E-04  0.155E-02    0.07       1.0  T
   3   -386.1059994  0.516547E-02  0.106E-01    0.05       1.0  T
   4   -386.1112482 -0.524881E-02  0.293E-03    0.07       2.4  T
   5   -386.1112523 -0.405647E-05  0.723E-04    0.07       9.7  T
   6   -386.1112521  0.180171E-06  0.901E-04    0.07       7.7  T
   7   -386.1112521  0.395394E-07  0.890E-04    0.07       7.8  T
     SCC iter.                  ...        0 min,  1.274 sec
     gradient                   ...        0 min,  0.466 sec
 * total energy  :  -378.6836668 Eh     change       -0.1270550E-04 Eh
   gradient norm :     0.0002261 Eh/α   predicted    -0.4647123E-05 ( -63.42%)
   displ. norm   :     0.1186635 α      lambda       -0.7459941E-05
   maximum displ.:     0.0878477 α      in ANC's #1, #2, #9, ...

........................................................................
.............................. CYCLE   39 ..............................
........................................................................

 iter      E             dE          RMSdq      gap      omega  full diag
   1   -386.1113030 -0.386111E+03  0.103E-02    0.07       0.0  T
   2   -386.1112946  0.837661E-05  0.749E-03    0.07       1.0  T
   3   -386.1070798  0.421486E-02  0.941E-02    0.09       1.0  T
   4   -386.1113027 -0.422290E-02  0.111E-03    0.07       6.3  T
   5   -386.1113028 -0.135506E-06  0.910E-04    0.07       7.7  T
   6   -386.1113030 -0.208389E-06  0.386E-04    0.07      18.1  T
     SCC iter.                  ...        0 min,  1.116 sec
     gradient                   ...        0 min,  0.423 sec
 * total energy  :  -378.6836778 Eh     change       -0.1106629E-04 Eh
   gradient norm :     0.0001739 Eh/α   predicted    -0.3753600E-05 ( -66.08%)
   displ. norm   :     0.1028565 α      lambda       -0.6685288E-05
   maximum displ.:     0.0766406 α      in ANC's #1, #2, #9, ...

........................................................................
.............................. CYCLE   40 ..............................
........................................................................

 iter      E             dE          RMSdq      gap      omega  full diag
   1   -386.1113403 -0.386111E+03  0.873E-03    0.07       0.0  T
   2   -386.1113398  0.475792E-06  0.529E-03    0.07       1.3  T
   3   -386.1102718  0.106796E-02  0.472E-02    0.08       1.0  T
   4   -386.1113386 -0.106681E-02  0.174E-03    0.07       4.0  T
   5   -386.1113402 -0.151173E-05  0.540E-04    0.07      12.9  T
   6   -386.1113403 -0.135053E-06  0.178E-04    0.07      39.2  T
   7   -386.1113403 -0.793074E-08  0.104E-04    0.07      67.3  T
     SCC iter.                  ...        0 min,  1.279 sec
     gradient                   ...        0 min,  0.467 sec
 * total energy  :  -378.6836877 Eh     change       -0.9835297E-05 Eh
   gradient norm :     0.0001654 Eh/α   predicted    -0.3361483E-05 ( -65.82%)
   displ. norm   :     0.0996253 α      lambda       -0.6742773E-05
   maximum displ.:     0.0740467 α      in ANC's #1, #2, #9, ...

........................................................................
.............................. CYCLE   41 ..............................
........................................................................

 iter      E             dE          RMSdq      gap      omega  full diag
   1   -386.1113535 -0.386111E+03  0.836E-03    0.07       0.0  T
   2   -386.1113226  0.309147E-04  0.940E-03    0.07       1.0  T
   3   -386.1091575  0.216501E-02  0.682E-02    0.05       1.0  T
   4   -386.1113490 -0.219145E-02  0.324E-03    0.07       2.2  T
   5   -386.1113533 -0.432192E-05  0.787E-04    0.07       8.9  T
   6   -386.1113535 -0.226210E-06  0.251E-04    0.07      27.8  T
   7   -386.1113535  0.538780E-07  0.402E-04    0.07      17.4  T
     SCC iter.                  ...        0 min,  1.287 sec
     gradient                   ...        0 min,  0.444 sec
 * total energy  :  -378.6836974 Eh     change       -0.9755828E-05 Eh
   gradient norm :     0.0001880 Eh/α   predicted    -0.3389116E-05 ( -65.26%)
   displ. norm   :     0.1079508 α      lambda       -0.7425975E-05
   maximum displ.:     0.0795014 α      in ANC's #1, #2, #4, ...

........................................................................
.............................. CYCLE   42 ..............................
........................................................................

 iter      E             dE          RMSdq      gap      omega  full diag
   1   -386.1113902 -0.386111E+03  0.905E-03    0.07       0.0  T
   2   -386.1113779  0.122727E-04  0.746E-03    0.07       1.0  T
   3   -386.1083741  0.300388E-02  0.795E-02    0.09       1.0  T
   4   -386.1113895 -0.301542E-02  0.125E-03    0.07       5.6  T
   5   -386.1113901 -0.659499E-06  0.474E-04    0.07      14.7  T
   6   -386.1113902 -0.873524E-08  0.495E-04    0.07      14.1  T
     SCC iter.                  ...        0 min,  1.108 sec
     gradient                   ...        0 min,  0.442 sec
 * total energy  :  -378.6837082 Eh     change       -0.1080392E-04 Eh
   gradient norm :     0.0001975 Eh/α   predicted    -0.3735296E-05 ( -65.43%)
   displ. norm   :     0.1248662 α      lambda       -0.8482870E-05
   maximum displ.:     0.0910432 α      in ANC's #1, #2, #4, ...
 * RMSD in coord.:     0.1664162 α      energy gain  -0.2774110E-03 Eh

generating ANC from exact Hessian ...
Using Lindh-Hessian (1995)
 Shifting diagonal of input Hessian by   9.910884344284665E-003
 Lowest  eigenvalues of input Hessian
    0.000000    0.000000    0.000000    0.000000    0.000000    0.000000
    0.010000    0.010047    0.010064    0.010202    0.010222    0.010624
    0.010680    0.010708    0.010822    0.011015    0.011612    0.011687
 Highest eigenvalues
    2.172671    2.183398    2.195776    2.201877    2.225335    2.230754
 

........................................................................
.............................. CYCLE   43 ..............................
........................................................................

 iter      E             dE          RMSdq      gap      omega  full diag
   1   -386.1114197 -0.386111E+03  0.105E-02    0.07       0.0  T
   2   -386.1114196  0.649670E-07  0.626E-03    0.07       1.1  T
   3   -386.1112777  0.141951E-03  0.175E-02    0.06       1.0  T
   4   -386.1114007 -0.122977E-03  0.640E-03    0.07       1.1  T
   5   -386.1114196 -0.189407E-04  0.544E-04    0.07      12.8  T
   6   -386.1114196  0.124022E-07  0.543E-04    0.07      12.9  T
   7   -386.1114197 -0.143903E-06  0.134E-04    0.07      51.9  T
     SCC iter.                  ...        0 min,  1.275 sec
     gradient                   ...        0 min,  0.464 sec
 * total energy  :  -378.6837205 Eh     change       -0.1227656E-04 Eh
   gradient norm :     0.0002048 Eh/α   predicted     0.0000000E+00 (-100.00%)
   displ. norm   :     0.0196139 α      lambda       -0.5210122E-07
   maximum displ.:     0.0174139 α      in ANC's #1, #10, #4, ...

........................................................................
.............................. CYCLE   44 ..............................
........................................................................

 iter      E             dE          RMSdq      gap      omega  full diag
   1   -386.1113927 -0.386111E+03  0.172E-03    0.07       0.0  T
   2   -386.1113927  0.574024E-07  0.108E-03    0.07       6.5  T
   3   -386.1112987  0.940179E-04  0.140E-02    0.06       1.0  T
   4   -386.1113925 -0.938419E-04  0.855E-04    0.07       8.2  T
   5   -386.1113927 -0.202569E-06  0.293E-04    0.07      23.8  T
   6   -386.1113927 -0.267494E-07  0.126E-04    0.07      55.6  T
     SCC iter.                  ...        0 min,  1.097 sec
     gradient                   ...        0 min,  0.446 sec
 * total energy  :  -378.6837232 Eh     change       -0.2664162E-05 Eh
   gradient norm :     0.0001460 Eh/α   predicted    -0.9143172E-06 ( -65.68%)
   displ. norm   :     0.0372069 α      lambda       -0.3254707E-05
   maximum displ.:     0.0283529 α      in ANC's #1, #10, #4, ...

   *** GEOMETRY OPTIMIZATION CONVERGED AFTER 44 ITERATIONS ***

------------------------------------------------------------------------
 total energy gain   :        -0.0275604 Eh      -17.2944 kcal/mol
 total RMSD          :         0.3198779 a0        0.1693 Å
 total power (kW/mol):        -1.6445435 (step)   -0.7983 (real)
------------------------------------------------------------------------

 ANCopt (total)                0 d,  0 h,  1 min, 30.645 sec
 optimizer setup                ...        0 min,  0.003 sec (  0.003%)
 model hessian                  ...        0 min,  0.664 sec (  0.733%)
 ANC generation                 ...        0 min,  0.267 sec (  0.295%)
 coordinate transformation      ...        0 min,  0.017 sec (  0.019%)
 single point calculation       ...        1 min, 29.528 sec ( 98.768%)
 optimization log               ...        0 min,  0.104 sec (  0.115%)
 hessian update                 ...        0 min,  0.016 sec (  0.018%)
 rational function              ...        0 min,  0.026 sec (  0.029%)

================
 final structure:
================
205
 xtb: 6.7.1pre (5071a88)
C           10.00675525307180        8.26898291083442        1.81524242132913
C            9.30622782484733        9.45025592464507        1.98590060552933
C            7.95314562017111        9.46652493401558        1.74365514680679
C            7.26068075241901        8.31461769319288        1.34138136987870
B           10.16480092366884        5.79973125703724        1.27304050810567
C            9.36444361646786        7.08909242950586        1.45386560042330
C            7.96122680877003        7.09273908624889        1.23685805097977
C            7.24393311706883        5.87726617120966        0.93104782975777
C            9.95847172142010        3.33719319003262        0.79643229595101
C            9.33849765623967        4.54935731199408        0.94791849570975
C            7.91199685127321        4.63065228214773        0.82233312120885
C            7.17027747509427        3.44545681010982        0.58486747848007
C            9.90519559742457        0.93620153614187        0.38390139682055
C            9.24830280655958        2.14439826233168        0.54497478695391
C            7.82921194214563        2.19947056961675        0.46043150392100
C            7.09995048571789        1.00508304659880        0.25041420085385
C            9.86000387442522       -1.45213893803243       -0.04500982298991
C            9.19547545945179       -0.24402228606141        0.15145018656224
C            7.76997897567134       -0.22697811139461        0.10173526879277
C            7.04788486282868       -1.43305860529533       -0.09726848912357
B            9.64820706230358       -3.96334951746275       -0.56478661166747
C            9.17221736560423       -2.63167582967196       -0.28056004803533
C            7.71533294659047       -2.66328705060832       -0.29029628081434
C            6.99065123835944       -3.87499558733319       -0.48782011083803
C            9.66344916034273       -6.46491449680957       -1.16969071339174
C            9.06981029495613       -5.25532953331280       -0.84867126722998
C            7.62152059469020       -5.12855199613027       -0.74778594081873
C            6.86399933765242       -6.30645151751364       -0.92625599188545
C            9.53279180978946       -8.82609276276722       -1.74580019491324
C            8.90876882341261       -7.61657980495857       -1.39156682313400
C            7.49563871494253       -7.54530571396497       -1.24071007852066
C            6.74157262188824       -8.72810793551366       -1.41744749493060
C            8.77736093628918       -9.95093900247128       -1.95400432626113
C            7.40102311064476       -9.90181804687278       -1.78750401347680
C            5.85563219593413        8.36509095352311        1.03167741668245
C            5.16318723716921        9.58123410114950        0.97210299026087
C            3.83533565641680        9.63291608450134        0.65899180327176
C            3.09814502398189        8.46834017033558        0.40457554343501
C            5.84051283353588        5.92431746751526        0.74896323774681
C            5.15092796793767        7.17365885765271        0.76464058860224
C            3.75840853213076        7.22515987900145        0.49269851788730
C            3.01207111693231        6.02685199712045        0.31873003645298
C            5.75763201448244        3.49138967704394        0.46641920390569
C            5.09562997202891        4.73545914984181        0.52451785735857
C            3.68323554060220        4.78450435259551        0.35766264421687
C            2.94561490866451        3.58517899564462        0.21979190573345
C            5.68529341144773        1.04913186229759        0.18837080413155
C            5.02198711490329        2.29138781560616        0.28369921516223
C            3.61144704515286        2.33710494772893        0.19683857771496
C            2.87259993800501        1.13790638056998        0.08046140619636
C            5.62712080355073       -1.39281140799789       -0.10282044057093
C            4.95619851087956       -0.15182198611227        0.03141444777388
C            3.54208939884994       -0.10629271749374        0.01007450012638
C            2.80430769953115       -1.30897265892721       -0.07766163307985
C            5.56735440337941       -3.83072457865795       -0.42370042157479
C            4.89429457636932       -2.59293030852735       -0.23905917820325
C            3.47588431748618       -2.54773452533431       -0.19023596836057
C            2.72779504165472       -3.74759387099517       -0.24620965492287
C            5.44987219706171       -6.25778298395096       -0.78813050292939
C            4.80892124458298       -5.02557190765204       -0.54127876751954
C            3.39094495398003       -4.98517551116525       -0.40828634374804
C            2.63949885971587       -6.18053017757972       -0.43593745677246
C            5.31852589020319       -8.68500595705593       -1.19375840961171
C            4.69031691305313       -7.45767741057877       -0.88849093385374
C            3.28946919753036       -7.42323165313528       -0.66371799960101
C            2.53903327187599       -8.61926501100833       -0.67927507076169
C            4.53618868299700       -9.84145501346730       -1.25684497391195
C            3.19335090124353       -9.81338537840946       -0.99831551552964
C            1.70433106465335        8.52401582842893        0.07406934629383
C            1.07027874513372        9.74790460914820       -0.17953897534553
C           -0.26924506059787        9.80653865809251       -0.43070173171043
C           -1.07832410349513        8.66059723483686       -0.43143822501509
C            1.61078642544546        6.07888503981948        0.12449230742305
C            0.94241274437670        7.33304645210317       -0.00709668355947
C           -0.45694897841417        7.38810282128891       -0.23174508646294
C           -1.19787587315670        6.15577619357826       -0.24477852374448
C            1.53678921119166        3.63034977926974        0.09884396041498
C            0.87345091920949        4.87544035456000        0.04162973592084
C           -0.53629886982409        4.91849527582116       -0.10787579289815
C           -1.29370410400229        3.71900576813281       -0.12889632523470
C            1.45725427493070        1.18444100657536        0.03348372856436
C            0.78923381042507        2.42853573061418        0.02943161802096
C           -0.62529393523089        2.47312203173808       -0.04792720325374
C           -1.36967856334702        1.27175720621557       -0.04798939169702
C            1.38737774828496       -1.26278112629006       -0.04831364154200
C            0.71551109325149       -0.01828340716948       -0.00862106200092
C           -0.69891985513849        0.02606719735429       -0.01101067126091
C           -1.44025108850070       -1.17783493634006        0.02513176350308
C            1.31641532513583       -3.70588024108649       -0.13838592155138
C            0.64512067283134       -2.46224976624718       -0.05488180165342
C           -0.76814449171551       -2.41908443625618        0.02097269976918
C           -1.50880076019358       -3.62240746242418        0.09763458694144
C            1.23615408227009       -6.14346717999870       -0.24846629949334
C            0.57334963283017       -4.90669142124943       -0.11144617636907
C           -0.83826845880144       -4.86528248448042        0.05272134708437
C           -1.57335634121641       -6.06167649062901        0.17419293243008
C            1.13668362405376       -8.58957024668901       -0.37038450070599
C            0.48967076736790       -7.35124433580751       -0.18448847002571
C           -0.90324737754666       -7.31188884632541        0.08073812909517
C           -1.62612809404594       -8.51203078445105        0.23738239739504
[...]
    13   6 C       18   6 C                                       1.3966620
    17   6 C       18   6 C                                       1.3927458
    16   6 C       19   6 C                                       1.4103257
    18   6 C       19   6 C                                       1.4264651
    19   6 C       20   6 C                                       1.4197369
    17   6 C       22   6 C                                       1.3855836
    21   5 B       22   6 C                                       1.4424653
    20   6 C       23   6 C                                       1.4128726
    23   6 C       24   6 C                                       1.4256287
    21   5 B       26   6 C                                       1.4437265
    25   6 C       26   6 C                                       1.3851198
    24   6 C       27   6 C                                       1.4272289
    27   6 C       28   6 C                                       1.4117853
    25   6 C       30   6 C                                       1.3946701
    29   6 C       30   6 C                                       1.4063456
    28   6 C       31   6 C                                       1.4256962
    30   6 C       31   6 C                                       1.4229458
    31   6 C       32   6 C                                       1.4138151
    29   6 C       33   6 C                                       1.3708772
    32   6 C       34   6 C                                       1.3962137
    33   6 C       34   6 C                                       1.3872424
    35   6 C       36   6 C                                       1.4007261
    36   6 C       37   6 C                                       1.3652472
    37   6 C       38   6 C                                       1.4015759
     8   6 C       39   6 C                                       1.4159652
    35   6 C       40   6 C                                       1.4097615
    39   6 C       40   6 C                                       1.4271045
    38   6 C       41   6 C                                       1.4103940
    40   6 C       41   6 C                                       1.4197590
    41   6 C       42   6 C                                       1.4224017
    12   6 C       43   6 C                                       1.4183467
    39   6 C       44   6 C                                       1.4207782
    43   6 C       44   6 C                                       1.4104366
    42   6 C       45   6 C                                       1.4125882
    44   6 C       45   6 C                                       1.4230617
    45   6 C       46   6 C                                       1.4147347
    16   6 C       47   6 C                                       1.4167020
    43   6 C       48   6 C                                       1.4193537
    47   6 C       48   6 C                                       1.4114755
    46   6 C       49   6 C                                       1.4147609
    48   6 C       49   6 C                                       1.4139514
    49   6 C       50   6 C                                       1.4133352
    20   6 C       51   6 C                                       1.4213450
    47   6 C       52   6 C                                       1.4136850
    51   6 C       52   6 C                                       1.4171136
    50   6 C       53   6 C                                       1.4146385
    52   6 C       53   6 C                                       1.4150029
    53   6 C       54   6 C                                       1.4136686
    24   6 C       55   6 C                                       1.4254282
    51   6 C       56   6 C                                       1.4127565
    55   6 C       56   6 C                                       1.4209986
    54   6 C       57   6 C                                       1.4135839
    56   6 C       57   6 C                                       1.4199699
    57   6 C       58   6 C                                       1.4150737
    28   6 C       59   6 C                                       1.4216903
    55   6 C       60   6 C                                       1.4201078
    59   6 C       60   6 C                                       1.4107085
    58   6 C       61   6 C                                       1.4133808
    60   6 C       61   6 C                                       1.4247723
    61   6 C       62   6 C                                       1.4122000
    59   6 C       64   6 C                                       1.4236374
    63   6 C       64   6 C                                       1.4121510
    62   6 C       65   6 C                                       1.4207930
    64   6 C       65   6 C                                       1.4191843
    65   6 C       66   6 C                                       1.4120525
    63   6 C       67   6 C                                       1.3976431
    66   6 C       68   6 C                                       1.3985143
    67   6 C       68   6 C                                       1.3677862
    38   6 C       69   6 C                                       1.4335452
    69   6 C       70   6 C                                       1.4015148
    70   6 C       71   6 C                                       1.3641279
    71   6 C       72   6 C                                       1.4027799
    42   6 C       73   6 C                                       1.4156394
    69   6 C       74   6 C                                       1.4161624
    73   6 C       74   6 C                                       1.4272212
    72   6 C       75   6 C                                       1.4301143
    74   6 C       75   6 C                                       1.4183482
    46   6 C       77   6 C                                       1.4147293
    73   6 C       78   6 C                                       1.4137925
    77   6 C       78   6 C                                       1.4119285
    76   6 C       79   6 C                                       1.4097131
    78   6 C       79   6 C                                       1.4183090
    79   6 C       80   6 C                                       1.4187600
    50   6 C       81   6 C                                       1.4168896
    77   6 C       82   6 C                                       1.4170443
    81   6 C       82   6 C                                       1.4121047
    80   6 C       83   6 C                                       1.4161761
    82   6 C       83   6 C                                       1.4173431
    83   6 C       84   6 C                                       1.4132892
    54   6 C       85   6 C                                       1.4179865
    81   6 C       86   6 C                                       1.4136839
    85   6 C       86   6 C                                       1.4148340
    84   6 C       87   6 C                                       1.4152839
    86   6 C       87   6 C                                       1.4151283
    87   6 C       88   6 C                                       1.4143051
    58   6 C       89   6 C                                       1.4161070
    85   6 C       90   6 C                                       1.4105723
    89   6 C       90   6 C                                       1.4157071
    88   6 C       91   6 C                                       1.4115400
    90   6 C       91   6 C                                       1.4159576
    91   6 C       92   6 C                                       1.4150744
    62   6 C       93   6 C                                       1.4162966
    89   6 C       94   6 C                                       1.4123811
    93   6 C       94   6 C                                       1.4098578
    92   6 C       95   6 C                                       1.4129294
    94   6 C       95   6 C                                       1.4217354
    95   6 C       96   6 C                                       1.4094213
    93   6 C       98   6 C                                       1.4212869
    97   6 C       98   6 C                                       1.4094802
    96   6 C       99   6 C                                       1.4215524
    98   6 C       99   6 C                                       1.4184905
    99   6 C      100   6 C                                       1.4097642
    97   6 C      101   6 C                                       1.4003361
   100   6 C      102   6 C                                       1.4003492
   101   6 C      102   6 C                                       1.3672616
    72   6 C      103   6 C                                       1.4276783
   103   6 C      104   6 C                                       1.3991737
   104   6 C      105   6 C                                       1.3814788
   105   6 C      106   6 C                                       1.4165156
    76   6 C      107   6 C                                       1.4080065
   103   6 C      108   5 B                                       1.5067497
   107   6 C      108   5 B                                       1.4996869
   106   6 C      109   6 C                                       1.4014008
   108   5 B      109   6 C                                       1.5028230
   109   6 C      110   6 C                                       1.4151108
    80   6 C      111   6 C                                       1.4193415
   107   6 C      112   6 C                                       1.4068471
   111   6 C      112   6 C                                       1.4131178
   110   6 C      113   6 C                                       1.4245867
   113   6 C      114   6 C                                       1.4194998
    84   6 C      115   6 C                                       1.4186434
   111   6 C      116   6 C                                       1.4154393
   115   6 C      116   6 C                                       1.4135292
   114   6 C      117   6 C                                       1.4308757
   116   6 C      117   6 C                                       1.4200069
   117   6 C      118   6 C                                       1.4110994
    88   6 C      119   6 C                                       1.4179342
   115   6 C      120   6 C                                       1.4145681
   119   6 C      120   6 C                                       1.4159311
   118   6 C      121   6 C                                       1.4203343
   120   6 C      121   6 C                                       1.4130787
   121   6 C      122   6 C                                       1.4182010
    92   6 C      123   6 C                                       1.4142623
   119   6 C      124   6 C                                       1.4118263
   123   6 C      124   6 C                                       1.4172785
   122   6 C      125   6 C                                       1.4113654
   124   6 C      125   6 C                                       1.4170727
   125   6 C      126   6 C                                       1.4233579
    96   6 C      127   6 C                                       1.4158428
   123   6 C      128   6 C                                       1.4125178
   127   6 C      128   6 C                                       1.4117323
   126   6 C      129   6 C                                       1.4219028
   128   6 C      129   6 C                                       1.4240495
   129   6 C      130   6 C                                       1.4074671
   127   6 C      132   6 C                                       1.4211068
   131   6 C      132   6 C                                       1.4118231
   130   6 C      133   6 C                                       1.4251351
   132   6 C      133   6 C                                       1.4181673
   133   6 C      134   6 C                                       1.4116658
   131   6 C      135   6 C                                       1.3983404
   134   6 C      136   6 C                                       1.3975913
   135   6 C      136   6 C                                       1.3687137
   137   6 C      138   6 C                                       1.3946786
   138   6 C      139   6 C                                       1.3859425
   139   6 C      140   6 C                                       1.3740674
   110   6 C      141   6 C                                       1.4189705
   137   6 C      142   6 C                                       1.4215675
   141   6 C      142   6 C                                       1.4272383
   140   6 C      143   6 C                                       1.4016448
   142   6 C      143   6 C                                       1.4172847
   143   6 C      144   6 C                                       1.4073318
   114   6 C      145   6 C                                       1.4244172
   141   6 C      146   6 C                                       1.4121754
   145   6 C      146   6 C                                       1.4282092
   144   6 C      147   6 C                                       1.3729849
   146   6 C      147   6 C                                       1.4331846
   147   6 C      148   5 B                                       1.5255205
   118   6 C      149   6 C                                       1.4202314
   145   6 C      150   6 C                                       1.4304023
   149   6 C      150   6 C                                       1.4156156
   148   5 B      151   6 C                                       1.5278130
   150   6 C      151   6 C                                       1.4298155
   151   6 C      152   6 C                                       1.3748928
   122   6 C      153   6 C                                       1.4188876
   149   6 C      154   6 C                                       1.4173665
   153   6 C      154   6 C                                       1.4191047
   152   6 C      155   6 C                                       1.3993498
   154   6 C      155   6 C                                       1.4137746
   155   6 C      156   6 C                                       1.3985034
   126   6 C      157   6 C                                       1.4157886
   153   6 C      158   6 C                                       1.4135005
   157   6 C      158   6 C                                       1.4319793
   156   6 C      159   6 C                                       1.3766591
   158   6 C      159   6 C                                       1.4279632
   159   6 C      160   5 B                                       1.5260596
   130   6 C      161   6 C                                       1.4194773
   157   6 C      162   6 C                                       1.4265092
   161   6 C      162   6 C                                       1.4126212
   160   5 B      163   6 C                                       1.5304771
   162   6 C      163   6 C                                       1.4335542
   163   6 C      164   6 C                                       1.3718068
   161   6 C      166   6 C                                       1.4232021
   165   6 C      166   6 C                                       1.4150603
   164   6 C      167   6 C                                       1.4079799
   166   6 C      167   6 C                                       1.4166842
   167   6 C      168   6 C                                       1.4010127
   165   6 C      169   6 C                                       1.3937227
   168   6 C      170   6 C                                       1.3736945
   169   6 C      170   6 C                                       1.3867175
     1   6 C      171   1 H                                       1.0802796
     2   6 C      172   1 H                                       1.0804038
     3   6 C      173   1 H                                       1.0777561
     5   5 B      174   1 H                                       1.1709052
     9   6 C      175   1 H                                       1.0809515
    13   6 C      176   1 H                                       1.0805506
    17   6 C      177   1 H                                       1.0802557
    25   6 C      178   1 H                                       1.0802169
    29   6 C      179   1 H                                       1.0798556
    36   6 C      180   1 H                                       1.0772928
    37   6 C      181   1 H                                       1.0772167
    70   6 C      182   1 H                                       1.0777346
    71   6 C      183   1 H                                       1.0787563
   104   6 C      184   1 H                                       1.0838854
   105   6 C      185   1 H                                       1.0804021
   138   6 C      186   1 H                                       1.0783638
   139   6 C      187   1 H                                       1.0805504
   140   6 C      188   1 H                                       1.0805453
   144   6 C      189   1 H                                       1.0815034
   148   5 B      190   1 H                                       1.1709232
   152   6 C      191   1 H                                       1.0808884
   156   6 C      192   1 H                                       1.0809158
   160   5 B      193   1 H                                       1.1706071
   164   6 C      194   1 H                                       1.0810683
   168   6 C      195   1 H                                       1.0801728
   170   6 C      196   1 H                                       1.0802104
    33   6 C      197   1 H                                       1.0800046
    34   6 C      198   1 H                                       1.0770730 (min)
    67   6 C      199   1 H                                       1.0772696
    68   6 C      200   1 H                                       1.0771931
   101   6 C      201   1 H                                       1.0774556
   102   6 C      202   1 H                                       1.0774212
   135   6 C      203   1 H                                       1.0774714
   136   6 C      204   1 H                                       1.0775140
   169   6 C      205   1 H                                       1.0778347

 * 4 distinct bonds (by element types)

   Z      Z             #   av. dist./Å        max./Å        min./Å
   1 H    5 B           3     1.1708118     1.1709232     1.1706071
   1 H    6 C          32     1.0793442     1.0838854     1.0770730
   5 B    6 C          11     1.5061113     1.5335961     1.4424653
   6 C    6 C         214     1.4110190     1.4335542     1.3641279


optimized geometry written to: xtbopt.xyz


           -------------------------------------------------
          | TOTAL ENERGY             -378.683723169166 Eh   |
          | GRADIENT NORM               0.000145986899 Eh/α |
          | HOMO-LUMO GAP               0.067317559300 eV   |
           -------------------------------------------------

------------------------------------------------------------------------
 * finished run on 2025/12/08 at 00:47:04.073     
------------------------------------------------------------------------
 total:
 * wall-time:     0 d,  0 h,  1 min, 39.685 sec
 *  cpu-time:     0 d,  0 h,  6 min, 30.156 sec
 * ratio c/w:     3.914 speedup
 SCF:
 * wall-time:     0 d,  0 h,  0 min,  7.363 sec
 *  cpu-time:     0 d,  0 h,  0 min, 28.906 sec
 * ratio c/w:     3.926 speedup
 ANC optimizer:
 * wall-time:     0 d,  0 h,  1 min, 32.147 sec
 *  cpu-time:     0 d,  0 h,  6 min,  0.562 sec
 * ratio c/w:     3.913 speedup

normal termination of xtb
