      -----------------------------------------------------------      
     |                   =====================                   |     
     |                           x T B                           |     
     |                   =====================                   |     
     |                         S. Grimme                         |     
     |          Mulliken Center for Theoretical Chemistry        |     
     |                    University of Bonn                     |     
      -----------------------------------------------------------      

   * xtb version 6.7.1pre (5071a88) compiled by 'Marcel@Raven' on 2024-07-23

   xtb is free software: you can redistribute it and/or modify it under
   the terms of the GNU Lesser General Public License as published by
   the Free Software Foundation, either version 3 of the License, or
   (at your option) any later version.
   
   xtb is distributed in the hope that it will be useful,
   but WITHOUT ANY WARRANTY; without even the implied warranty of
   MERCHANTABILITY or FITNESS FOR A PARTICULAR PURPOSE.  See the
   GNU Lesser General Public License for more details.
   
   Cite this work as:
   * C. Bannwarth, E. Caldeweyher, S. Ehlert, A. Hansen, P. Pracht,
     J. Seibert, S. Spicher, S. Grimme, WIREs Comput. Mol. Sci., 2020, 11,
     e01493. DOI: 10.1002/wcms.1493
   
   for GFN2-xTB:
   * C. Bannwarth, S. Ehlert and S. Grimme., J. Chem. Theory Comput., 2019,
     15, 1652-1671. DOI: 10.1021/acs.jctc.8b01176
   for GFN1-xTB:
   * S. Grimme, C. Bannwarth, P. Shushkov, J. Chem. Theory Comput., 2017,
     13, 1989-2009. DOI: 10.1021/acs.jctc.7b00118
   for GFN0-xTB:
   * P. Pracht, E. Caldeweyher, S. Ehlert, S. Grimme, ChemRxiv, 2019, preprint.
     DOI: 10.26434/chemrxiv.8326202.v1
   for GFN-FF:
   * S. Spicher and S. Grimme, Angew. Chem. Int. Ed., 2020, 59, 15665-15673.
     DOI: 10.1002/anie.202004239
   
   for ALPB and GBSA implicit solvation:
   * S. Ehlert, M. Stahn, S. Spicher, S. Grimme, J. Chem. Theory Comput.,
     2021, 17, 4250-4261. DOI: 10.1021/acs.jctc.1c00471
   
   for ddCOSMO and CPCM-X implicit solvation:
   * M. Stahn, S. Ehlert, S. Grimme, J. Phys. Chem. A,
     2023, XX, XXXX-XXXX. DOI: 10.1021/acs.jpca.3c04382
   
   for DFT-D4:
   * E. Caldeweyher, C. Bannwarth and S. Grimme, J. Chem. Phys., 2017,
     147, 034112. DOI: 10.1063/1.4993215
   * E. Caldeweyher, S. Ehlert, A. Hansen, H. Neugebauer, S. Spicher,
     C. Bannwarth and S. Grimme, J. Chem. Phys., 2019, 150, 154122.
     DOI: 10.1063/1.5090222
   * E. Caldeweyher, J.-M. Mewes, S. Ehlert and S. Grimme, Phys. Chem. Chem. Phys.
     2020, 22, 8499-8512. DOI: 10.1039/D0CP00502A
   
   for sTDA-xTB:
   * S. Grimme and C. Bannwarth, J. Chem. Phys., 2016, 145, 054103.
     DOI: 10.1063/1.4959605
   
   in the mass-spec context:
   * V. Asgeirsson, C. Bauer and S. Grimme, Chem. Sci., 2017, 8, 4879.
     DOI: 10.1039/c7sc00601b
   * J. Koopman and S. Grimme, ACS Omega 2019, 4, 12, 15120-15133.
     DOI: 10.1021/acsomega.9b02011
   
   for metadynamics refer to:
   * S. Grimme, J. Chem. Theory Comput., 2019, 155, 2847-2862
     DOI: 10.1021/acs.jctc.9b00143
   
   for SPH calculations refer to:
   * S. Spicher and S. Grimme, J. Chem. Theory Comput., 2021, 17, 1701-1714
     DOI: 10.1021/acs.jctc.0c01306
   
   for ONIOM refer to:
   * C. Plett, A. Katbashev, S. Ehlert, S. Grimme, M. Bursch,
     Phys. Chem. Chem. Phys., 2023, 25, 17860-17868. DOI: 10.1039/D3CP02178E
   
   for DIPRO refer to:
   * J. Kohn, N. Gildemeister, S. Grimme, D. Fazzi, A. Hansen,
     J. Chem. Phys., 2023, just accepted.
   
   for PTB refer to:
   * S. Grimme, M. Mueller, A. Hansen, J. Chem. Phys., 2023, 158, 124111.
     DOI: 10.1063/5.0137838
   
   with help from (in alphabetical order)
   P. Atkinson, C. Bannwarth, F. Bohle, G. Brandenburg, E. Caldeweyher
   M. Checinski, S. Dohm, S. Ehlert, S. Ehrlich, I. Gerasimov, C. Hölzer
   A. Katbashev, J. Kohn, J. Koopman, C. Lavigne, S. Lehtola, F. März, M. Müller,
   F. Musil, H. Neugebauer, J. Pisarek, C. Plett, P. Pracht, F. Pultar,
   J. Seibert, P. Shushkov, S. Spicher, M. Stahn, M. Steiner, T. Strunk,
   J. Stückrath, T. Rose, and J. Unsleber
   
 * started run on 2025/12/08 at 00:47:04.108     
   ID    Z sym.   atoms
    1    6 C      1-4, 6-20, 22-107, 109-147, 149-159, 161-170
    2    5 B      5, 21, 108, 148, 160
    3    1 H      171-205

           -------------------------------------------------
          |                Calculation Setup                |
           -------------------------------------------------

          program call               : xtb "C:\Users\LENOVO GAMING\Documents\GitHub\molecular-conductivity-sim\results\2nm-5Bdoped-3percent\xtbopt.xyz" --sp
          coordinate file            : C:\Users\LENOVO GAMING\Documents\GitHub\molecular-conductivity-sim\results\2nm-5Bdoped-3percent\xtbopt.xyz
          omp threads                :                    16


           -------------------------------------------------
          |                 G F N 2 - x T B                 |
           -------------------------------------------------

        Reference                      10.1021/acs.jctc.8b01176
      * Hamiltonian:
        H0-scaling (s, p, d)           1.850000    2.230000    2.230000
        zeta-weighting                 0.500000
      * Dispersion:
        s8                             2.700000
        a1                             0.520000
        a2                             5.000000
        s9                             5.000000
      * Repulsion:
        kExp                           1.500000    1.000000
        rExp                           1.000000
      * Coulomb:
        alpha                          2.000000
        third order                    shell-resolved
        anisotropic                    true
        a3                             3.000000
        a5                             4.000000
        cn-shift                       1.200000
        cn-exp                         4.000000
        max-rad                        5.000000

q/qsh data taken from xtbrestart
CAMM data taken from xtbrestart

          ...................................................
          :                      SETUP                      :
          :.................................................:
          :  # basis functions                 715          :
          :  # atomic orbitals                 715          :
          :  # shells                          375          :
          :  # electrons                       710          :
          :  max. iterations                   250          :
          :  Hamiltonian                  GFN2-xTB          :
          :  restarted?                       true          :
          :  GBSA solvation                  false          :
          :  PC potential                    false          :
          :  electronic temp.          300.0000000     K    :
          :  accuracy                    1.0000000          :
          :  -> integral cutoff          0.2500000E+02      :
          :  -> integral neglect         0.1000000E-07      :
          :  -> SCF convergence          0.1000000E-05 Eh   :
          :  -> wf. convergence          0.1000000E-03 e    :
          :  Broyden damping             0.4000000          :
          :  net charge                          0          :
          :  unpaired electrons                  0          :
          ...................................................

 iter      E             dE          RMSdq      gap      omega  full diag
   1   -386.1113928 -0.386111E+03  0.964E-06    0.07       0.0  T
   2   -386.1113927  0.816340E-08  0.131E-04    0.07      53.2  T
   3   -386.1113928 -0.792221E-08  0.262E-05    0.07     266.8  T

   *** convergence criteria satisfied after 3 iterations ***

         #    Occupation            Energy/Eh            Energy/eV
      -------------------------------------------------------------
         1        2.0000           -0.6704588             -18.2441
       ...           ...                  ...                  ...
       349        2.0000           -0.3604298              -9.8078
       350        2.0000           -0.3521456              -9.5824
       351        2.0000           -0.3515459              -9.5661
       352        2.0000           -0.3506857              -9.5426
       353        2.0000           -0.3479328              -9.4677
       354        1.9950           -0.3347716              -9.1096
       355        1.5748           -0.3303182              -8.9884 (HOMO)
       356        0.4302           -0.3278444              -8.9211 (LUMO)
       357                         -0.3121964              -8.4953
       358                         -0.2999675              -8.1625
       359                         -0.2965111              -8.0685
       360                         -0.2942781              -8.0077
       ...                                ...                  ...
       715                          0.7961668              21.6648
      -------------------------------------------------------------
                  HL-Gap            0.0024738 Eh            0.0673 eV
             Fermi-level           -0.3290743 Eh           -8.9546 eV

 SCC (total)                   0 d,  0 h,  0 min,  0.715 sec
 SCC setup                      ...        0 min,  0.004 sec (  0.559%)
 Dispersion                     ...        0 min,  0.023 sec (  3.217%)
 classical contributions        ...        0 min,  0.001 sec (  0.140%)
 integral evaluation            ...        0 min,  0.055 sec (  7.692%)
 iterations                     ...        0 min,  0.441 sec ( 61.678%)
 molecular gradient             ...        0 min,  0.178 sec ( 24.895%)
 printout                       ...        0 min,  0.013 sec (  1.818%)

         :::::::::::::::::::::::::::::::::::::::::::::::::::::
         ::                     SUMMARY                     ::
         :::::::::::::::::::::::::::::::::::::::::::::::::::::
         :: total energy            -378.683723168966 Eh    ::
         :: gradient norm              0.000146012315 Eh/a0 ::
         :: HOMO-LUMO gap              0.067315165852 eV    ::
         ::.................................................::
         :: SCC energy              -386.127994812942 Eh    ::
         :: -> isotropic ES            0.099537374874 Eh    ::
         :: -> anisotropic ES          0.026904961534 Eh    ::
         :: -> anisotropic XC          0.125086942408 Eh    ::
         :: -> dispersion             -0.491384964566 Eh    ::
         :: repulsion energy           7.444271643976 Eh    ::
         :: add. restraining           0.000000000000 Eh    ::
         :: total charge              -0.000000000000 e     ::
         :::::::::::::::::::::::::::::::::::::::::::::::::::::

           -------------------------------------------------
          |                Property Printout                |
           -------------------------------------------------

    * Orbital Energies and Occupations

         #    Occupation            Energy/Eh            Energy/eV
      -------------------------------------------------------------
         1        2.0000           -0.6704588             -18.2441
       ...           ...                  ...                  ...
       343        2.0000           -0.3767307             -10.2514
       344        2.0000           -0.3758349             -10.2270
       345        2.0000           -0.3707006             -10.0873
       346        2.0000           -0.3690950             -10.0436
       347        2.0000           -0.3688288             -10.0363
       348        2.0000           -0.3654899              -9.9455
       349        2.0000           -0.3604298              -9.8078
       350        2.0000           -0.3521456              -9.5824
       351        2.0000           -0.3515459              -9.5661
       352        2.0000           -0.3506857              -9.5426
       353        2.0000           -0.3479328              -9.4677
       354        1.9950           -0.3347716              -9.1096
       355        1.5748           -0.3303182              -8.9884 (HOMO)
       356        0.4302           -0.3278444              -8.9211 (LUMO)
       357                         -0.3121964              -8.4953
       358                         -0.2999675              -8.1625
       359                         -0.2965111              -8.0685
       360                         -0.2942781              -8.0077
       361                         -0.2852823              -7.7629
       362                         -0.2834522              -7.7131
       363                         -0.2833183              -7.7095
       364                         -0.2736409              -7.4461
       365                         -0.2645207              -7.1980
       366                         -0.2638381              -7.1794
       ...                                ...                  ...
       715                          0.7961668              21.6648
      -------------------------------------------------------------
                  HL-Gap            0.0024738 Eh            0.0673 eV
             Fermi-level           -0.3290743 Eh           -8.9546 eV

     #   Z          covCN         q      C6AA      α(0)
     1   6 C        2.923    -0.025    28.628     8.774
     2   6 C        2.910    -0.032    28.807     8.801
     3   6 C        2.926    -0.029    28.720     8.789
     4   6 C        2.979     0.005    27.894     8.663
     5   5 B        2.758     0.214    18.125     7.123
     6   6 C        2.891    -0.072    29.797     8.950
     7   6 C        2.981     0.006    27.888     8.662
     8   6 C        2.975    -0.004    28.109     8.697
     9   6 C        2.923    -0.029    28.726     8.789
    10   6 C        2.886    -0.069    29.728     8.939
    11   6 C        2.981     0.001    27.995     8.679
    12   6 C        2.986     0.000    28.021     8.683
    13   6 C        2.927    -0.044    29.103     8.847
    14   6 C        2.979     0.011    27.766     8.643
    15   6 C        2.994     0.004    27.916     8.667
    16   6 C        2.989     0.001    28.006     8.681
    17   6 C        2.917    -0.031    28.762     8.794
    18   6 C        2.980     0.012    27.742     8.640
    19   6 C        2.991     0.003    27.946     8.672
    20   6 C        2.984     0.006    27.885     8.662
    21   5 B        1.904     0.269    35.804    12.596
    22   6 C        2.889    -0.071    29.776     8.946
    23   6 C        3.014    -0.003    28.084     8.693
    24   6 C        2.970    -0.019    28.481     8.754
    25   6 C        2.916    -0.033    28.834     8.805
    26   6 C        2.889    -0.071    29.765     8.945
    27   6 C        3.014    -0.001    28.042     8.687
    28   6 C        2.982     0.005    27.894     8.663
    29   6 C        2.923    -0.039    28.972     8.827
    30   6 C        2.983     0.014    27.701     8.633
    31   6 C        2.993     0.006    27.867     8.659
    32   6 C        2.978     0.008    27.844     8.656
    33   6 C        2.912    -0.028    28.707     8.786
    34   6 C        2.923    -0.036    28.889     8.814
    35   6 C        2.982     0.004    27.928     8.669
    36   6 C        2.919    -0.038    28.952     8.824
    37   6 C        2.920    -0.036    28.895     8.815
    38   6 C        2.983     0.005    27.895     8.664
    39   6 C        2.983     0.003    27.954     8.673
    40   6 C        2.988     0.000    28.017     8.683
    41   6 C        2.991    -0.001    28.034     8.685
    42   6 C        2.987    -0.000    28.029     8.684
    43   6 C        2.988    -0.002    28.059     8.689
    44   6 C        2.986    -0.000    28.029     8.684
    45   6 C        2.987    -0.002    28.079     8.692
    46   6 C        2.990    -0.002    28.063     8.690
    47   6 C        2.991    -0.004    28.125     8.699
    48   6 C        2.989     0.000    28.019     8.683
    49   6 C        2.991    -0.000    28.022     8.684
    50   6 C        2.989     0.000    28.016     8.682
    51   6 C        2.988    -0.002    28.072     8.691
    52   6 C        2.988    -0.001    28.040     8.686
    53   6 C        2.991    -0.000    28.023     8.684
    54   6 C        2.989     0.001    27.997     8.680
    55   6 C        2.984     0.002    27.969     8.675
    56   6 C        2.985    -0.001    28.046     8.687
    57   6 C        2.988    -0.003    28.087     8.693
    58   6 C        2.989    -0.001    28.048     8.687
    59   6 C        2.986    -0.004    28.109     8.697
    60   6 C        2.984    -0.000    28.028     8.684
    61   6 C        2.988    -0.002    28.073     8.691
    62   6 C        2.987     0.000    28.013     8.682
    63   6 C        2.981     0.001    28.010     8.682
    64   6 C        2.989     0.002    27.985     8.678
    65   6 C        2.992     0.002    27.983     8.677
    66   6 C        2.982     0.006    27.881     8.661
    67   6 C        2.920    -0.037    28.917     8.818
    68   6 C        2.920    -0.038    28.949     8.823
    69   6 C        2.983     0.003    27.956     8.673
    70   6 C        2.917    -0.039    28.979     8.828
    71   6 C        2.919    -0.034    28.841     8.807
    72   6 C        2.971     0.011    27.774     8.644
    73   6 C        2.985    -0.001    28.048     8.687
    74   6 C        2.987     0.001    28.004     8.681
    75   6 C        2.980    -0.007    28.177     8.707
    76   6 C        2.980     0.004    27.931     8.669
    77   6 C        2.990    -0.002    28.057     8.689
    78   6 C        2.988     0.001    28.003     8.681
    79   6 C        2.989    -0.002    28.074     8.692
    80   6 C        2.988    -0.001    28.050     8.688
    81   6 C        2.990    -0.002    28.078     8.692
    82   6 C        2.989     0.000    28.010     8.682
    83   6 C        2.989    -0.001    28.046     8.687
    84   6 C        2.989     0.000    28.017     8.683
    85   6 C        2.990    -0.001    28.047     8.687
    86   6 C        2.990    -0.001    28.051     8.688
    87   6 C        2.990    -0.001    28.042     8.687
    88   6 C        2.990     0.001    27.995     8.679
    89   6 C        2.990    -0.000    28.030     8.685
    90   6 C        2.990     0.000    28.013     8.682
    91   6 C        2.990    -0.002    28.076     8.692
    92   6 C        2.991    -0.001    28.040     8.686
    93   6 C        2.988    -0.002    28.068     8.691
    94   6 C        2.990     0.001    27.996     8.679
    95   6 C        2.990    -0.002    28.056     8.689
    96   6 C        2.989     0.000    28.016     8.683
    97   6 C        2.982     0.003    27.956     8.673
    98   6 C        2.992     0.001    27.992     8.679
    99   6 C        2.992     0.001    27.991     8.679
   100   6 C        2.982     0.006    27.891     8.663
   101   6 C        2.919    -0.037    28.911     8.817
   102   6 C        2.919    -0.038    28.938     8.821
   103   6 C        2.890    -0.071    29.772     8.946
   104   6 C        2.903    -0.032    28.802     8.800
   105   6 C        2.913    -0.044    29.082     8.843
   106   6 C        2.969     0.005    27.908     8.665
   107   6 C        2.902    -0.080    29.988     8.979
   108   5 B        2.754     0.171    18.758     7.248
   109   6 C        2.904    -0.081    30.028     8.985
   110   6 C        2.978     0.006    27.893     8.663
   111   6 C        2.989    -0.001    28.055     8.689
   112   6 C        2.979     0.004    27.920     8.667
   113   6 C        2.976    -0.011    28.277     8.723
   114   6 C        2.980     0.002    27.986     8.678
   115   6 C        2.988    -0.003    28.097     8.695
   116   6 C        2.987     0.001    27.989     8.678
   117   6 C        2.983    -0.002    28.076     8.692
   118   6 C        2.987    -0.000    28.022     8.683
   119   6 C        2.989    -0.002    28.058     8.689
   120   6 C        2.990    -0.001    28.037     8.686
   121   6 C        2.987    -0.002    28.080     8.692
   122   6 C        2.988     0.001    28.007     8.681
   123   6 C        2.989    -0.001    28.047     8.687
   124   6 C        2.989     0.000    28.010     8.682
   125   6 C        2.986    -0.003    28.097     8.695
   126   6 C        2.984     0.001    28.006     8.681
   127   6 C        2.988    -0.002    28.066     8.690
   128   6 C        2.988     0.001    28.004     8.681
   129   6 C        2.986    -0.002    28.058     8.689
   130   6 C        2.986     0.000    28.010     8.682
   131   6 C        2.982     0.004    27.935     8.670
   132   6 C        2.992     0.001    27.997     8.680
   133   6 C        2.989     0.001    27.996     8.679
   134   6 C        2.981     0.005    27.907     8.666
   135   6 C        2.920    -0.037    28.911     8.817
   136   6 C        2.919    -0.038    28.939     8.822
   137   6 C        2.977     0.008    27.839     8.655
   138   6 C        2.922    -0.032    28.805     8.801
   139   6 C        2.912    -0.032    28.794     8.799
   140   6 C        2.923    -0.034    28.853     8.809
   141   6 C        2.984     0.001    28.008     8.681
   142   6 C        2.993     0.004    27.920     8.668
   143   6 C        2.982     0.008    27.833     8.654
   144   6 C        2.924    -0.026    28.646     8.777
   145   6 C        2.974    -0.008    28.224     8.714
   146   6 C        2.978     0.003    27.949     8.672
   147   6 C        2.887    -0.074    29.846     8.957
   148   5 B        2.760     0.213    18.141     7.126
   149   6 C        2.985    -0.003    28.089     8.694
   150   6 C        2.979     0.008    27.846     8.656
   151   6 C        2.889    -0.074    29.837     8.955
   152   6 C        2.925    -0.028    28.695     8.785
   153   6 C        2.987    -0.001    28.043     8.687
   154   6 C        2.995     0.006    27.874     8.660
   155   6 C        2.981     0.005    27.908     8.666
   156   6 C        2.925    -0.026    28.663     8.780
   157   6 C        2.977    -0.005    28.139     8.701
   158   6 C        2.981     0.006    27.890     8.663
   159   6 C        2.888    -0.075    29.876     8.961
   160   5 B        2.759     0.213    18.143     7.126
   161   6 C        2.984    -0.001    28.034     8.685
   162   6 C        2.980     0.004    27.932     8.669
   163   6 C        2.887    -0.071    29.774     8.946
   164   6 C        2.923    -0.027    28.678     8.782
   165   6 C        2.978     0.006    27.893     8.663
   166   6 C        2.996     0.005    27.906     8.665
   167   6 C        2.983     0.010    27.786     8.647
   168   6 C        2.923    -0.033    28.833     8.806
   169   6 C        2.923    -0.033    28.830     8.805
   170   6 C        2.913    -0.031    28.765     8.795
   171   1 H        0.926     0.032     2.560     2.502
   172   1 H        0.926     0.027     2.623     2.533
   173   1 H        0.926     0.034     2.533     2.489
   174   1 H        0.939    -0.105     5.744     3.747
   175   1 H        0.926     0.034     2.528     2.486
   176   1 H        0.926     0.033     2.549     2.496
   177   1 H        0.926     0.032     2.552     2.498
   178   1 H        0.926     0.032     2.563     2.504
   179   1 H        0.926     0.032     2.565     2.504
   180   1 H        0.926     0.032     2.557     2.501
   181   1 H        0.926     0.035     2.522     2.484
   182   1 H        0.926     0.028     2.614     2.528
   183   1 H        0.926     0.033     2.549     2.497
   184   1 H        0.925     0.013     2.841     2.636
   185   1 H        0.926     0.021     2.717     2.578
   186   1 H        0.926     0.033     2.537     2.491
   187   1 H        0.926     0.027     2.632     2.537
   188   1 H        0.926     0.030     2.592     2.518
   189   1 H        0.925     0.032     2.554     2.499
   190   1 H        0.939    -0.108     5.857     3.784
   191   1 H        0.926     0.034     2.529     2.487
   192   1 H        0.926     0.035     2.518     2.482
   193   1 H        0.939    -0.106     5.766     3.754
   194   1 H        0.926     0.036     2.509     2.477
   195   1 H        0.926     0.034     2.530     2.488
   196   1 H        0.926     0.031     2.575     2.509
   197   1 H        0.926     0.033     2.550     2.497
   198   1 H        0.926     0.037     2.493     2.469
   199   1 H        0.926     0.033     2.540     2.492
   200   1 H        0.926     0.034     2.525     2.485
   201   1 H        0.926     0.033     2.545     2.495
   202   1 H        0.926     0.033     2.540     2.492
   203   1 H        0.926     0.033     2.543     2.494
   204   1 H        0.926     0.033     2.549     2.496
   205   1 H        0.926     0.034     2.527     2.486

 Mol. C6AA /au·bohr⁶  :     919295.299047
 Mol. C8AA /au·bohr⁸  :   25671986.862108
 Mol. α(0) /au        :       1571.871155


Wiberg/Mayer (AO) data.
largest (>0.10) Wiberg bond orders for each atom

 ---------------------------------------------------------------------------
     #   Z sym  total        # sym  WBO       # sym  WBO       # sym  WBO
 ---------------------------------------------------------------------------
     1   6 C    3.970 --     6 C    1.414     2 C    1.404   171 H    0.970
     2   6 C    3.978 --     3 C    1.476     1 C    1.404   172 H    0.970
     3   6 C    3.973 --     2 C    1.476     4 C    1.336   173 H    0.960
     4   6 C    3.974 --     3 C    1.336     7 C    1.297    35 C    1.148
     5   5 B    3.350 --     6 C    1.078    10 C    1.056   174 H    0.970
     6   6 C    3.953 --     1 C    1.414     7 C    1.282     5 B    1.078
     7   6 C    3.974 --     4 C    1.297     6 C    1.282     8 C    1.171
     8   6 C    3.948 --    39 C    1.288    11 C    1.273     7 C    1.171
     9   6 C    3.936 --    10 C    1.530    14 C    1.234   175 H    0.966
    10   6 C    3.937 --     9 C    1.530    11 C    1.195     5 B    1.056
    11   6 C    3.938 --     8 C    1.273    12 C    1.262    10 C    1.195
    12   6 C    3.972 --    15 C    1.263    11 C    1.262    43 C    1.231
    13   6 C    3.858 --    14 C    1.381    18 C    1.309   176 H    0.966
    14   6 C    3.975 --    13 C    1.381     9 C    1.234    15 C    1.204
    15   6 C    3.942 --    12 C    1.263    16 C    1.256    14 C    1.204
    16   6 C    3.975 --    19 C    1.279    15 C    1.256    47 C    1.222
    17   6 C    3.829 --    22 C    1.376    18 C    1.319   177 H    0.967
    18   6 C    3.979 --    17 C    1.319    13 C    1.309    19 C    1.192
    19   6 C    3.940 --    16 C    1.279    20 C    1.249    18 C    1.192
    20   6 C    3.972 --    23 C    1.281    19 C    1.249    51 C    1.218
    21   5 B    3.035 --    22 C    1.341    26 C    1.334
    22   6 C    3.970 --    17 C    1.376    21 B    1.341    23 C    1.100
    23   6 C    3.922 --    20 C    1.281    24 C    1.257    22 C    1.100
    24   6 C    3.961 --    23 C    1.257    27 C    1.253    55 C    1.242
    25   6 C    3.826 --    26 C    1.382    30 C    1.313   178 H    0.967
    26   6 C    3.976 --    25 C    1.382    21 B    1.334    27 C    1.102
    27   6 C    3.938 --    28 C    1.289    24 C    1.253    26 C    1.102
    28   6 C    3.973 --    27 C    1.289    31 C    1.232    59 C    1.224
    29   6 C    3.901 --    33 C    1.492    30 C    1.282   179 H    0.969
    30   6 C    3.986 --    25 C    1.313    29 C    1.282    31 C    1.224
    31   6 C    3.952 --    32 C    1.273    28 C    1.232    30 C    1.224
    32   6 C    3.978 --    34 C    1.374    31 C    1.273    63 C    1.140
    33   6 C    3.982 --    29 C    1.492    34 C    1.398   197 H    0.970
    34   6 C    3.896 --    33 C    1.398    32 C    1.374   198 H    0.961
    35   6 C    3.954 --    36 C    1.317    40 C    1.292     4 C    1.148
    36   6 C    3.964 --    37 C    1.518    35 C    1.317   180 H    0.959
    37   6 C    3.955 --    36 C    1.518    38 C    1.311   181 H    0.960
    38   6 C    3.958 --    37 C    1.311    41 C    1.282    69 C    1.170
    39   6 C    3.963 --     8 C    1.288    44 C    1.244    40 C    1.209
    40   6 C    3.980 --    35 C    1.292    41 C    1.253    39 C    1.209
    41   6 C    3.971 --    38 C    1.282    40 C    1.253    42 C    1.215
    42   6 C    3.955 --    73 C    1.264    45 C    1.263    41 C    1.215
    43   6 C    3.962 --    44 C    1.276    48 C    1.235    12 C    1.231
    44   6 C    3.965 --    43 C    1.276    39 C    1.244    45 C    1.224
    45   6 C    3.955 --    42 C    1.263    46 C    1.254    44 C    1.224
    46   6 C    3.964 --    45 C    1.254    77 C    1.248    49 C    1.243
    47   6 C    3.952 --    48 C    1.264    52 C    1.253    16 C    1.222
    48   6 C    3.963 --    47 C    1.264    49 C    1.245    43 C    1.235
    49   6 C    3.956 --    50 C    1.255    48 C    1.245    46 C    1.243
    50   6 C    3.960 --    49 C    1.255    53 C    1.252    81 C    1.236
    51   6 C    3.953 --    56 C    1.266    52 C    1.249    20 C    1.218
    52   6 C    3.964 --    47 C    1.253    51 C    1.249    53 C    1.243
    53   6 C    3.956 --    50 C    1.252    54 C    1.249    52 C    1.243
    54   6 C    3.960 --    57 C    1.262    53 C    1.249    85 C    1.234
    55   6 C    3.953 --    60 C    1.248    56 C    1.245    24 C    1.242
    56   6 C    3.965 --    51 C    1.266    55 C    1.245    57 C    1.235
    57   6 C    3.952 --    54 C    1.262    58 C    1.243    56 C    1.235
    58   6 C    3.963 --    61 C    1.256    89 C    1.247    57 C    1.243
    59   6 C    3.940 --    60 C    1.282    28 C    1.224    64 C    1.220
    60   6 C    3.967 --    59 C    1.282    55 C    1.248    61 C    1.217
    61   6 C    3.957 --    62 C    1.268    58 C    1.256    60 C    1.217
    62   6 C    3.962 --    61 C    1.268    93 C    1.251    65 C    1.223
    63   6 C    3.949 --    67 C    1.334    64 C    1.283    32 C    1.140
    64   6 C    3.979 --    63 C    1.283    65 C    1.250    59 C    1.220
    65   6 C    3.976 --    66 C    1.279    64 C    1.250    62 C    1.223
    66   6 C    3.963 --    68 C    1.327    65 C    1.279    97 C    1.158
    67   6 C    3.969 --    68 C    1.500    63 C    1.334   199 H    0.960
    68   6 C    3.954 --    67 C    1.500    66 C    1.327   200 H    0.960
    69   6 C    3.934 --    70 C    1.313    74 C    1.264    38 C    1.170
    70   6 C    3.957 --    71 C    1.518    69 C    1.313   182 H    0.960
    71   6 C    3.942 --    70 C    1.518    72 C    1.305   183 H    0.962
    72   6 C    3.950 --    71 C    1.305    75 C    1.248   103 C    1.207
    73   6 C    3.955 --    42 C    1.264    78 C    1.261    74 C    1.212
    74   6 C    3.977 --    75 C    1.282    69 C    1.264    73 C    1.212
    75   6 C    3.943 --    74 C    1.282    72 C    1.248    76 C    1.192
    76   6 C    3.948 --   107 C    1.285    79 C    1.269    75 C    1.192
    77   6 C    3.960 --    78 C    1.257    46 C    1.248    82 C    1.240
    78   6 C    3.958 --    73 C    1.261    77 C    1.257    79 C    1.227
    79   6 C    3.958 --    76 C    1.269    80 C    1.247    78 C    1.227
    80   6 C    3.961 --   111 C    1.249    79 C    1.247    83 C    1.245
    81   6 C    3.957 --    82 C    1.260    86 C    1.248    50 C    1.236
    82   6 C    3.956 --    81 C    1.260    83 C    1.242    77 C    1.240
    83   6 C    3.955 --    84 C    1.258    80 C    1.245    82 C    1.242
    84   6 C    3.956 --    83 C    1.258    87 C    1.248   115 C    1.236
    85   6 C    3.957 --    90 C    1.261    86 C    1.248    54 C    1.234
    86   6 C    3.959 --    87 C    1.248    85 C    1.248    81 C    1.248
    87   6 C    3.958 --    88 C    1.248    86 C    1.248    84 C    1.248
    88   6 C    3.957 --    91 C    1.261    87 C    1.248   119 C    1.234
    89   6 C    3.960 --    94 C    1.256    58 C    1.247    90 C    1.241
    90   6 C    3.958 --    85 C    1.261    91 C    1.241    89 C    1.241
    91   6 C    3.957 --    88 C    1.261    90 C    1.241    92 C    1.240
    92   6 C    3.962 --    95 C    1.254   123 C    1.252    91 C    1.240
    93   6 C    3.956 --    94 C    1.270    62 C    1.251    98 C    1.219
    94   6 C    3.960 --    93 C    1.270    89 C    1.256    95 C    1.219
    95   6 C    3.960 --    96 C    1.272    92 C    1.254    94 C    1.219
    96   6 C    3.958 --    95 C    1.272   127 C    1.252    99 C    1.218
    97   6 C    3.957 --   101 C    1.320    98 C    1.284    66 C    1.158
    98   6 C    3.978 --    97 C    1.284    99 C    1.251    93 C    1.219
    99   6 C    3.978 --   100 C    1.286    98 C    1.251    96 C    1.218
   100   6 C    3.958 --   102 C    1.320    99 C    1.286   131 C    1.156
   101   6 C    3.961 --   102 C    1.511    97 C    1.320   201 H    0.960
   102   6 C    3.960 --   101 C    1.511   100 C    1.320   202 H    0.961
   103   6 C    3.810 --   104 C    1.352    72 C    1.207   108 B    1.086
   104   6 C    3.950 --   105 C    1.483   103 C    1.352   184 H    0.960
   105   6 C    3.863 --   104 C    1.483   106 C    1.278   185 H    0.963
   106   6 C    3.935 --   109 C    1.332   105 C    1.278   137 C    1.147
   107   6 C    3.902 --   112 C    1.297    76 C    1.285   108 B    1.090
   108   5 B    3.462 --   109 C    1.091   107 C    1.090   103 C    1.086
   109   6 C    3.897 --   106 C    1.332   110 C    1.252   108 B    1.091
   110   6 C    3.953 --   113 C    1.257   109 C    1.252   141 C    1.230
   111   6 C    3.958 --   112 C    1.255    80 C    1.249   116 C    1.239
   112   6 C    3.943 --   107 C    1.297   111 C    1.255   113 C    1.191
   113   6 C    3.949 --   114 C    1.274   110 C    1.257   112 C    1.191
   114   6 C    3.969 --   113 C    1.274   145 C    1.259   117 C    1.216
   115   6 C    3.960 --   116 C    1.260   120 C    1.247    84 C    1.236
   116   6 C    3.954 --   115 C    1.260   117 C    1.241   111 C    1.239
   117   6 C    3.959 --   118 C    1.282   116 C    1.241   114 C    1.216
   118   6 C    3.953 --   117 C    1.282   121 C    1.240   149 C    1.219
   119   6 C    3.960 --   124 C    1.267   120 C    1.243    88 C    1.234
   120   6 C    3.963 --   121 C    1.256   115 C    1.247   119 C    1.243
   121   6 C    3.960 --   120 C    1.256   122 C    1.247   118 C    1.240
   122   6 C    3.956 --   125 C    1.272   121 C    1.247   153 C    1.222
   123   6 C    3.960 --   128 C    1.259    92 C    1.252   124 C    1.234
   124   6 C    3.955 --   119 C    1.267   125 C    1.242   123 C    1.234
   125   6 C    3.962 --   122 C    1.272   124 C    1.242   126 C    1.230
   126   6 C    3.968 --   157 C    1.280   129 C    1.236   125 C    1.230
   127   6 C    3.961 --   128 C    1.269    96 C    1.252   132 C    1.221
   128   6 C    3.958 --   127 C    1.269   123 C    1.259   129 C    1.215
   129   6 C    3.969 --   130 C    1.295   126 C    1.236   128 C    1.215
   130   6 C    3.957 --   129 C    1.295   161 C    1.231   133 C    1.212
   131   6 C    3.964 --   135 C    1.330   132 C    1.278   100 C    1.156
   132   6 C    3.978 --   131 C    1.278   133 C    1.254   127 C    1.221
   133   6 C    3.981 --   134 C    1.288   132 C    1.254   130 C    1.212
   134   6 C    3.954 --   136 C    1.336   133 C    1.288   165 C    1.136
   135   6 C    3.957 --   136 C    1.498   131 C    1.330   203 H    0.961
   136   6 C    3.969 --   135 C    1.498   134 C    1.336   204 H    0.961
   137   6 C    3.977 --   138 C    1.380   142 C    1.255   106 C    1.147
   138   6 C    3.931 --   139 C    1.410   137 C    1.380   186 H    0.962
   139   6 C    3.981 --   140 C    1.475   138 C    1.410   187 H    0.970
   140   6 C    3.938 --   139 C    1.475   143 C    1.311   188 H    0.968
   141   6 C    3.968 --   146 C    1.286   142 C    1.235   110 C    1.230
   142   6 C    3.981 --   137 C    1.255   143 C    1.250   141 C    1.235
   143   6 C    3.985 --   140 C    1.311   144 C    1.255   142 C    1.250
   144   6 C    3.949 --   147 C    1.509   143 C    1.255   189 H    0.966
   145   6 C    3.942 --   114 C    1.259   146 C    1.243   150 C    1.227
   146   6 C    3.944 --   141 C    1.286   145 C    1.243   147 C    1.202
   147   6 C    3.955 --   144 C    1.509   146 C    1.202   148 B    1.073
   148   5 B    3.348 --   147 C    1.073   151 C    1.067   190 H    0.969
   149   6 C    3.971 --   150 C    1.280   154 C    1.254   118 C    1.219
   150   6 C    3.942 --   149 C    1.280   145 C    1.227   151 C    1.222
   151   6 C    3.938 --   152 C    1.485   150 C    1.222   148 B    1.067
   152   6 C    3.949 --   151 C    1.485   155 C    1.280   191 H    0.966
   153   6 C    3.974 --   158 C    1.291   154 C    1.242   122 C    1.222
   154   6 C    3.971 --   149 C    1.254   153 C    1.242   155 C    1.238
   155   6 C    3.973 --   156 C    1.289   152 C    1.280   154 C    1.238
   156   6 C    3.948 --   159 C    1.473   155 C    1.289   192 H    0.966
   157   6 C    3.950 --   126 C    1.280   162 C    1.242   158 C    1.213
   158   6 C    3.945 --   153 C    1.291   159 C    1.226   157 C    1.213
   159   6 C    3.939 --   156 C    1.473   158 C    1.226   160 B    1.078
   160   5 B    3.343 --   159 C    1.078   163 C    1.061   193 H    0.970
   161   6 C    3.974 --   162 C    1.291   166 C    1.232   130 C    1.231
   162   6 C    3.948 --   161 C    1.291   157 C    1.242   163 C    1.201
   163   6 C    3.952 --   164 C    1.519   162 C    1.201   160 B    1.061
   164   6 C    3.950 --   163 C    1.519   167 C    1.252   194 H    0.966
   165   6 C    3.982 --   169 C    1.387   166 C    1.264   134 C    1.136
   166   6 C    3.981 --   165 C    1.264   167 C    1.248   161 C    1.232
   167   6 C    3.985 --   168 C    1.314   164 C    1.252   166 C    1.248
   168   6 C    3.946 --   170 C    1.478   167 C    1.314   195 H    0.968
   169   6 C    3.941 --   170 C    1.408   165 C    1.387   205 H    0.961
   170   6 C    3.982 --   168 C    1.478   169 C    1.408   196 H    0.970
   171   1 H    0.998 --     1 C    0.970
   172   1 H    0.998 --     2 C    0.970
   173   1 H    0.998 --     3 C    0.960
   174   1 H    0.988 --     5 B    0.970
   175   1 H    0.997 --     9 C    0.966
   176   1 H    0.998 --    13 C    0.966
   177   1 H    0.998 --    17 C    0.967
   178   1 H    0.998 --    25 C    0.967
   179   1 H    0.998 --    29 C    0.969
   180   1 H    0.998 --    36 C    0.959
   181   1 H    0.998 --    37 C    0.960
   182   1 H    0.998 --    70 C    0.960
   183   1 H    0.998 --    71 C    0.962
   184   1 H    0.999 --   104 C    0.960
   185   1 H    0.999 --   105 C    0.963
   186   1 H    0.998 --   138 C    0.962
   187   1 H    0.998 --   139 C    0.970
   188   1 H    0.998 --   140 C    0.968
   189   1 H    0.998 --   144 C    0.966
   190   1 H    0.988 --   148 B    0.969
   191   1 H    0.997 --   152 C    0.966
   192   1 H    0.998 --   156 C    0.966
   193   1 H    0.988 --   160 B    0.970
   194   1 H    0.997 --   164 C    0.966
   195   1 H    0.998 --   168 C    0.968
   196   1 H    0.998 --   170 C    0.970
   197   1 H    0.998 --    33 C    0.970
   198   1 H    0.998 --    34 C    0.961
   199   1 H    0.998 --    67 C    0.960
   200   1 H    0.998 --    68 C    0.960
   201   1 H    0.998 --   101 C    0.960
   202   1 H    0.998 --   102 C    0.961
   203   1 H    0.998 --   135 C    0.961
   204   1 H    0.998 --   136 C    0.961
   205   1 H    0.998 --   169 C    0.961
 ---------------------------------------------------------------------------

Topologies differ in total number of bonds
Writing topology from bond orders to xtbtopo.mol

molecular dipole:
                 x           y           z       tot (Debye)
 q only:        3.449      -3.178      -0.008
   full:        3.958      -3.386      -0.017      13.238
molecular quadrupole (traceless):
                xx          xy          yy          xz          yz          zz
 q only:       47.926     -14.071      -5.226      -9.571       5.047     -42.700
  q+dip:       76.677     -19.440      48.894     -10.812       4.851    -125.571
   full:       45.129     -19.371      14.340     -11.643       4.882     -59.470


           -------------------------------------------------
          | TOTAL ENERGY             -378.683723168966 Eh   |
          | GRADIENT NORM               0.000146012315 Eh/α |
          | HOMO-LUMO GAP               0.067315165852 eV   |
           -------------------------------------------------

------------------------------------------------------------------------
 * finished run on 2025/12/08 at 00:47:04.959     
------------------------------------------------------------------------
 total:
 * wall-time:     0 d,  0 h,  0 min,  0.847 sec
 *  cpu-time:     0 d,  0 h,  0 min, 11.109 sec
 * ratio c/w:    13.116 speedup
 SCF:
 * wall-time:     0 d,  0 h,  0 min,  0.720 sec
 *  cpu-time:     0 d,  0 h,  0 min,  9.562 sec
 * ratio c/w:    13.281 speedup

normal termination of xtb
