205
 energy: -378.683723169166 gnorm: 0.000145986899 xtb: 6.7.1pre (5071a88)
C           10.00675525307180        8.26898291083442        1.81524242132913
C            9.30622782484733        9.45025592464507        1.98590060552933
C            7.95314562017111        9.46652493401558        1.74365514680679
C            7.26068075241901        8.31461769319288        1.34138136987870
B           10.16480092366884        5.79973125703724        1.27304050810567
C            9.36444361646786        7.08909242950586        1.45386560042330
C            7.96122680877003        7.09273908624889        1.23685805097977
C            7.24393311706883        5.87726617120966        0.93104782975777
C            9.95847172142010        3.33719319003262        0.79643229595101
C            9.33849765623967        4.54935731199408        0.94791849570975
C            7.91199685127321        4.63065228214773        0.82233312120885
C            7.17027747509427        3.44545681010982        0.58486747848007
C            9.90519559742457        0.93620153614187        0.38390139682055
C            9.24830280655958        2.14439826233168        0.54497478695391
C            7.82921194214563        2.19947056961675        0.46043150392100
C            7.09995048571789        1.00508304659880        0.25041420085385
C            9.86000387442522       -1.45213893803243       -0.04500982298991
C            9.19547545945179       -0.24402228606141        0.15145018656224
C            7.76997897567134       -0.22697811139461        0.10173526879277
C            7.04788486282868       -1.43305860529533       -0.09726848912357
B            9.64820706230358       -3.96334951746275       -0.56478661166747
C            9.17221736560423       -2.63167582967196       -0.28056004803533
C            7.71533294659047       -2.66328705060832       -0.29029628081434
C            6.99065123835944       -3.87499558733319       -0.48782011083803
C            9.66344916034273       -6.46491449680957       -1.16969071339174
C            9.06981029495613       -5.25532953331280       -0.84867126722998
C            7.62152059469020       -5.12855199613027       -0.74778594081873
C            6.86399933765242       -6.30645151751364       -0.92625599188545
C            9.53279180978946       -8.82609276276722       -1.74580019491324
C            8.90876882341261       -7.61657980495857       -1.39156682313400
C            7.49563871494253       -7.54530571396497       -1.24071007852066
C            6.74157262188824       -8.72810793551366       -1.41744749493060
C            8.77736093628918       -9.95093900247128       -1.95400432626113
C            7.40102311064476       -9.90181804687278       -1.78750401347680
C            5.85563219593413        8.36509095352311        1.03167741668245
C            5.16318723716921        9.58123410114950        0.97210299026087
C            3.83533565641680        9.63291608450134        0.65899180327176
C            3.09814502398189        8.46834017033558        0.40457554343501
C            5.84051283353588        5.92431746751526        0.74896323774681
C            5.15092796793767        7.17365885765271        0.76464058860224
C            3.75840853213076        7.22515987900145        0.49269851788730
C            3.01207111693231        6.02685199712045        0.31873003645298
C            5.75763201448244        3.49138967704394        0.46641920390569
C            5.09562997202891        4.73545914984181        0.52451785735857
C            3.68323554060220        4.78450435259551        0.35766264421687
C            2.94561490866451        3.58517899564462        0.21979190573345
C            5.68529341144773        1.04913186229759        0.18837080413155
C            5.02198711490329        2.29138781560616        0.28369921516223
C            3.61144704515286        2.33710494772893        0.19683857771496
C            2.87259993800501        1.13790638056998        0.08046140619636
C            5.62712080355073       -1.39281140799789       -0.10282044057093
C            4.95619851087956       -0.15182198611227        0.03141444777388
C            3.54208939884994       -0.10629271749374        0.01007450012638
C            2.80430769953115       -1.30897265892721       -0.07766163307985
C            5.56735440337941       -3.83072457865795       -0.42370042157479
C            4.89429457636932       -2.59293030852735       -0.23905917820325
C            3.47588431748618       -2.54773452533431       -0.19023596836057
C            2.72779504165472       -3.74759387099517       -0.24620965492287
C            5.44987219706171       -6.25778298395096       -0.78813050292939
C            4.80892124458298       -5.02557190765204       -0.54127876751954
C            3.39094495398003       -4.98517551116525       -0.40828634374804
C            2.63949885971587       -6.18053017757972       -0.43593745677246
C            5.31852589020319       -8.68500595705593       -1.19375840961171
C            4.69031691305313       -7.45767741057877       -0.88849093385374
C            3.28946919753036       -7.42323165313528       -0.66371799960101
C            2.53903327187599       -8.61926501100833       -0.67927507076169
C            4.53618868299700       -9.84145501346730       -1.25684497391195
C            3.19335090124353       -9.81338537840946       -0.99831551552964
C            1.70433106465335        8.52401582842893        0.07406934629383
C            1.07027874513372        9.74790460914820       -0.17953897534553
C           -0.26924506059787        9.80653865809251       -0.43070173171043
C           -1.07832410349513        8.66059723483686       -0.43143822501509
C            1.61078642544546        6.07888503981948        0.12449230742305
C            0.94241274437670        7.33304645210317       -0.00709668355947
C           -0.45694897841417        7.38810282128891       -0.23174508646294
C           -1.19787587315670        6.15577619357826       -0.24477852374448
C            1.53678921119166        3.63034977926974        0.09884396041498
C            0.87345091920949        4.87544035456000        0.04162973592084
C           -0.53629886982409        4.91849527582116       -0.10787579289815
C           -1.29370410400229        3.71900576813281       -0.12889632523470
C            1.45725427493070        1.18444100657536        0.03348372856436
C            0.78923381042507        2.42853573061418        0.02943161802096
C           -0.62529393523089        2.47312203173808       -0.04792720325374
C           -1.36967856334702        1.27175720621557       -0.04798939169702
C            1.38737774828496       -1.26278112629006       -0.04831364154200
C            0.71551109325149       -0.01828340716948       -0.00862106200092
C           -0.69891985513849        0.02606719735429       -0.01101067126091
C           -1.44025108850070       -1.17783493634006        0.02513176350308
C            1.31641532513583       -3.70588024108649       -0.13838592155138
C            0.64512067283134       -2.46224976624718       -0.05488180165342
C           -0.76814449171551       -2.41908443625618        0.02097269976918
C           -1.50880076019358       -3.62240746242418        0.09763458694144
C            1.23615408227009       -6.14346717999870       -0.24846629949334
C            0.57334963283017       -4.90669142124943       -0.11144617636907
C           -0.83826845880144       -4.86528248448042        0.05272134708437
C           -1.57335634121641       -6.06167649062901        0.17419293243008
C            1.13668362405376       -8.58957024668901       -0.37038450070599
C            0.48967076736790       -7.35124433580751       -0.18448847002571
C           -0.90324737754666       -7.31188884632541        0.08073812909517
C           -1.62612809404594       -8.51203078445105        0.23738239739504
C            0.38347919024712       -9.76273710614726       -0.23884235613306
C           -0.94863086850579       -9.72567406642734        0.06695662764847
C           -2.48808293055555        8.76039094649213       -0.63364148753477
C           -3.21796617729706        9.93524137758400       -0.84502655787127
C           -4.58796422020361        9.90951663814451       -1.02088712557159
C           -5.39325051090689        8.74424387581599       -1.00787252066362
C           -2.59693169771035        6.16504622991707       -0.40301482994827
B           -3.28534479496087        7.48220182946953       -0.60363613427834
C           -4.77610879069802        7.50465132213837       -0.79230299313848
C           -5.48440019132631        6.28076066771456       -0.73796108274333
C           -2.70826008626474        3.74989094592439       -0.24117849414666
C           -3.36987439869136        4.98962477838938       -0.39026936226706
C           -4.80158330615002        5.04740610416534       -0.53291358405947
C           -5.55311262709587        3.84528316136334       -0.46161482254210
C           -2.78718884784349        1.31089893439876       -0.08899075499133
C           -3.45793965650362        2.54988427072334       -0.20332815021613
C           -4.87503003229784        2.59839742103189       -0.28027293441355
C           -5.60450948323767        1.39544701554100       -0.17086016774581
C           -2.85703668914801       -1.13771220839255        0.06569871403750
C           -3.52664870499878        0.10742120484573       -0.01255092810287
C           -4.93907483930708        0.15019039488988       -0.01632273698984
C           -5.67189884758615       -1.05450782541435        0.13521901066121
C           -2.91716544716133       -3.58039519551363        0.21962374102533
C           -3.59445551754701       -2.33597896821273        0.18241797658627
C           -5.00902327479627       -2.29467146637765        0.25580990623154
C           -5.75336211479187       -3.49232133640814        0.44956707953509
C           -2.97398211402680       -6.01706663958742        0.37635069545961
C           -3.64978960235274       -4.77760375628552        0.37824172207789
C           -5.06406088858337       -4.73277607352212        0.53869047820124
C           -5.77408039254953       -5.92283458479902        0.78485358818627
C           -3.02516223975432       -8.46316707638773        0.56173175572455
C           -3.69689422274982       -7.22171421249579        0.59028177730592
C           -5.09095594371646       -7.17208521902605        0.84587318724758
C           -5.79212336310553       -8.36111549161917        1.14145936142985
C           -3.75212035018033       -9.62078655669265        0.85635796130863
C           -5.08844157863991       -9.56861443170579        1.14773495022521
C           -6.82032883879429        8.78102280079867       -1.20304958869358
C           -7.52096031011642        9.95894867209941       -1.46137910616824
C           -8.89601625824525        9.97491568433127       -1.63401307151455
C           -9.60897088743370        8.80346573150964       -1.54763327596667
C           -6.89503467791513        6.30661886386556       -0.88935016674095
C           -7.54002718472584        7.55747787732600       -1.12672186623312
C           -8.94677575962792        7.59416101937813       -1.29526956918204
C           -9.66588641685468        6.38869019525394       -1.19376891295167
C           -6.97313124238250        3.87050500952391       -0.57058774639566
C           -7.64180978788587        5.11132189507642       -0.80085648343566
C           -9.06593338127400        5.17862768656565       -0.94700558341333
B           -9.91627763256682        3.91994624774663       -0.80612206909645
C           -7.02361303693598        1.42854162960136       -0.21675976199027
C           -7.70588118062679        2.64954501428323       -0.43499818334027
C           -9.13373369808747        2.64172767318878       -0.50948335822056
C           -9.81369888869454        1.46332990806731       -0.31110045834493
C           -7.09011834255448       -1.02010177594438        0.16188839938030
C           -7.74610549336013        0.22242628801175       -0.03726649772811
C           -9.15942097933795        0.25282206144700       -0.05659978173788
C           -9.87892926977603       -0.92277695110158        0.18022540841583
C           -7.16496567547028       -3.45302986429968        0.55100015563726
C           -7.83708154632155       -2.20041534739528        0.37842748020553
C           -9.26295913567674       -2.13165835411081        0.41341275956000
B          -10.10083013347885       -3.36905251059143        0.72274305970296
C           -7.18196268070321       -5.87900295790390        0.96052837673925
C           -7.87899003649104       -4.65845385421563        0.81942193603201
C           -9.30592115502147       -4.65574837060647        0.95703601653530
C           -9.95737476950096       -5.81716557690271        1.28653850406043
C           -7.20827865653782       -8.31160697807765        1.41381619549386
C           -7.88366073876516       -7.07539175428856        1.27955413096708
C           -9.28604060954634       -7.04001344472082        1.47722272722091
C           -9.98270822126985       -8.20066926925159        1.83828848959703
C           -7.93740841366893       -9.43743788750580        1.79241498530556
C           -9.30632709628132       -9.38428400093868        2.00740642030771
H           11.07478662882615        8.24904668486207        1.97622499491596
H            9.81320382519466       10.35201550954103        2.29747263973044
H            7.42395356394687       10.39495945981302        1.88338031724619
H           11.33017877717062        5.76072135254330        1.37977087402920
H           11.03479966891832        3.27832321786435        0.87710745982594
H           10.98403047662117        0.90240552862226        0.43452302548889
H           10.93997893686607       -1.46730421849414       -0.02561793802867
H           10.73933621699716       -6.51709745183492       -1.25100644074690
H           10.60700277731030       -8.84625458695866       -1.85420726578554
H            5.67471220871825       10.51156265065460        1.15483382413061
H            3.35806983392293       10.59825960292470        0.63206978103163
H            1.63619969356630       10.66494609304150       -0.19627130189926
H           -0.72032344294025       10.76697259313976       -0.62514936497629
H           -2.74239998001970       10.90863267210996       -0.87898884616504
H           -5.07065808575086       10.86378056821458       -1.17469034956796
H           -6.99058627175454       10.89506423987828       -1.53389946079932
H           -9.40037779950650       10.90962904876051       -1.83280784774744
H          -10.68222334642792        8.79588300439781       -1.67273124660331
H          -10.74048041366961        6.42571673563591       -1.31007114364046
H          -11.08261142130988        3.93027558295459       -0.90917373869078
H          -10.89385790180721        1.46382362611349       -0.35079751031554
H          -10.95859407091873       -0.87096645818535        0.18449665803697
H          -11.26960733872492       -3.33765641071672        0.78014312037217
H          -11.03196071954142       -5.80208799329133        1.40378275836466
H          -11.05145897503122       -8.14561213788567        1.98496359589875
H           -9.83490654467044      -10.27961515726838        2.30039151024546
H            9.24676655335269      -10.88056822003395       -2.24011182200798
H            6.84391548080679      -10.80790535055637       -1.95698258105108
H            4.98477166200920      -10.79096794761158       -1.49707008303534
H            2.64462784997803      -10.73841056645086       -1.05811575980899
H            0.84920112532305      -10.72686562612116       -0.35913241969198
H           -1.47455290662647      -10.66151069966432        0.15889110179865
H           -3.26593989049532      -10.58218509937134        0.87326546765149
H           -5.59580179759429      -10.49301690606945        1.36932431711198
H           -7.44343487744177      -10.38511094000777        1.93253404604287
