205
 energy: -378.656162686908 gnorm: 0.069842080702 xtb: 6.7.1pre (5071a88)
C           10.16329400000000        8.34461900000000        1.50317900000000
C            9.47740100000000        9.55589700000000        1.60625800000000
C            8.10480000000000        9.56820100000000        1.42365500000000
C            7.37032600000000        8.39140900000000        1.14285500000000
B           10.25330700000000        5.83884800000000        1.11497500000000
C            9.48693400000000        7.14837800000000        1.23906400000000
C            8.06416200000000        7.15493000000000        1.06720700000000
C            7.32133600000000        5.92235500000000        0.82254700000000
C           10.05280300000000        3.36550300000000        0.69605900000000
C            9.42805600000000        4.58129300000000        0.83851800000000
C            7.98653800000000        4.66487400000000        0.72763400000000
C            7.23242500000000        3.47332200000000        0.51613400000000
C            9.99075200000000        0.95182300000000        0.29076600000000
C            9.33166100000000        2.16331100000000        0.45879600000000
C            7.89865100000000        2.21851900000000        0.39289600000000
C            7.15780600000000        1.01898100000000        0.20076900000000
C            9.94794200000000       -1.44712300000000       -0.12842400000000
C            9.27327300000000       -0.23452200000000        0.07399000000000
C            7.83438300000000       -0.21931400000000        0.04892200000000
C            7.09603400000000       -1.43142100000000       -0.12742900000000
B            9.64776900000000       -3.96759300000000       -0.59490900000000
C            9.23716700000000       -2.61734800000000       -0.32803900000000
C            7.77050600000000       -2.66543900000000       -0.31226800000000
C            7.03717500000000       -3.89566300000000       -0.47230600000000
C            9.76402900000000       -6.49873800000000       -1.07992500000000
C            9.13919200000000       -5.29311300000000       -0.82052000000000
C            7.68100700000000       -5.16426200000000       -0.70112500000000
C            6.92668200000000       -6.35666600000000       -0.82422200000000
C            9.65426800000000       -8.90305300000000       -1.50348300000000
C            9.01087100000000       -7.67529400000000       -1.22628300000000
C            7.58365500000000       -7.60820100000000       -1.07821500000000
C            6.83306100000000       -8.81189400000000       -1.19161500000000
C            8.90518900000000      -10.05504100000000       -1.63507100000000
C            7.51587700000000      -10.00490100000000       -1.47766400000000
C            5.93467500000000        8.43564500000000        0.92396200000000
C            5.22852200000000        9.65551700000000        0.91713100000000
C            3.87719500000000        9.70337400000000        0.67930300000000
C            3.12591000000000        8.53264600000000        0.44413200000000
C            5.90297800000000        5.97193400000000        0.67261200000000
C            5.21223500000000        7.23452500000000        0.70123300000000
C            3.79607400000000        7.28270100000000        0.48770300000000
C            3.04158700000000        6.07290600000000        0.32516300000000
C            5.80874400000000        3.52019400000000        0.41730300000000
C            5.14534800000000        4.77259700000000        0.47927800000000
C            3.71585600000000        4.82231100000000        0.34083500000000
C            2.96973300000000        3.61544300000000        0.21483100000000
C            5.73003600000000        1.06214600000000        0.15707600000000
C            5.06215100000000        2.30986900000000        0.25442200000000
C            3.64007800000000        2.35672600000000        0.18189000000000
C            2.89407600000000        1.15010200000000        0.08145500000000
C            5.66535800000000       -1.39625800000000       -0.11312100000000
C            4.99074300000000       -0.14589300000000        0.01957800000000
C            3.56798900000000       -0.10300500000000        0.00647300000000
C            2.82452000000000       -1.31719200000000       -0.06530700000000
C            5.61028100000000       -3.85563600000000       -0.39604900000000
C            4.92897900000000       -2.60515500000000       -0.22673300000000
C            3.49975200000000       -2.56348300000000       -0.17506800000000
C            2.74864400000000       -3.77586400000000       -0.21574900000000
C            5.50102400000000       -6.30899800000000       -0.69091100000000
C            4.84988900000000       -5.06711500000000       -0.48517300000000
C            3.41777100000000       -5.02389900000000       -0.35987100000000
C            2.66613000000000       -6.22803400000000       -0.37228600000000
C            5.39078100000000       -8.76844500000000       -0.99600800000000
C            4.74392200000000       -7.52564200000000       -0.75591500000000
C            3.32848200000000       -7.48526400000000       -0.55920000000000
C            2.57893100000000       -8.69213800000000       -0.55728500000000
C            4.61082700000000       -9.93660500000000       -1.02734000000000
C            3.25189900000000       -9.90169200000000       -0.80893200000000
C            1.70765700000000        8.59057100000000        0.16720400000000
C            1.04827400000000        9.82525800000000       -0.00657200000000
C           -0.30195000000000        9.88419200000000       -0.24918000000000
C           -1.10829500000000        8.72744800000000       -0.32040800000000
C            1.62524600000000        6.12454100000000        0.15406200000000
C            0.94845400000000        7.39202400000000        0.05883900000000
C           -0.46643200000000        7.44702500000000       -0.15752100000000
C           -1.21499200000000        6.20523500000000       -0.19590300000000
C            1.54926000000000        3.66064900000000        0.10530200000000
C            0.88062100000000        4.91452500000000        0.06481800000000
C           -0.54475600000000        4.95946700000000       -0.07740800000000
C           -1.30492400000000        3.74942600000000       -0.10176700000000
C            1.46647700000000        1.19572400000000        0.03636700000000
C            0.79525100000000        2.44738200000000        0.04260200000000
C           -0.63124800000000        2.49236500000000       -0.03333900000000
C           -1.37906200000000        1.28253900000000       -0.02845300000000
C            1.39543600000000       -1.27186500000000       -0.03993000000000
C            0.71982800000000       -0.01684900000000        0.00601100000000
C           -0.70404300000000        0.02695000000000       -0.00312100000000
C           -1.45075900000000       -1.18759400000000        0.03760600000000
C            1.32686900000000       -3.73364000000000       -0.11866800000000
C            0.65014000000000       -2.47928100000000       -0.03688700000000
C           -0.77601000000000       -2.43653600000000        0.02580500000000
C           -1.52302200000000       -3.65032300000000        0.10090700000000
C            1.24875600000000       -6.18876200000000       -0.20582100000000
C            0.57977500000000       -4.94450900000000       -0.08690200000000
C           -0.84832300000000       -4.90239500000000        0.05668500000000
C           -1.58919100000000       -6.10625000000000        0.16507800000000
C            1.15491700000000       -8.65594400000000       -0.29352500000000
C            0.49818700000000       -7.40811700000000       -0.14302600000000
C           -0.91246500000000       -7.36747900000000        0.08540700000000
C           -1.64324600000000       -8.57597700000000        0.22023700000000
C            0.39489200000000       -9.83607000000000       -0.17491300000000
C           -0.95550300000000       -9.79783100000000        0.08158400000000
C           -2.53337800000000        8.81605800000000       -0.54421500000000
C           -3.26632300000000       10.00336300000000       -0.75401400000000
C           -4.64975100000000        9.99488300000000       -0.94291200000000
C           -5.44578100000000        8.81892100000000       -0.93412800000000
C           -2.62720200000000        6.22360700000000       -0.35369300000000
B           -3.32090500000000        7.54245600000000       -0.54098000000000
C           -4.80976100000000        7.56742200000000       -0.72881300000000
C           -5.52845900000000        6.33628300000000       -0.67621300000000
C           -2.73177900000000        3.78262900000000       -0.21065500000000
C           -3.39670400000000        5.03288200000000       -0.34759300000000
C           -4.84300500000000        5.08824300000000       -0.48219200000000
C           -5.59905900000000        3.87535100000000       -0.40915900000000
C           -2.80930100000000        1.32223800000000       -0.07189800000000
C           -3.48436300000000        2.56978200000000       -0.17262400000000
C           -4.91399200000000        2.61600000000000       -0.24197500000000
C           -5.64926400000000        1.40638800000000       -0.13519000000000
C           -2.88028400000000       -1.14701700000000        0.06876400000000
C           -3.55448800000000        0.10924300000000        0.00431000000000
C           -4.97608600000000        0.15165000000000        0.00078100000000
C           -5.71748600000000       -1.06206500000000        0.14253200000000
C           -2.94311700000000       -3.60880900000000        0.20533300000000
C           -3.62364200000000       -2.35273300000000        0.17839700000000
C           -5.05059400000000       -2.31034700000000        0.24381400000000
C           -5.80360300000000       -3.52071800000000        0.41523500000000
C           -3.00510300000000       -6.06324900000000        0.33845500000000
C           -3.68346400000000       -4.81659700000000        0.34412200000000
C           -5.11404000000000       -4.77417200000000        0.48356000000000
C           -5.83801600000000       -5.97470700000000        0.68360500000000
C           -3.06594600000000       -8.53008900000000        0.49113500000000
C           -3.74096600000000       -7.28101500000000        0.51529500000000
C           -5.15408100000000       -7.23737700000000        0.72522900000000
C           -5.87380400000000       -8.44159000000000        0.95596000000000
C           -3.80930300000000       -9.70059000000000        0.73054100000000
C           -5.16573200000000       -9.65615700000000        0.96205800000000
C           -6.89277500000000        8.84755900000000       -1.11860800000000
C           -7.60760700000000       10.03041400000000       -1.36594800000000
C           -8.99717800000000       10.04603100000000       -1.52103700000000
C           -9.71365300000000        8.86573600000000       -1.42636700000000
C           -6.95431600000000        6.35478400000000       -0.81102800000000
C           -7.61827300000000        7.61525000000000       -1.03739000000000
C           -9.04081600000000        7.64950400000000       -1.18496900000000
C           -9.76017800000000        6.43400300000000       -1.06996200000000
C           -7.02888000000000        3.90208600000000       -0.50086700000000
C           -7.70472900000000        5.15578600000000       -0.71603300000000
C           -9.14539700000000        5.22096300000000       -0.83560300000000
B           -9.97813200000000        3.95977300000000       -0.67806700000000
C           -7.07994100000000        1.44236700000000       -0.16772000000000
C           -7.76883100000000        2.67333500000000       -0.36323700000000
C           -9.21121400000000        2.67125900000000       -0.41311100000000
C           -9.89812700000000        1.48849400000000       -0.21854600000000
C           -7.14717200000000       -1.02377500000000        0.17752000000000
C           -7.81421500000000        0.22972100000000        0.00550000000000
C           -9.23975600000000        0.26531600000000        0.00705700000000
C           -9.96245800000000       -0.91981800000000        0.23387000000000
C           -7.22496000000000       -3.47942400000000        0.51311600000000
C           -7.90182900000000       -2.21225100000000        0.37562700000000
C           -9.33979000000000       -2.13894400000000        0.42922200000000
B          -10.16571100000000       -3.38695800000000        0.70201000000000
C           -7.25976500000000       -5.93185400000000        0.83537400000000
C           -7.95378300000000       -4.69799000000000        0.73755000000000
C           -9.39480100000000       -4.69001100000000        0.86718100000000
C          -10.06735100000000       -5.86646700000000        1.12111900000000
C           -7.31424900000000       -8.39890600000000        1.16948000000000
C           -7.98562800000000       -7.14654700000000        1.08253400000000
C           -9.40493400000000       -7.11300800000000        1.24726100000000
C          -10.12249800000000       -8.29587500000000        1.51546500000000
C           -8.06805900000000       -9.55045300000000        1.44569000000000
C           -9.45373500000000       -9.50340300000000        1.62040400000000
H           11.24244800000000        8.31888400000000        1.63070700000000
H           10.00503800000000       10.48034500000000        1.82163300000000
H            7.59153000000000       10.51817000000000        1.50597800000000
H           11.44582300000000        5.78664500000000        1.22508500000000
H           11.13624500000000        3.30771600000000        0.76676300000000
H           11.07595500000000        0.91860500000000        0.32380000000000
H           11.03248500000000       -1.46277200000000       -0.13388700000000
H           10.84455600000000       -6.54018000000000       -1.16808300000000
H           10.73445700000000       -8.91940900000000       -1.61092900000000
H            5.74452600000000       10.59129600000000        1.08880200000000
H            3.39394800000000       10.67179700000000        0.69067000000000
H            1.60334100000000       10.75441600000000        0.03139400000000
H           -0.76223100000000       10.85778600000000       -0.38164900000000
H           -2.78191500000000       10.98024700000000       -0.77900600000000
H           -5.12898600000000       10.95716200000000       -1.09428700000000
H           -7.07498900000000       10.97155600000000       -1.44247300000000
H           -9.50659300000000       10.98635300000000       -1.71116100000000
H          -10.79488800000000        8.85744800000000       -1.53540700000000
H          -10.84370500000000        6.46686400000000       -1.16445900000000
H          -11.17542500000000        3.97469700000000       -0.75175300000000
H          -10.98561800000000        1.49463100000000       -0.24031000000000
H          -11.04865900000000       -0.86720100000000        0.25752600000000
H          -11.36149100000000       -3.34756100000000        0.77983600000000
H          -11.14994300000000       -5.84567000000000        1.22461500000000
H          -11.20069700000000       -8.24259500000000        1.63819300000000
H           -9.99835400000000      -10.41826500000000        1.83305900000000
H            9.38479800000000      -11.00333000000000       -1.85501000000000
H            6.96514000000000      -10.93093600000000       -1.58515300000000
H            5.06950500000000      -10.89964500000000       -1.21269500000000
H            2.70769000000000      -10.83667800000000       -0.84400100000000
H            0.86714200000000      -10.80561600000000       -0.26901100000000
H           -1.48506400000000      -10.73861000000000        0.16106800000000
H           -3.32225900000000      -10.66725900000000        0.74713100000000
H           -5.68210300000000      -10.59136000000000        1.13879700000000
H           -7.57986600000000      -10.51358200000000        1.53113900000000
205
 energy: -378.671711976124 gnorm: 0.030145135805 xtb: 6.7.1pre (5071a88)
C           10.13602442195443        8.33425338467927        1.49805330065881
C            9.45484119324486        9.53742009436705        1.60093773950473
C            8.08951076768435        9.55002016360861        1.41921946519604
C            7.35716254544041        8.37864381213773        1.13904367986465
B           10.24134726394694        5.83308396720784        1.11337028252778
C            9.46409997858841        7.14142080466821        1.23547877076484
C            8.04756890821938        7.14572565263735        1.06355043491950
C            7.30860337195284        5.91750557991840        0.82040284582888
C           10.02359842522353        3.36125778292983        0.69316973490523
C            9.40580750154172        4.57702554282497        0.83570514322302
C            7.97061038507287        4.66159122406453        0.72541810628440
C            7.21891473116841        3.47142054400850        0.51459392262115
C            9.96155800751977        0.95357784328212        0.29005584504188
C            9.30564315484924        2.16366896107210        0.45736475907094
C            7.87948169953978        2.21859425360119        0.39178311627312
C            7.14293136200959        1.01923089415720        0.20037447619981
C            9.91683654872014       -1.44057222388269       -0.12696828385351
C            9.24712491806307       -0.23086549504591        0.07416875786944
C            7.81492775866038       -0.21782629800944        0.04948632771604
C            7.08313354253042       -1.43040702893960       -0.12577323018372
B            9.64909352158250       -3.96451588011192       -0.59455817451659
C            9.21753980976827       -2.61793588765268       -0.32906940857102
C            7.75405040290629       -2.66410814174539       -0.31114571948945
C            7.02744202258191       -3.89144690617325       -0.47075894917391
C            9.73538141806791       -6.49741610290746       -1.07782677360968
C            9.12132863064530       -5.28559516892547       -0.81669185838435
C            7.66671630062608       -5.15717969946705       -0.69926288268842
C            6.91519110996768       -6.34871402096763       -0.82291805810174
C            9.62780668938106       -8.89383812456408       -1.49944927017812
C            8.98674405563887       -7.66973337190784       -1.22336018411120
C            7.56696614915327       -7.59941958885486       -1.07567482711832
C            6.82129461191762       -8.79979624845907       -1.18820692061106
C            8.88361146103217      -10.03963718705439       -1.63040192305236
C            7.50226672841837       -9.98983698422795       -1.47341830219961
C            5.92608705461438        8.41886068404154        0.92017397566800
C            5.21965871430368        9.63250182534371        0.91362614615234
C            3.87264439394338        9.67978022671984        0.67707105525851
C            3.12023443157384        8.51482983996548        0.44216403018079
C            5.89400059085658        5.96471585127942        0.67055244933416
C            5.20371293934529        7.22160461464194        0.69809278254864
C            3.79100798936163        7.26917881798868        0.48575930176403
C            3.03573485262371        6.06446107299755        0.32342758854229
C            5.79834724335331        3.51772893568139        0.41660360975769
C            5.13682987842663        4.76856108058926        0.47779110245783
C            3.71095558016943        4.81667593011035        0.33994778033047
C            2.96576093950836        3.61130819047718        0.21292116292618
C            5.71945893322027        1.06176699946044        0.15719724440940
C            5.05403519052160        2.30952837547893        0.25341425829393
C            3.63446380202803        2.35491322725189        0.18265357782543
C            2.88966748672047        1.14906365934788        0.07889784500220
C            5.65596977419485       -1.39482159811419       -0.11249632245861
C            4.98303399644190       -0.14592359063961        0.01843501950840
C            3.56196678806480       -0.10291851845326        0.00826080386531
C            2.82025589831643       -1.31501808249487       -0.06718054858096
C            5.60154605144140       -3.85072879107786       -0.39476349453007
C            4.92176690108149       -2.60338196776603       -0.22685069131427
C            3.49533507260163       -2.56067115055378       -0.17301245811541
C            2.74521424745024       -3.77030464701451       -0.21622323958742
C            5.49370175931597       -6.29940972774577       -0.68856582537664
C            4.84329176927022       -5.05850727307657       -0.48327581674719
C            3.41500287978165       -5.01605523073845       -0.35801796916415
C            2.66338250424668       -6.21836373454968       -0.37106092466588
C            5.38485669155714       -8.75105687289923       -0.99233501767540
C            4.73842582755986       -7.51181949465860       -0.75240081798649
C            3.32580999686610       -7.47128303852715       -0.55691177690243
C            2.57627053391224       -8.67377476375319       -0.55396919542856
C            4.60460199926417       -9.91338061355485       -1.02342956922390
C            3.25057423538247       -9.87808559481695       -0.80556095147639
C            1.70436499617150        8.57210071981039        0.16733904395866
C            1.04557324983623        9.80190360184232       -0.00691255160091
C           -0.29973768860903        9.86183151932853       -0.24833810032091
C           -1.10461153963312        8.71102657517275       -0.31855719691779
C            1.62161362881202        6.11535769597656        0.15352182019774
C            0.94335509995509        7.37718483884266        0.05788976965174
C           -0.46762638515585        7.43264059666714       -0.15669367677674
C           -1.21198300418124        6.19252377481719       -0.19466320047882
C            1.54703363088423        3.65548988236779        0.10629954463491
C            0.87877580095321        4.90706785031219        0.06394117525481
C           -0.54275982205064        4.94995893302187       -0.07608568871125
C           -1.30312659215414        3.74291204504629       -0.10257325960589
C            1.46467039499910        1.19426212345988        0.03893584841724
C            0.79405653390367        2.44506936618954        0.04031001108906
C           -0.63023931946742        2.48906541983329       -0.03136759634654
C           -1.37814151229053        1.28064322543215       -0.03120674631883
C            1.39386695171177       -1.26989392708938       -0.03701206002725
C            0.71869138751593       -0.01674340026388        0.00285487255577
C           -0.70395138509290        0.02684583510166        0.00002191484916
C           -1.44989777619610       -1.18566486532551        0.03475008415846
C            1.32508585395774       -3.72837016503815       -0.11627429634955
C            0.64853875200136       -2.47638693018393       -0.03950554871622
C           -0.77498489283227       -2.43367572168101        0.02860878427633
C           -1.52149556287286       -3.64513085496314        0.09870973995671
C            1.24829375148735       -6.17902638944385       -0.20455898433493
C            0.57825038687583       -4.93667087239678       -0.08760103417389
C           -0.84650537058459       -4.89487185900754        0.05767974856330
C           -1.58805539305089       -6.09659180080973        0.16410714111080
C            1.15514772759632       -8.63717702261706       -0.29252155301071
C            0.49747691291449       -7.39351810552861       -0.14193440321144
C           -0.91082208985019       -7.35305675414214        0.08485485576750
C           -1.64205051100784       -8.55712914840937        0.21981486812330
C            0.39354812481142       -9.81112399525111       -0.17402129314831
C           -0.95252318883030       -9.77284892320169        0.08117179477309
C           -2.52354710172580        8.80659704037579       -0.54112895581854
C           -3.26031228698688        9.98338213721323       -0.75058102127805
C           -4.63702640550131        9.96498310703228       -0.93722815714726
C           -5.44240358278394        8.79770081269427       -0.93075605026081
C           -2.62030729665137        6.20505102342338       -0.35115512846298
B           -3.31818119266876        7.52622093617310       -0.53825459044994
C           -4.81400108120839        7.55173490711632       -0.72664845489221
C           -5.52526219083807        6.32322921362879       -0.67441368744601
C           -2.72746614974496        3.77497214936962       -0.20881729545968
C           -3.39342883878643        5.02146178598112       -0.34636421542712
C           -4.83649644109781        5.08104077940196       -0.48040919992927
C           -5.59009631572358        3.87171312422717       -0.40805118231249
C           -2.80551408308792        1.32034253076579       -0.06964949626260
C           -3.47997676098976        2.56648477855276       -0.17326071022166
C           -4.90632244990062        2.61530390649544       -0.24094121412144
C           -5.63892370452105        1.40617464158584       -0.13554493020798
C           -2.87657020406855       -1.14530587911764        0.07076688395448
C           -3.54929634269030        0.10893073185308        0.00232758692817
C           -4.96884658867666        0.15221940880868        0.00183849671824
C           -5.70751192202847       -1.06030589324727        0.14179736813486
C           -2.93975103843985       -3.60372473835895        0.20608045843587
C           -3.61943235885506       -2.35030741713930        0.17624835004374
C           -5.04329893792807       -2.30846086527910        0.24412262495158
C           -5.79520045847129       -3.51604574836280        0.41379237295040
C           -3.00176504771866       -6.05380306158843        0.33744514862111
C           -3.68008989643140       -4.80901408167557        0.34240919803765
C           -5.10690850402646       -4.76677163983821        0.48165876215209
C           -5.82926842979292       -5.96579848252541        0.68122278645298
C           -3.06198585753569       -8.51208431075863        0.48835414783295
C           -3.73725128024854       -7.26714580018004        0.51346867596045
C           -5.14726721402627       -7.22412315157582        0.72197422501762
C           -5.86623191496283       -8.42418302876932        0.95239112068164
C           -3.80645091533589       -9.67688413527210        0.72770644585516
C           -5.15823730058393       -9.63284799090666        0.95841981202869
C           -6.88187629895950        8.83216058839475       -1.11509319188208
C           -7.59496979730212       10.01061145784858       -1.36171226904155
C           -8.97627490058850       10.02606341353217       -1.51619036150534
C           -9.68772716242869        8.85200294501498       -1.42179395343707
C           -6.94493420839741        6.34730384177761       -0.80899802606682
C           -7.60207320203537        7.60403019091566       -1.03398051478935
C           -9.01697836414756        7.64031710027881       -1.18134984105855
C           -9.73339805672591        6.42979737883717       -1.06731061517027
C           -7.01733595693424        3.89885605596352       -0.49905252456114
C           -7.69115038869469        5.14930507460014       -0.71334026237145
C           -9.12490254554439        5.21794297488882       -0.83327249244272
B           -9.96647700047489        3.95557618600350       -0.67741962920766
C           -7.06559579014553        1.44187601584938       -0.16674998957354
C           -7.75174469349886        2.67117356258959       -0.36168955122474
C           -9.18787376743552        2.66741266912417       -0.41110126337141
C           -9.86883534758335        1.48541916291565       -0.21711259857636
C           -7.13296209134388       -1.02248920077663        0.17670202836516
C           -7.79354532504647        0.22994079343428        0.00555284682419
C           -9.21265742607265        0.26510001375872        0.00709723571192
C           -9.93320666713962       -0.91696880671202        0.23259835613147
C           -7.21350809884531       -3.47560134071483        0.51135203840105
C           -7.88463410381221       -2.20959631219088        0.37430774508761
C           -9.31652749970691       -2.13545753018628        0.42729530223998
B          -10.15303153648355       -3.38282348132604        0.70100548696406
C           -7.24716440205754       -5.92504902722246        0.83285728542781
C           -7.93826303603429       -4.69283588008797        0.73505510128602
C           -9.37323623751284       -4.68819381014528        0.86471854516776
C          -10.04048934673393       -5.86312683319538        1.11819016899565
C           -7.30155729741647       -8.38530305820210        1.16525539726519
C           -7.96859708657504       -7.13646770437007        1.07885499421361
C           -9.38123890608125       -7.10489562126516        1.24338143639454
C          -10.09757751445986       -8.28310884516630        1.51050463461020
C           -8.05552706005633       -9.53101318320586        1.44096306515350
C           -9.43361437837952       -9.48380902402752        1.61513734872738
H           11.21145289869270        8.31143262430477        1.62615913988360
H            9.98434410462675       10.45751548562719        1.81601609696694
H            7.58313185647473       10.49966386778067        1.50305181260619
H           11.41747318397847        5.78495563823395        1.22215300522550
H           11.10365456919746        3.30256108073032        0.76344226390644
H           11.04407112426688        0.91983180597372        0.32323516391251
H           10.99911493783990       -1.45583044387630       -0.13195839956220