      -----------------------------------------------------------      
     |                   =====================                   |     
     |                           x T B                           |     
     |                   =====================                   |     
     |                         S. Grimme                         |     
     |          Mulliken Center for Theoretical Chemistry        |     
     |                    University of Bonn                     |     
      -----------------------------------------------------------      

   * xtb version 6.7.1pre (5071a88) compiled by 'Marcel@Raven' on 2024-07-23

   xtb is free software: you can redistribute it and/or modify it under
   the terms of the GNU Lesser General Public License as published by
   the Free Software Foundation, either version 3 of the License, or
   (at your option) any later version.
   
   xtb is distributed in the hope that it will be useful,
   but WITHOUT ANY WARRANTY; without even the implied warranty of
   MERCHANTABILITY or FITNESS FOR A PARTICULAR PURPOSE.  See the
   GNU Lesser General Public License for more details.
   
   Cite this work as:
   * C. Bannwarth, E. Caldeweyher, S. Ehlert, A. Hansen, P. Pracht,
     J. Seibert, S. Spicher, S. Grimme, WIREs Comput. Mol. Sci., 2020, 11,
     e01493. DOI: 10.1002/wcms.1493
   
   for GFN2-xTB:
   * C. Bannwarth, S. Ehlert and S. Grimme., J. Chem. Theory Comput., 2019,
     15, 1652-1671. DOI: 10.1021/acs.jctc.8b01176
   for GFN1-xTB:
   * S. Grimme, C. Bannwarth, P. Shushkov, J. Chem. Theory Comput., 2017,
     13, 1989-2009. DOI: 10.1021/acs.jctc.7b00118
   for GFN0-xTB:
   * P. Pracht, E. Caldeweyher, S. Ehlert, S. Grimme, ChemRxiv, 2019, preprint.
     DOI: 10.26434/chemrxiv.8326202.v1
   for GFN-FF:
   * S. Spicher and S. Grimme, Angew. Chem. Int. Ed., 2020, 59, 15665-15673.
     DOI: 10.1002/anie.202004239
   
   for ALPB and GBSA implicit solvation:
   * S. Ehlert, M. Stahn, S. Spicher, S. Grimme, J. Chem. Theory Comput.,
     2021, 17, 4250-4261. DOI: 10.1021/acs.jctc.1c00471
   
   for ddCOSMO and CPCM-X implicit solvation:
   * M. Stahn, S. Ehlert, S. Grimme, J. Phys. Chem. A,
     2023, XX, XXXX-XXXX. DOI: 10.1021/acs.jpca.3c04382
   
   for DFT-D4:
   * E. Caldeweyher, C. Bannwarth and S. Grimme, J. Chem. Phys., 2017,
     147, 034112. DOI: 10.1063/1.4993215
   * E. Caldeweyher, S. Ehlert, A. Hansen, H. Neugebauer, S. Spicher,
     C. Bannwarth and S. Grimme, J. Chem. Phys., 2019, 150, 154122.
     DOI: 10.1063/1.5090222
   * E. Caldeweyher, J.-M. Mewes, S. Ehlert and S. Grimme, Phys. Chem. Chem. Phys.
     2020, 22, 8499-8512. DOI: 10.1039/D0CP00502A
   
   for sTDA-xTB:
   * S. Grimme and C. Bannwarth, J. Chem. Phys., 2016, 145, 054103.
     DOI: 10.1063/1.4959605
   
   in the mass-spec context:
   * V. Asgeirsson, C. Bauer and S. Grimme, Chem. Sci., 2017, 8, 4879.
     DOI: 10.1039/c7sc00601b
   * J. Koopman and S. Grimme, ACS Omega 2019, 4, 12, 15120-15133.
     DOI: 10.1021/acsomega.9b02011
   
   for metadynamics refer to:
   * S. Grimme, J. Chem. Theory Comput., 2019, 155, 2847-2862
     DOI: 10.1021/acs.jctc.9b00143
   
   for SPH calculations refer to:
   * S. Spicher and S. Grimme, J. Chem. Theory Comput., 2021, 17, 1701-1714
     DOI: 10.1021/acs.jctc.0c01306
   
   for ONIOM refer to:
   * C. Plett, A. Katbashev, S. Ehlert, S. Grimme, M. Bursch,
     Phys. Chem. Chem. Phys., 2023, 25, 17860-17868. DOI: 10.1039/D3CP02178E
   
   for DIPRO refer to:
   * J. Kohn, N. Gildemeister, S. Grimme, D. Fazzi, A. Hansen,
     J. Chem. Phys., 2023, just accepted.
   
   for PTB refer to:
   * S. Grimme, M. Mueller, A. Hansen, J. Chem. Phys., 2023, 158, 124111.
     DOI: 10.1063/5.0137838
   
   with help from (in alphabetical order)
   P. Atkinson, C. Bannwarth, F. Bohle, G. Brandenburg, E. Caldeweyher
   M. Checinski, S. Dohm, S. Ehlert, S. Ehrlich, I. Gerasimov, C. Hölzer
   A. Katbashev, J. Kohn, J. Koopman, C. Lavigne, S. Lehtola, F. März, M. Müller,
   F. Musil, H. Neugebauer, J. Pisarek, C. Plett, P. Pracht, F. Pultar,
   J. Seibert, P. Shushkov, S. Spicher, M. Stahn, M. Steiner, T. Strunk,
   J. Stückrath, T. Rose, and J. Unsleber
   
 * started run on 2025/12/08 at 00:34:21.362     
   ID    Z sym.   atoms
    1    6 C      1-52
    2    1 H      53-72
    3    5 B      73, 74

           -------------------------------------------------
          |                Calculation Setup                |
           -------------------------------------------------

          program call               : xtb "C:\Users\LENOVO GAMING\Documents\GitHub\molecular-conductivity-sim\results\1nm-2Bdoped-3percent\xtbopt.xyz" --sp
          coordinate file            : C:\Users\LENOVO GAMING\Documents\GitHub\molecular-conductivity-sim\results\1nm-2Bdoped-3percent\xtbopt.xyz
          omp threads                :                    16


           -------------------------------------------------
          |                 G F N 2 - x T B                 |
           -------------------------------------------------

        Reference                      10.1021/acs.jctc.8b01176
      * Hamiltonian:
        H0-scaling (s, p, d)           1.850000    2.230000    2.230000
        zeta-weighting                 0.500000
      * Dispersion:
        s8                             2.700000
        a1                             0.520000
        a2                             5.000000
        s9                             5.000000
      * Repulsion:
        kExp                           1.500000    1.000000
        rExp                           1.000000
      * Coulomb:
        alpha                          2.000000
        third order                    shell-resolved
        anisotropic                    true
        a3                             3.000000
        a5                             4.000000
        cn-shift                       1.200000
        cn-exp                         4.000000
        max-rad                        5.000000

q/qsh data taken from xtbrestart
CAMM data taken from xtbrestart

          ...................................................
          :                      SETUP                      :
          :.................................................:
          :  # basis functions                 236          :
          :  # atomic orbitals                 236          :
          :  # shells                          128          :
          :  # electrons                       234          :
          :  max. iterations                   250          :
          :  Hamiltonian                  GFN2-xTB          :
          :  restarted?                       true          :
          :  GBSA solvation                  false          :
          :  PC potential                    false          :
          :  electronic temp.          300.0000000     K    :
          :  accuracy                    1.0000000          :
          :  -> integral cutoff          0.2500000E+02      :
          :  -> integral neglect         0.1000000E-07      :
          :  -> SCF convergence          0.1000000E-05 Eh   :
          :  -> wf. convergence          0.1000000E-03 e    :
          :  Broyden damping             0.4000000          :
          :  net charge                          0          :
          :  unpaired electrons                  0          :
          ...................................................

 iter      E             dE          RMSdq      gap      omega  full diag
   1   -126.6999131 -0.126700E+03  0.229E-05    1.06       0.0  T
   2   -126.6999131  0.579519E-10  0.326E-05    1.06     356.3  T
   3   -126.6999131 -0.954117E-10  0.661E-06    1.06    1758.5  T

   *** convergence criteria satisfied after 3 iterations ***

         #    Occupation            Energy/Eh            Energy/eV
      -------------------------------------------------------------
         1        2.0000           -0.6615780             -18.0025
       ...           ...                  ...                  ...
       111        2.0000           -0.3876187             -10.5476
       112        2.0000           -0.3852386             -10.4829
       113        2.0000           -0.3813577             -10.3773
       114        2.0000           -0.3758036             -10.2261
       115        2.0000           -0.3748808             -10.2010
       116        2.0000           -0.3706261             -10.0852
       117        2.0000           -0.3496464              -9.5144 (HOMO)
       118                         -0.3107744              -8.4566 (LUMO)
       119                         -0.2957632              -8.0481
       120                         -0.2802316              -7.6255
       121                         -0.2632316              -7.1629
       122                         -0.2483614              -6.7583
       ...                                ...                  ...
       236                          0.7645067              20.8033
      -------------------------------------------------------------
                  HL-Gap            0.0388720 Eh            1.0578 eV
             Fermi-level           -0.3302104 Eh           -8.9855 eV

 SCC (total)                   0 d,  0 h,  0 min,  0.092 sec
 SCC setup                      ...        0 min,  0.001 sec (  1.087%)
 Dispersion                     ...        0 min,  0.003 sec (  3.261%)
 classical contributions        ...        0 min,  0.000 sec (  0.000%)
 integral evaluation            ...        0 min,  0.009 sec (  9.782%)
 iterations                     ...        0 min,  0.054 sec ( 58.696%)
 molecular gradient             ...        0 min,  0.024 sec ( 26.087%)
 printout                       ...        0 min,  0.001 sec (  1.087%)

         :::::::::::::::::::::::::::::::::::::::::::::::::::::
         ::                     SUMMARY                     ::
         :::::::::::::::::::::::::::::::::::::::::::::::::::::
         :: total energy            -124.277251794228 Eh    ::
         :: gradient norm              0.000497791713 Eh/a0 ::
         :: HOMO-LUMO gap              1.057761173049 eV    ::
         ::.................................................::
         :: SCC energy              -126.702049628886 Eh    ::
         :: -> isotropic ES            0.040886903283 Eh    ::
         :: -> anisotropic ES          0.013424415125 Eh    ::
         :: -> anisotropic XC          0.053224770259 Eh    ::
         :: -> dispersion             -0.136830035043 Eh    ::
         :: repulsion energy           2.424797834658 Eh    ::
         :: add. restraining           0.000000000000 Eh    ::
         :: total charge               0.000000000000 e     ::
         :::::::::::::::::::::::::::::::::::::::::::::::::::::

           -------------------------------------------------
          |                Property Printout                |
           -------------------------------------------------

    * Orbital Energies and Occupations

         #    Occupation            Energy/Eh            Energy/eV
      -------------------------------------------------------------
         1        2.0000           -0.6615780             -18.0025
       ...           ...                  ...                  ...
       105        2.0000           -0.4026905             -10.9578
       106        2.0000           -0.4014644             -10.9244
       107        2.0000           -0.3990541             -10.8588
       108        2.0000           -0.3973252             -10.8118
       109        2.0000           -0.3955834             -10.7644
       110        2.0000           -0.3942991             -10.7294
       111        2.0000           -0.3876187             -10.5476
       112        2.0000           -0.3852386             -10.4829
       113        2.0000           -0.3813577             -10.3773
       114        2.0000           -0.3758036             -10.2261
       115        2.0000           -0.3748808             -10.2010
       116        2.0000           -0.3706261             -10.0852
       117        2.0000           -0.3496464              -9.5144 (HOMO)
       118                         -0.3107744              -8.4566 (LUMO)
       119                         -0.2957632              -8.0481
       120                         -0.2802316              -7.6255
       121                         -0.2632316              -7.1629
       122                         -0.2483614              -6.7583
       123                         -0.2403801              -6.5411
       124                         -0.2342285              -6.3737
       125                         -0.2294872              -6.2447
       126                         -0.2259031              -6.1471
       127                         -0.2232713              -6.0755
       128                         -0.2225910              -6.0570
       ...                                ...                  ...
       236                          0.7645067              20.8033
      -------------------------------------------------------------
                  HL-Gap            0.0388720 Eh            1.0578 eV
             Fermi-level           -0.3302104 Eh           -8.9855 eV

     #   Z          covCN         q      C6AA      α(0)
     1   6 C        2.923    -0.033    28.826     8.805
     2   6 C        2.923    -0.034    28.840     8.807
     3   6 C        2.918    -0.037    28.932     8.820
     4   6 C        2.913    -0.030    28.761     8.794
     5   6 C        2.978     0.006    27.884     8.662
     6   6 C        2.983     0.010    27.785     8.647
     7   6 C        2.817    -0.113    30.851     9.101
     8   6 C        2.919    -0.037    28.932     8.821
     9   6 C        2.920    -0.037    28.926     8.820
    10   6 C        2.972    -0.002    28.066     8.690
    11   6 C        2.884    -0.067    29.663     8.929
    12   6 C        2.980     0.007    27.865     8.659
    13   6 C        2.981     0.005    27.907     8.665
    14   6 C        2.981     0.003    27.950     8.672
    15   6 C        2.989    -0.000    28.030     8.685
    16   6 C        2.985     0.000    28.013     8.682
    17   6 C        2.923    -0.025    28.633     8.775
    18   6 C        2.976     0.010    27.787     8.647
    19   6 C        2.926    -0.030    28.744     8.792
    20   6 C        2.995     0.005    27.904     8.665
    21   6 C        2.983     0.012    27.749     8.641
    22   6 C        2.984     0.000    28.021     8.683
    23   6 C        2.984    -0.001    28.037     8.686
    24   6 C        2.986    -0.000    28.027     8.684
    25   6 C        2.924    -0.026    28.646     8.777
    26   6 C        2.977     0.007    27.859     8.658
    27   6 C        2.980     0.002    27.981     8.677
    28   6 C        2.913    -0.030    28.744     8.791
    29   6 C        2.981     0.002    27.983     8.677
    30   6 C        2.988     0.001    27.991     8.679
    31   6 C        2.904    -0.023    28.578     8.766
    32   6 C        2.886    -0.071    29.778     8.946
    33   6 C        2.922    -0.034    28.848     8.808
    34   6 C        2.974    -0.004    28.127     8.699
    35   6 C        2.987     0.001    28.009     8.681
    36   6 C        2.981     0.002    27.964     8.674
    37   6 C        2.980     0.007    27.863     8.659
    38   6 C        2.984     0.002    27.974     8.676
    39   6 C        2.892    -0.072    29.787     8.948
    40   6 C        2.922    -0.021    28.525     8.758
    41   6 C        2.979     0.004    27.918     8.667
    42   6 C        2.920    -0.039    28.959     8.825
    43   6 C        2.987     0.001    27.998     8.680
    44   6 C        2.986    -0.000    28.026     8.684
    45   6 C        2.994    -0.001    28.032     8.685
    46   6 C        2.910    -0.033    28.813     8.802
    47   6 C        2.926    -0.036    28.901     8.816
    48   6 C        2.983    -0.000    28.027     8.684
    49   6 C        2.922    -0.035    28.876     8.812
    50   6 C        2.983    -0.002    28.069     8.691
    51   6 C        2.986    -0.001    28.039     8.686
    52   6 C        2.995     0.004    27.929     8.669
    53   1 H        0.926     0.034     2.532     2.488
    54   1 H        0.926     0.032     2.551     2.498
    55   1 H        0.926     0.033     2.549     2.497
    56   1 H        0.926     0.033     2.548     2.496
    57   1 H        0.926     0.036     2.504     2.474
    58   1 H        0.926     0.032     2.563     2.503
    59   1 H        0.926     0.035     2.516     2.480
    60   1 H        0.926     0.033     2.538     2.491
    61   1 H        0.926     0.027     2.625     2.534
    62   1 H        0.926     0.035     2.511     2.478
    63   1 H        0.926     0.032     2.555     2.499
    64   1 H        0.926     0.031     2.569     2.506
    65   1 H        0.925     0.016     2.801     2.617
    66   1 H        0.926     0.035     2.513     2.479
    67   1 H        0.926     0.027     2.636     2.539
    68   1 H        0.925     0.037     2.486     2.466
    69   1 H        0.926     0.036     2.498     2.472
    70   1 H        0.926     0.033     2.539     2.492
    71   1 H        0.938    -0.108     5.850     3.781
    72   1 H        0.939    -0.105     5.743     3.747
    73   5 B        2.757     0.207    18.230     7.144
    74   5 B        2.759     0.213    18.139     7.126

 Mol. C6AA /au·bohr⁶  :     101843.232402
 Mol. C8AA /au·bohr⁸  :    2756895.601447
 Mol. α(0) /au        :        521.214263


Wiberg/Mayer (AO) data.
largest (>0.10) Wiberg bond orders for each atom

 ---------------------------------------------------------------------------
     #   Z sym  total        # sym  WBO       # sym  WBO       # sym  WBO
 ---------------------------------------------------------------------------
     1   6 C    3.939 --     4 C    1.417     5 C    1.377    62 H    0.961
     2   6 C    3.945 --     4 C    1.469     6 C    1.322    53 H    0.968
     3   6 C    3.969 --     8 C    1.535    14 C    1.305    63 H    0.960
     4   6 C    3.982 --     2 C    1.469     1 C    1.417    64 H    0.970
     5   6 C    3.981 --     1 C    1.377    20 C    1.265    14 C    1.144
     6   6 C    3.986 --     2 C    1.322    20 C    1.248    25 C    1.245
     7   6 C    3.924 --    31 C    1.702    73 B    1.121    65 H    0.973
     8   6 C    3.950 --     3 C    1.535    37 C    1.295    66 H    0.957
     9   6 C    3.973 --    42 C    1.499    36 C    1.336    54 H    0.960
    10   6 C    3.930 --    38 C    1.356    37 C    1.208    31 C    1.172
    11   6 C    3.933 --    40 C    1.569    38 C    1.168    73 B    1.038
    12   6 C    3.979 --    41 C    1.300    39 C    1.284    34 C    1.169
    13   6 C    3.970 --    42 C    1.331    35 C    1.292    41 C    1.142
    14   6 C    3.949 --    43 C    1.307     3 C    1.305     5 C    1.144
    15   6 C    3.977 --    37 C    1.258    44 C    1.247    43 C    1.246
    16   6 C    3.972 --    45 C    1.274    44 C    1.255    38 C    1.222
    17   6 C    3.971 --    39 C    1.413    46 C    1.406    55 H    0.970
    18   6 C    3.988 --    47 C    1.426    40 C    1.210    45 C    1.186
    19   6 C    3.975 --    46 C    1.474    41 C    1.340    56 H    0.959
    20   6 C    3.982 --     5 C    1.265     6 C    1.248    48 C    1.231
    21   6 C    3.986 --    49 C    1.296    47 C    1.290    52 C    1.232
    22   6 C    3.969 --    50 C    1.297    48 C    1.243    43 C    1.201
    23   6 C    3.971 --    51 C    1.301    44 C    1.241    50 C    1.203
    24   6 C    3.979 --    45 C    1.278    52 C    1.245    51 C    1.231
    25   6 C    3.959 --    32 C    1.528     6 C    1.245    57 H    0.966
    26   6 C    3.983 --    33 C    1.392    52 C    1.263    36 C    1.133
    27   6 C    3.960 --    48 C    1.279    34 C    1.269    32 C    1.192
    28   6 C    3.982 --    49 C    1.492    33 C    1.395    58 H    0.970
    29   6 C    3.974 --    34 C    1.296    50 C    1.246    35 C    1.205
    30   6 C    3.982 --    36 C    1.293    35 C    1.256    51 C    1.206
    31   6 C    3.976 --     7 C    1.702    10 C    1.172    67 H    0.956
    32   6 C    3.954 --    25 C    1.528    27 C    1.192    74 B    1.062
    33   6 C    3.924 --    28 C    1.395    26 C    1.392    59 H    0.961
    34   6 C    3.957 --    29 C    1.296    27 C    1.269    12 C    1.169
    35   6 C    3.981 --    13 C    1.292    30 C    1.256    29 C    1.205
    36   6 C    3.959 --     9 C    1.336    30 C    1.293    26 C    1.133
    37   6 C    3.972 --     8 C    1.295    15 C    1.258    10 C    1.208
    38   6 C    3.977 --    10 C    1.356    16 C    1.222    11 C    1.168
    39   6 C    3.952 --    17 C    1.413    12 C    1.284    74 B    1.075
    40   6 C    3.970 --    11 C    1.569    18 C    1.210    68 H    0.965
    41   6 C    3.977 --    19 C    1.340    12 C    1.300    13 C    1.142
    42   6 C    3.963 --     9 C    1.499    13 C    1.331    60 H    0.958
    43   6 C    3.984 --    14 C    1.307    15 C    1.246    22 C    1.201
    44   6 C    3.978 --    16 C    1.255    15 C    1.247    23 C    1.241
    45   6 C    3.967 --    24 C    1.278    16 C    1.274    18 C    1.186
    46   6 C    3.978 --    19 C    1.474    17 C    1.406    61 H    0.970
    47   6 C    3.912 --    18 C    1.426    21 C    1.290    69 H    0.965
    48   6 C    3.976 --    27 C    1.279    22 C    1.243    20 C    1.231
    49   6 C    3.924 --    28 C    1.492    21 C    1.296    70 H    0.969
    50   6 C    3.971 --    22 C    1.297    29 C    1.246    23 C    1.203
    51   6 C    3.956 --    23 C    1.301    24 C    1.231    30 C    1.206
    52   6 C    3.972 --    26 C    1.263    24 C    1.245    21 C    1.232
    53   1 H    0.998 --     2 C    0.968
    54   1 H    0.998 --     9 C    0.960
    55   1 H    0.998 --    17 C    0.970
    56   1 H    0.998 --    19 C    0.959
    57   1 H    0.997 --    25 C    0.966
    58   1 H    0.998 --    28 C    0.970
    59   1 H    0.998 --    33 C    0.961
    60   1 H    0.998 --    42 C    0.958
    61   1 H    0.998 --    46 C    0.970
    62   1 H    0.998 --     1 C    0.961
    63   1 H    0.998 --     3 C    0.960
    64   1 H    0.998 --     4 C    0.970
    65   1 H    0.998 --     7 C    0.973
    66   1 H    0.997 --     8 C    0.957
    67   1 H    0.999 --    31 C    0.956
    68   1 H    0.997 --    40 C    0.965
    69   1 H    0.997 --    47 C    0.965
    70   1 H    0.998 --    49 C    0.969
    71   1 H    0.988 --    73 B    0.970
    72   1 H    0.988 --    74 B    0.970
    73   5 B    3.366 --     7 C    1.121    11 C    1.038    71 H    0.970
    74   5 B    3.356 --    39 C    1.075    32 C    1.062    72 H    0.970
 ---------------------------------------------------------------------------

Topologies differ in total number of bonds
Writing topology from bond orders to xtbtopo.mol

molecular dipole:
                 x           y           z       tot (Debye)
 q only:       -0.218      -0.431       0.000
   full:       -0.242      -0.531       0.000       1.484
molecular quadrupole (traceless):
                xx          xy          yy          xz          yz          zz
 q only:        0.404     -13.048       6.663       0.001       0.002      -7.067
  q+dip:        6.869     -19.496      26.961       0.002       0.004     -33.831
   full:       -5.186     -19.085      15.200       0.002       0.004     -10.014


           -------------------------------------------------
          | TOTAL ENERGY             -124.277251794228 Eh   |
          | GRADIENT NORM               0.000497791713 Eh/α |
          | HOMO-LUMO GAP               1.057761173049 eV   |
           -------------------------------------------------

------------------------------------------------------------------------
 * finished run on 2025/12/08 at 00:34:21.501     
------------------------------------------------------------------------
 total:
 * wall-time:     0 d,  0 h,  0 min,  0.136 sec
 *  cpu-time:     0 d,  0 h,  0 min,  1.344 sec
 * ratio c/w:     9.881 speedup
 SCF:
 * wall-time:     0 d,  0 h,  0 min,  0.093 sec
 *  cpu-time:     0 d,  0 h,  0 min,  1.000 sec
 * ratio c/w:    10.753 speedup

normal termination of xtb
