74
 energy: -124.277251794192 gnorm: 0.000497746118 xtb: 6.7.1pre (5071a88)
C           -3.58073100091352        4.88978827139340        0.00218661375551
C           -5.65368066907902        3.70093304651727        0.00200652364294
C           -0.66340295838471        4.87962642100713       -0.00053262988710
C           -4.96576682823080        4.89132320127795        0.00266502316852
C           -2.84418628231793        3.70434807322101        0.00106922402926
C           -4.95473413449616        2.48843714852623        0.00111672826336
C            4.95469994196053        5.01999731460700       -0.00150173439614
C            0.69946400749272        4.87864369490339       -0.00107587858030
C            0.69142127776907       -4.87001484889748        0.00240797810201
C            2.87247883706498        3.68298260916617       -0.00098607183180
C            4.99689413477068        2.44464993164693       -0.00094425578449
C           -3.57635732327171       -2.48927576062028       -0.00086565325959
C           -1.41633010698753       -3.68893867127468        0.00038633176284
C           -1.40368153209134        3.68889779275322        0.00024894791355
C            0.71565595428609        2.46276588022304       -0.00035380658163
C            2.82856401103967        1.23362594458713       -0.00040819629764
C           -5.64429425648005       -3.76892212229466       -0.00260285143522
C            4.94933095898194       -0.00209618011197       -0.00024300128324
C           -3.56372869989442       -4.91703734432511       -0.00229336284896
C           -3.53803960060459        2.47148534602370        0.00077774714916
C            4.96456054267347       -2.42760232433312        0.00049381785239
C           -1.42129165146165        1.22744404868371        0.00011722266429
C            0.69893147677653       -0.00070097992478       -0.00001481231144
C            2.82186919636801       -1.21866948551224        0.00028877218681
C           -5.63989057582064        1.25721870156845        0.00048322730690
C            2.85959552046376       -3.67896678172116        0.00113106934424
C           -3.55914273968667        0.01045355038730       -0.00008231070504
C            4.99823376412513       -4.83329815686103        0.00108904293609
C           -1.44987051399563       -1.22691732616843       -0.00009365287279
C            0.69722057722166       -2.45770132521341        0.00060332364814
C            3.60449501573433        4.92240043768950       -0.00130237900370
C           -4.99445831055966        0.04841378754708       -0.00016250526589
C            3.60957289851767       -4.85283690241679        0.00124884880274
C           -2.86585242031073       -1.22982944414932       -0.00029281785594
C           -0.72377319380685       -2.45981012794575        0.00024382516762
C            1.41394650777810       -3.67506321837114        0.00132958505932
C            1.44117440417130        3.68413044801280       -0.00078734664565
C            3.55516059531963        2.46099798196964       -0.00078179417505
C           -4.99542262911114       -2.53838940995667       -0.00156317460666
C            5.63726300308510        1.23819313096686       -0.00068364400530
C           -2.85787518485279       -3.70499785177496       -0.00086904463114
C           -0.67583892744052       -4.87551822368286        0.00194963455214
C           -0.70634331884393        2.46560877715278        0.00003620486311
C            1.41190600320479        1.22877680897118       -0.00026217047378
C            3.52164138589015        0.00505755370816       -0.00012487458571
C           -4.93787427454288       -4.95784250846374       -0.00316611203419
C            5.63822902243472       -1.19690304999131        0.00004968078281
C           -2.84012058858044        1.23042754533481        0.00023782768593
C            5.67447613619475       -3.63958058771006        0.00076452249041
C           -0.73025436164208        0.00043765035202       -0.00001096331291
C            1.40192507573280       -1.21889297701438        0.00025800378544
C            3.54230930478542       -2.44002243005385        0.00064341367208
H           -6.73366303741560        3.68341274833421        0.00224112166952
H            1.20205806866825       -5.81856668759753        0.00364904741237
H           -6.72433583815725       -3.78422971452775       -0.00310029106834
H           -3.03423747825160       -5.85527554569884       -0.00290959836531
H           -6.72080138011520        1.27729135627959        0.00050799236705
H            5.54128645840705       -5.76708340808793        0.00121418452390
H            3.12396053201043       -5.81472729854614        0.00140654264346
H           -1.17034528186159       -5.83198029972643        0.00296932041907
H           -5.45323985650910       -5.90737634150886       -0.00425579844033
H           -3.07962938642937        5.84372846595354        0.00278728577088
H           -1.16764871992504        5.83170216031384       -0.00083805218882
H           -5.49849442632550        5.83098504603903        0.00352159526401
H            5.37238513209094        6.02035175369910       -0.00172292033716
H            1.19633209750134        5.83389440211331       -0.00174104134607
H            3.02791194232669        5.83602884193097       -0.00134685436008
H            6.71843116699235        1.20974093516668       -0.00079817254549
H            6.71929160842302       -1.19043982127824       -0.00006516001068
H            6.75419748588981       -3.61330957016787        0.00066838072580
H            6.97831591399972        3.76037242345546       -0.00154705493717
H           -6.98200533447118       -1.24138850036442       -0.00130352582760
B            5.80666985561541        3.76198933271929       -0.00135060834693
B           -5.81105999289916       -1.24644333790968       -0.00104448893838
