74
 energy: -124.268758377357 gnorm: 0.048065889486 xtb: 6.7.1pre (5071a88)
C           -3.61348600000000        4.91947300000000        0.00224000000000
C           -5.70223500000000        3.71976300000000        0.00197000000000
C           -0.66791400000000        4.91332800000000       -0.00056000000000
C           -5.00936200000000        4.92006900000000        0.00268700000000
C           -2.86955300000000        3.72689300000000        0.00110100000000
C           -4.99898700000000        2.50051600000000        0.00106900000000
C            5.00902500000000        5.05137400000000       -0.00147700000000
C            0.70413800000000        4.91415200000000       -0.00105400000000
C            0.69560100000000       -4.90412900000000        0.00235000000000
C            2.89623900000000        3.70569200000000       -0.00095500000000
C            5.03479500000000        2.46306100000000       -0.00092500000000
C           -3.60568700000000       -2.50725300000000       -0.00086300000000
C           -1.42694800000000       -3.71697300000000        0.00038600000000
C           -1.41444800000000        3.71514800000000        0.00024700000000
C            0.72142400000000        2.48120700000000       -0.00031100000000
C            2.84771300000000        1.24061700000000       -0.00036000000000
C           -5.69690000000000       -3.78772500000000       -0.00259700000000
C            4.98821000000000        0.00092100000000       -0.00029000000000
C           -3.60103800000000       -4.94771800000000       -0.00221800000000
C           -3.56951200000000        2.48671700000000        0.00078200000000
C            5.00654300000000       -2.43968900000000        0.00050600000000
C           -1.43256700000000        1.23508300000000        0.00014200000000
C            0.70574500000000       -0.00186500000000        0.00000700000000
C            2.84424000000000       -1.22345100000000        0.00030700000000
C           -5.68633900000000        1.25832900000000        0.00041600000000
C            2.88474600000000       -3.70124300000000        0.00113000000000
C           -3.58426100000000        0.01079500000000       -0.00009900000000
C            5.04272400000000       -4.86081700000000        0.00110800000000
C           -1.46058800000000       -1.23513800000000       -0.00008500000000
C            0.70371100000000       -2.47662200000000        0.00061500000000
C            3.64402300000000        4.95088800000000       -0.00132500000000
C           -5.03278800000000        0.04599300000000       -0.00021800000000
C            3.64275000000000       -4.88097700000000        0.00122300000000
C           -2.88568700000000       -1.23668900000000       -0.00030200000000
C           -0.72927300000000       -2.48038700000000        0.00025300000000
C            1.42428300000000       -3.70216400000000        0.00133300000000
C            1.45142700000000        3.71166600000000       -0.00074400000000
C            3.57973200000000        2.47750100000000       -0.00073000000000
C           -5.03817100000000       -2.55265500000000       -0.00156200000000
C            5.68108700000000        1.24950200000000       -0.00073400000000
C           -2.88230000000000       -3.73009000000000       -0.00084600000000
C           -0.68034700000000       -4.91083100000000        0.00187800000000
C           -0.71218100000000        2.48505800000000        0.00007400000000
C            1.42278600000000        1.23694100000000       -0.00022600000000
C            3.54736500000000        0.00654600000000       -0.00011800000000
C           -4.98589000000000       -4.98789700000000       -0.00309500000000
C            5.68118400000000       -1.19784700000000        0.00002700000000
C           -2.86081300000000        1.23717400000000        0.00025100000000
C            5.72314000000000       -3.65722900000000        0.00080200000000
C           -0.73677800000000        0.00130500000000        0.00001700000000
C            1.41362000000000       -1.22609400000000        0.00028500000000
C            3.57172200000000       -2.45403200000000        0.00066300000000
H           -6.78860500000000        3.70330300000000        0.00220800000000
H            1.20877000000000       -5.85780900000000        0.00363200000000
H           -6.78389300000000       -3.80057400000000       -0.00313400000000
H           -3.06779500000000       -5.89024100000000       -0.00284900000000
H           -6.77405800000000        1.27385700000000        0.00040700000000
H            5.58900100000000       -5.79914400000000        0.00124100000000
H            3.15169200000000       -5.84644800000000        0.00128700000000
H           -1.17879800000000       -5.87137800000000        0.00292400000000
H           -5.50158200000000       -5.94369600000000       -0.00418500000000
H           -3.10730100000000        5.87705800000000        0.00292300000000
H           -1.17426000000000        5.87062100000000       -0.00099200000000
H           -5.54493800000000        5.86459500000000        0.00359200000000
H            5.42549700000000        6.05838000000000       -0.00171500000000
H            1.20491700000000        5.87308400000000       -0.00172400000000
H            3.06503900000000        5.86921400000000       -0.00145500000000
H            6.76887700000000        1.22434200000000       -0.00089800000000
H            6.76823400000000       -1.18790700000000       -0.00007500000000
H            6.80912300000000       -3.63091100000000        0.00073500000000
H            7.03803700000000        3.75266200000000       -0.00156300000000
H           -7.03265500000000       -1.24506100000000       -0.00135500000000
B            5.83740100000000        3.77849400000000       -0.00133200000000
B           -5.83316600000000       -1.25272400000000       -0.00107700000000
74
 energy: -124.275840455378 gnorm: 0.016900959866 xtb: 6.7.1pre (5071a88)
C           -3.60035949805076        4.90003776623613        0.00222123816974
C           -5.67590717912755        3.70740906555868        0.00197454428700
C           -0.66467179129346        4.89125362247515       -0.00055587967323
C           -4.98801954118740        4.90026716524004        0.00268066050931
C           -2.85782089963459        3.71387173386909        0.00107579492179
C           -4.97451060307642        2.49370312126086        0.00107816715667
C            4.98241116722389        5.03011783356886       -0.00147167918383
C            0.70164154800224        4.89109724898966       -0.00105773615733
C            0.69282483069779       -4.88175123155518        0.00235386671709
C            2.88581369544491        3.69258673588569       -0.00095634759093
C            5.01418627779619        2.45148955830213       -0.00092716063215
C           -3.59069956556568       -2.49815178815617       -0.00085636573980
C           -1.42256431243237       -3.70031338702070        0.00037147801909
C           -1.40973536620496        3.69957751999854        0.00025420723503
C            0.71871734488857        2.47112081255704       -0.00031382831451
C            2.83730042718646        1.23649836616331       -0.00037262074208
C           -5.66840735327683       -3.77635850340391       -0.00257837989868
C            4.96606822173243       -0.00095649942586       -0.00026348385701
C           -3.58529924721841       -4.92825462058760       -0.00222605417546
C           -3.55308211002036        2.47837236945463        0.00076548354011
C            4.98352539422734       -2.43231110932441        0.00050731765352
C           -1.42692413188947        1.23080092375732        0.00014083371724
C            0.70189492426108       -0.00140642796103        0.00001374167765
C            2.83249453352735       -1.22093420904941        0.00030204590519
C           -5.65920452819104        1.25812114732402        0.00042411400846
C            2.87329714323254       -3.68813818949490        0.00111710035727
C           -3.57062241255851        0.01103788103940       -0.00009589814437
C            5.02118087550232       -4.84119232108351        0.00109740947062
C           -1.45597875944795       -1.23071101568408       -0.00008001975399
C            0.70017141087510       -2.46604999264370        0.00060203713052
C            3.62792606737497        4.93241950916441       -0.00130579534669
C           -5.01191339542455        0.04825017470090       -0.00020323690567
C            3.62968150816361       -4.86194223852926        0.00121630660277
C           -2.87608938169037       -1.23313530373869       -0.00029280666263
C           -0.72683120195560       -2.46887792238097        0.00024309335191
C            1.41987604179134       -3.68593714533368        0.00130841651827
C            1.44753662549115        3.69549803936080       -0.00074880221281
C            3.56669806334914        2.46771423937995       -0.00074373434187
C           -5.01540785849510       -2.54555523350599       -0.00156026491309
C            5.65497790791467        1.24283896667831       -0.00071388996365
C           -2.87099405019036       -3.71599000940652       -0.00084824900561
C           -0.67766464006636       -4.88789604535627        0.00189068444852
C           -0.70910417254556        2.47438069420086        0.00006861893248
C            1.41696156996877        1.23245030911017       -0.00022393522154
C            3.53305944779438        0.00554248835073       -0.00011420532743
C           -4.96197508549810       -4.96800962542156       -0.00309729435293
C            5.65606979748666       -1.19681366892932        0.00003964608614
C           -2.85001557231806        1.23369002274739        0.00023724917559
C            5.69699997661709       -3.64488278966609        0.00079740080626
C           -0.73407072929030        0.00071827376157        0.00001435133267
C            1.40737581433998       -1.22202514243825        0.00027778500676
C            3.55652532968932       -2.44602023955284        0.00065258179519
H           -6.75833033879517        3.69255980402550        0.00218908718681
H            1.20328212677164       -5.83305943460736        0.00358243845077
H           -6.75096401573964       -3.79180688022483       -0.00309886402022
H           -3.05754036792879       -5.86965031714939       -0.00280832575228
H           -6.74265510537445        1.27590185021671        0.00042068143350
H            5.56709445963958       -5.77576629883507        0.00123176370292
H            3.14545260082017       -5.82650493580081        0.00132119281090
H           -1.17339029726720       -5.84632825928963        0.00287444150814
H           -5.47875785876834       -5.91921947232333       -0.00415512931942
H           -3.10076119669192        5.85671862026261        0.00287757773298
H           -1.16849281654838        5.84616858916519       -0.00093306093751
H           -5.52355461155839        5.84080846565693        0.00355621171425
H            5.39928021905035        6.03274808922299       -0.00171852058403
H            1.20011747824240        5.84798311146283       -0.00171311851178
H            3.05332458143711        5.84959178341734       -0.00142947058905
H            6.73854817244346        1.21736423240084       -0.00087723798647
H            6.73951398363854       -1.18890922343508       -0.00008188638066
H            6.77908060792995       -3.62047264468125        0.00072711493987
H            7.00703930726171        3.75707719868377       -0.00154431833074
H           -7.00411033984038       -1.24396371769633       -0.00134143906128
B            5.82460151302114        3.76673918064410       -0.00134732539819
B           -5.82266365967254       -1.24931667060144       -0.00108031902409
74
 energy: -124.277224353132 gnorm: 0.003464776158 xtb: 6.7.1pre (5071a88)
C           -3.58491354075874        4.88944989527329        0.00220031799069
C           -5.65701784223497        3.70002442832399        0.00197538607168
C           -0.66327454922513        4.87924299930229       -0.00053739858957
C           -4.96975193636948        4.89016223467171        0.00266318390957
C           -2.84677969901736        3.70509546583956        0.00106932496815
C           -4.95714810758359        2.48851725458150        0.00108442012707
C            4.95962947822773        5.01902300423591       -0.00148362314819
C            0.70016367631809        4.87831945796170       -0.00105685118966
C            0.69140705909622       -4.86955705119224        0.00234709864662
C            2.87526916655041        3.68371405703589       -0.00096440831089
C            4.99913246952253        2.44459603230106       -0.00093593744555
C           -3.57871443845882       -2.49060329398568       -0.00086001652137
C           -1.41787017451669       -3.68941716253579        0.00037145422510
C           -1.40496272534203        3.68958677167979        0.00025365159657
C            0.71623128170431        2.46378899447335       -0.00032433259315
C            2.82951131542728        1.23385594324125       -0.00038313387521
C           -5.64785853031025       -3.76874992596128       -0.00257683736268
C            4.95089376023861       -0.00198083403216       -0.00024937782302
C           -3.56797632774515       -4.91701614434450       -0.00222510255304
C           -3.54030238747773        2.47223871133993        0.00076455735587
C            4.96692555739330       -2.42730839383800        0.00050289195177
C           -1.42213076824028        1.22770817985124        0.00013336327886
C            0.69918269486909       -0.00089859224614        0.00000717997500
C            2.82330133460211       -1.21887740501915        0.00029784987755
C           -5.64142133942483        1.25702840763334        0.00043912749654
C            2.86228294347219       -3.67957022894033        0.00111612069426
C           -3.56042333814322        0.01059576657289       -0.00009241662215
C            5.00261766274511       -4.83161403394290        0.00109278105355
C           -1.45118428817288       -1.22732208648571       -0.00008511530515
C            0.69753910530928       -2.45856604086597        0.00059715620175
C            3.60964117422220        4.92212541698020       -0.00130354617185
C           -4.99660956290132        0.04860084062046       -0.00019136493856
C            3.61416663679622       -4.85206979285029        0.00122680663566
C           -2.86760685347990       -1.23027874543301       -0.00029317780542
C           -0.72436502002448       -2.46067545362731        0.00024138891704
C            1.41523443460317       -3.67565214246725        0.00130433664744
C            1.44283568178574        3.68489404494961       -0.00075969133416
C            3.55661866678620        2.46151632773866       -0.00075682112394
C           -4.99832123498068       -2.53918087530820       -0.00155716881562
C            5.63840506759061        1.23842452510105       -0.00069973455870
C           -2.86041915688101       -3.70587233314636       -0.00085181500951
C           -0.67639533838576       -4.87510788949668        0.00188614219216
C           -0.70667807933113        2.46669630482141        0.00005656182692
C            1.41245022643182        1.22919050210948       -0.00023310076905
C            3.52279460201812        0.00507908904995       -0.00011255209986
C           -4.94188031076849       -4.95723256828625       -0.00309823109122
C            5.63958975606352       -1.19617892990206        0.00004582952675
C           -2.84152301036555        1.23074763615988        0.00023325309856
C            5.67802584944150       -3.63802320406798        0.00078509270991
C           -0.73115644954173        0.00043801133639        0.00000738611693
C            1.40252097910461       -1.21908131715750        0.00026759660655
C            3.54445337892782       -2.44047813520536        0.00064605924987
H           -6.73724063920649        3.68413447426955        0.00219607444600
H            1.20215879640349       -5.81857278793272        0.00356285869803
H           -6.72811466712504       -3.78470587929203       -0.00308158528987
H           -3.03962125797380       -5.85628661028272       -0.00279088014202
H           -6.72250686529428        1.27661417503486        0.00044592866730
H            5.54733140436067       -5.76460171009694        0.00122248998342
H            3.13027429717117       -5.81501178961449        0.00136393015746
H           -1.17217398114079       -5.83147805369888        0.00285605742673
H           -5.45851517513262       -5.90629188564092       -0.00416057346972
H           -3.08534841532829        5.84439725700904        0.00282170603161
H           -1.16767525483497        5.83178399779307       -0.00086876974189
H           -5.50415896434247        5.82905605367090        0.00353566310310
H            5.37786186950651        6.01906678919646       -0.00172058138961
H            1.19870511018823        5.83330790819299       -0.00171487132988
H            3.03390166584219        5.83677835423022       -0.00139039983160
H            6.71969861708072        1.21128574384705       -0.00084179468606
H            6.72085662494946       -1.18957394406214       -0.00007703286519
H            6.75797244283032       -3.61293615415423        0.00070998710008
H            6.98222435037087        3.75709221952415       -0.00154072063140
H           -6.98388879305537       -1.24175240223533       -0.00133351184490
B            5.81152513359560        3.76086397265405       -0.00134292309670
B           -5.81394824843171       -1.24660345125958       -0.00106561518578
74
 energy: -124.277249543905 gnorm: 0.001385744469 xtb: 6.7.1pre (5071a88)
C           -3.58180774238283        4.88942443630268        0.00219290252717
C           -5.65456673522949        3.70027128383551        0.00198799836127
C           -0.66340997560970        4.87920650908364       -0.00053220052774
C           -4.96681034867083        4.89060426624848        0.00266443471306
C           -2.84488461415879        3.70442429826249        0.00106840937197
C           -4.95523274988882        2.48826298955962        0.00109613552061
C            4.95612183284539        5.01928438342569       -0.00148497444625
C            0.69964682488134        4.87824356939344       -0.00106351339679
C            0.69146948985857       -4.86954360394860        0.00236605619101
C            2.87325069899448        3.68305346606136       -0.00097442799933
C            4.99733384112372        2.44441298257032       -0.00093688907818
C           -3.57694426465122       -2.48962136911886       -0.00086151269007
C           -1.41674974630391       -3.68886466791485        0.00037669154474
C           -1.40403436289057        3.68892856707160        0.00025304983217
C            0.71578439182075        2.46299328995374       -0.00033662681765
C            2.82863585107257        1.23364340067743       -0.00039280883569
C           -5.64524761603931       -3.76855032348530       -0.00258376740071
C            4.94951251504538       -0.00207354249923       -0.00024536634336
C           -3.56485006190407       -4.91678137916684       -0.00224713954864
C           -3.53857684221673        2.47162738284865        0.00076900502334
C            4.96503655577174       -2.42728385863231        0.00049980034297
C           -1.42145891920157        1.22743422904201        0.00012636724770
C            0.69894426668519       -0.00078023587403       -0.00000136902258
C            2.82213852090905       -1.21865862424063        0.00029419515814
C           -5.64001348994045        1.25699758443270        0.00045562679873
C            2.86032199544632       -3.67899197870686        0.00112123977519
C           -3.55928036396818        0.01045938946624       -0.00008981778341
C            4.99946134830738       -4.83235564487830        0.00109135730462
C           -1.45022685511593       -1.22697305846999       -0.00008840619944
C            0.69726287854694       -2.45784261506080        0.00059900551072
C            3.60603406397948        4.92202110094419       -0.00129720680841
C           -4.99487268230412        0.04842670785049       -0.00018081689204
C            3.61084098228806       -4.85230361176077        0.00123642725616
C           -2.86625264971788       -1.22992301875263       -0.00029415792698
C           -0.72389858654419       -2.45993852413694        0.00024217857643
C            1.41430026163161       -3.67503574353087        0.00131263645320
C            1.44162251800207        3.68421459396273       -0.00077198660556
C            3.55534446127784        2.46107304452024       -0.00076740459379
C           -4.99611180915575       -2.53844940864733       -0.00155838778025
C            5.63725309969751        1.23814227243202       -0.00068906148596
C           -2.85856264926018       -3.70508263618445       -0.00085659766581
C           -0.67598056683214       -4.87506326448060        0.00190634421594
C           -0.70639637168189        2.46585932015060        0.00004856500089
C            1.41193398664080        1.22884809212112       -0.00024462179335
C            3.52173677675425        0.00506617804405       -0.00011688772480
C           -4.93891061153175       -4.95733260535209       -0.00312117295044
C            5.63830518283153       -1.19649967726955        0.00004820828466
C           -2.84041023779664        1.23042713663598        0.00023454502974
C            5.67545444125090       -3.63863518136213        0.00077693388546
C           -0.73054966615583        0.00043891256633       -0.00000012023546
C            1.40197433417855       -1.21884013124664        0.00026410255688
C            3.54278627138373       -2.44004767719930        0.00064453378982
H           -6.73461447469713        3.68349997547556        0.00221094124413
H            1.20241546899857       -5.81815637902759        0.00358500206603
H           -6.72534901717048       -3.78416974144953       -0.00308728784865
H           -3.03574379868545       -5.85541299140777       -0.00282780160099
H           -6.72097405161486        1.27691471448597        0.00046834082804
H            5.54332497946684       -5.76568926509400        0.00121956958252
H            3.12581872191798       -5.81460463507374        0.00138359904541
H           -1.17127046271957       -5.83132279176974        0.00289172022969
H           -5.45491530511787       -5.90657094232632       -0.00418929623778
H           -3.08119308588215        5.84373882202074        0.00280527762707
H           -1.16798430106423        5.83134323921559       -0.00085022173278
H           -5.50035335372430        5.82983481527436        0.00352705444921
H            5.37425490207200        6.01939702535575       -0.00172280786589
H            1.19751118652830        5.83320817186710       -0.00172362014569
H            3.02966817170235        5.83600649144968       -0.00137364562606
H            6.71845376417702        1.21023918126129       -0.00082396570939
H            6.71941906829291       -1.19001781252985       -0.00007242433656
H            6.75523868122654       -3.61287754238530        0.00069344459711
H            6.97937816713653        3.75871618792034       -0.00153225812441
H           -6.98237593565040       -1.24138281568588       -0.00131975335033
B            5.80831931281387        3.76129889823820       -0.00136640949853
B           -5.81203851007886       -1.24639561135824       -0.00106496531206
74
 energy: -124.277251792528 gnorm: 0.000499348545 xtb: 6.7.1pre (5071a88)
C           -3.58073100091352        4.88978827139340        0.00218661375551
C           -5.65368066907902        3.70093304651727        0.00200652364294
C           -0.66340295838471        4.87962642100713       -0.00053262988710
C           -4.96576682823080        4.89132320127795        0.00266502316852
C           -2.84418628231793        3.70434807322101        0.00106922402926
C           -4.95473413449616        2.48843714852623        0.00111672826336
C            4.95469994196053        5.01999731460700       -0.00150173439614
C            0.69946400749272        4.87864369490339       -0.00107587858030
C            0.69142127776907       -4.87001484889748        0.00240797810201
C            2.87247883706498        3.68298260916617       -0.00098607183180
C            4.99689413477068        2.44464993164693       -0.00094425578449
C           -3.57635732327171       -2.48927576062028       -0.00086565325959
C           -1.41633010698753       -3.68893867127468        0.00038633176284
C           -1.40368153209134        3.68889779275322        0.00024894791355
C            0.71565595428609        2.46276588022304       -0.00035380658163
C            2.82856401103967        1.23362594458713       -0.00040819629764
C           -5.64429425648005       -3.76892212229466       -0.00260285143522
C            4.94933095898194       -0.00209618011197       -0.00024300128324
C           -3.56372869989442       -4.91703734432511       -0.00229336284896
C           -3.53803960060459        2.47148534602370        0.00077774714916
C            4.96456054267347       -2.42760232433312        0.00049381785239
C           -1.42129165146165        1.22744404868371        0.00011722266429
C            0.69893147677653       -0.00070097992478       -0.00001481231144
C            2.82186919636801       -1.21866948551224        0.00028877218681
C           -5.63989057582064        1.25721870156845        0.00048322730690
C            2.85959552046376       -3.67896678172116        0.00113106934424
C           -3.55914273968667        0.01045355038730       -0.00008231070504
C            4.99823376412513       -4.83329815686103        0.00108904293609
C           -1.44987051399563       -1.22691732616843       -0.00009365287279
C            0.69722057722166       -2.45770132521341        0.00060332364814
C            3.60449501573433        4.92240043768950       -0.00130237900370
C           -4.99445831055966        0.04841378754708       -0.00016250526589
C            3.60957289851767       -4.85283690241679        0.00124884880274
C           -2.86585242031073       -1.22982944414932       -0.00029281785594
C           -0.72377319380685       -2.45981012794575        0.00024382516762
C            1.41394650777810       -3.67506321837114        0.00132958505932
C            1.44117440417130        3.68413044801280       -0.00078734664565
C            3.55516059531963        2.46099798196964       -0.00078179417505
C           -4.99542262911114       -2.53838940995667       -0.00156317460666
C            5.63726300308510        1.23819313096686       -0.00068364400530
C           -2.85787518485279       -3.70499785177496       -0.00086904463114
C           -0.67583892744052       -4.87551822368286        0.00194963455214
C           -0.70634331884393        2.46560877715278        0.00003620486311
C            1.41190600320479        1.22877680897118       -0.00026217047378
C            3.52164138589015        0.00505755370816       -0.00012487458571
C           -4.93787427454288       -4.95784250846374       -0.00316611203419
C            5.63822902243472       -1.19690304999131        0.00004968078281
C           -2.84012058858044        1.23042754533481        0.00023782768593
C            5.67447613619475       -3.63958058771006        0.00076452249041
C           -0.73025436164208        0.00043765035202       -0.00001096331291
C            1.40192507573280       -1.21889297701438        0.00025800378544
C            3.54230930478542       -2.44002243005385        0.00064341367208
H           -6.73366303741560        3.68341274833421        0.00224112166952
H            1.20205806866825       -5.81856668759753        0.00364904741237
H           -6.72433583815725       -3.78422971452775       -0.00310029106834
H           -3.03423747825160       -5.85527554569884       -0.00290959836531
H           -6.72080138011520        1.27729135627959        0.00050799236705
H            5.54128645840705       -5.76708340808793        0.00121418452390
H            3.12396053201043       -5.81472729854614        0.00140654264346
H           -1.17034528186159       -5.83198029972643        0.00296932041907
H           -5.45323985650910       -5.90737634150886       -0.00425579844033
H           -3.07962938642937        5.84372846595354        0.00278728577088
H           -1.16764871992504        5.83170216031384       -0.00083805218882
H           -5.49849442632550        5.83098504603903        0.00352159526401
H            5.37238513209094        6.02035175369910       -0.00172292033716
H            1.19633209750134        5.83389440211331       -0.00174104134607
H            3.02791194232669        5.83602884193097       -0.00134685436008
H            6.71843116699235        1.20974093516668       -0.00079817254549
H            6.71929160842302       -1.19043982127824       -0.00006516001068
H            6.75419748588981       -3.61330957016787        0.00066838072580
H            6.97831591399972        3.76037242345546       -0.00154705493717
H           -6.98200533447118       -1.24138850036442       -0.00130352582760
B            5.80666985561541        3.76198933271929       -0.00135060834693
B           -5.81105999289916       -1.24644333790968       -0.00104448893838
