      -----------------------------------------------------------      
     |                   =====================                   |     
     |                           x T B                           |     
     |                   =====================                   |     
     |                         S. Grimme                         |     
     |          Mulliken Center for Theoretical Chemistry        |     
     |                    University of Bonn                     |     
      -----------------------------------------------------------      

   * xtb version 6.7.1pre (5071a88) compiled by 'Marcel@Raven' on 2024-07-23

   xtb is free software: you can redistribute it and/or modify it under
   the terms of the GNU Lesser General Public License as published by
   the Free Software Foundation, either version 3 of the License, or
   (at your option) any later version.
   
   xtb is distributed in the hope that it will be useful,
   but WITHOUT ANY WARRANTY; without even the implied warranty of
   MERCHANTABILITY or FITNESS FOR A PARTICULAR PURPOSE.  See the
   GNU Lesser General Public License for more details.
   
   Cite this work as:
   * C. Bannwarth, E. Caldeweyher, S. Ehlert, A. Hansen, P. Pracht,
     J. Seibert, S. Spicher, S. Grimme, WIREs Comput. Mol. Sci., 2020, 11,
     e01493. DOI: 10.1002/wcms.1493
   
   for GFN2-xTB:
   * C. Bannwarth, S. Ehlert and S. Grimme., J. Chem. Theory Comput., 2019,
     15, 1652-1671. DOI: 10.1021/acs.jctc.8b01176
   for GFN1-xTB:
   * S. Grimme, C. Bannwarth, P. Shushkov, J. Chem. Theory Comput., 2017,
     13, 1989-2009. DOI: 10.1021/acs.jctc.7b00118
   for GFN0-xTB:
   * P. Pracht, E. Caldeweyher, S. Ehlert, S. Grimme, ChemRxiv, 2019, preprint.
     DOI: 10.26434/chemrxiv.8326202.v1
   for GFN-FF:
   * S. Spicher and S. Grimme, Angew. Chem. Int. Ed., 2020, 59, 15665-15673.
     DOI: 10.1002/anie.202004239
   
   for ALPB and GBSA implicit solvation:
   * S. Ehlert, M. Stahn, S. Spicher, S. Grimme, J. Chem. Theory Comput.,
     2021, 17, 4250-4261. DOI: 10.1021/acs.jctc.1c00471
   
   for ddCOSMO and CPCM-X implicit solvation:
   * M. Stahn, S. Ehlert, S. Grimme, J. Phys. Chem. A,
     2023, XX, XXXX-XXXX. DOI: 10.1021/acs.jpca.3c04382
   
   for DFT-D4:
   * E. Caldeweyher, C. Bannwarth and S. Grimme, J. Chem. Phys., 2017,
     147, 034112. DOI: 10.1063/1.4993215
   * E. Caldeweyher, S. Ehlert, A. Hansen, H. Neugebauer, S. Spicher,
     C. Bannwarth and S. Grimme, J. Chem. Phys., 2019, 150, 154122.
     DOI: 10.1063/1.5090222
   * E. Caldeweyher, J.-M. Mewes, S. Ehlert and S. Grimme, Phys. Chem. Chem. Phys.
     2020, 22, 8499-8512. DOI: 10.1039/D0CP00502A
   
   for sTDA-xTB:
   * S. Grimme and C. Bannwarth, J. Chem. Phys., 2016, 145, 054103.
     DOI: 10.1063/1.4959605
   
   in the mass-spec context:
   * V. Asgeirsson, C. Bauer and S. Grimme, Chem. Sci., 2017, 8, 4879.
     DOI: 10.1039/c7sc00601b
   * J. Koopman and S. Grimme, ACS Omega 2019, 4, 12, 15120-15133.
     DOI: 10.1021/acsomega.9b02011
   
   for metadynamics refer to:
   * S. Grimme, J. Chem. Theory Comput., 2019, 155, 2847-2862
     DOI: 10.1021/acs.jctc.9b00143
   
   for SPH calculations refer to:
   * S. Spicher and S. Grimme, J. Chem. Theory Comput., 2021, 17, 1701-1714
     DOI: 10.1021/acs.jctc.0c01306
   
   for ONIOM refer to:
   * C. Plett, A. Katbashev, S. Ehlert, S. Grimme, M. Bursch,
     Phys. Chem. Chem. Phys., 2023, 25, 17860-17868. DOI: 10.1039/D3CP02178E
   
   for DIPRO refer to:
   * J. Kohn, N. Gildemeister, S. Grimme, D. Fazzi, A. Hansen,
     J. Chem. Phys., 2023, just accepted.
   
   for PTB refer to:
   * S. Grimme, M. Mueller, A. Hansen, J. Chem. Phys., 2023, 158, 124111.
     DOI: 10.1063/5.0137838
   
   with help from (in alphabetical order)
   P. Atkinson, C. Bannwarth, F. Bohle, G. Brandenburg, E. Caldeweyher
   M. Checinski, S. Dohm, S. Ehlert, S. Ehrlich, I. Gerasimov, C. Hölzer
   A. Katbashev, J. Kohn, J. Koopman, C. Lavigne, S. Lehtola, F. März, M. Müller,
   F. Musil, H. Neugebauer, J. Pisarek, C. Plett, P. Pracht, F. Pultar,
   J. Seibert, P. Shushkov, S. Spicher, M. Stahn, M. Steiner, T. Strunk,
   J. Stückrath, T. Rose, and J. Unsleber
   
 * started run on 2025/12/08 at 00:31:09.643     
   ID    Z sym.   atoms
    1    6 C      1-92, 112, 113
    2    1 H      93-111, 114-118
    3   16 S      119-128

           -------------------------------------------------
          |                Calculation Setup                |
           -------------------------------------------------

          program call               : xtb "C:\Users\LENOVO GAMING\Documents\GitHub\molecular-conductivity-sim\dataset\1.5nm-10Sdoped-7percent.xyz" --opt --parallel 4
          coordinate file            : C:\Users\LENOVO GAMING\Documents\GitHub\molecular-conductivity-sim\dataset\1.5nm-10Sdoped-7percent.xyz
          omp threads                :                     4


           -------------------------------------------------
          |                 G F N 2 - x T B                 |
           -------------------------------------------------

        Reference                      10.1021/acs.jctc.8b01176
      * Hamiltonian:
        H0-scaling (s, p, d)           1.850000    2.230000    2.230000
        zeta-weighting                 0.500000
      * Dispersion:
        s8                             2.700000
        a1                             0.520000
        a2                             5.000000
        s9                             5.000000
      * Repulsion:
        kExp                           1.500000    1.000000
        rExp                           1.000000
      * Coulomb:
        alpha                          2.000000
        third order                    shell-resolved
        anisotropic                    true
        a3                             3.000000
        a5                             4.000000
        cn-shift                       1.200000
        cn-exp                         4.000000
        max-rad                        5.000000


          ...................................................
          :                      SETUP                      :
          :.................................................:
          :  # basis functions                 500          :
          :  # atomic orbitals                 490          :
          :  # shells                          242          :
          :  # electrons                       460          :
          :  max. iterations                   250          :
          :  Hamiltonian                  GFN2-xTB          :
          :  restarted?                      false          :
          :  GBSA solvation                  false          :
          :  PC potential                    false          :
          :  electronic temp.          300.0000000     K    :
          :  accuracy                    1.0000000          :
          :  -> integral cutoff          0.2500000E+02      :
          :  -> integral neglect         0.1000000E-07      :
          :  -> SCF convergence          0.1000000E-05 Eh   :
          :  -> wf. convergence          0.1000000E-03 e    :
          :  Broyden damping             0.4000000          :
          :  net charge                          0          :
          :  unpaired electrons                  0          :
          ...................................................

 iter      E             dE          RMSdq      gap      omega  full diag
   1   -250.0105436 -0.250011E+03  0.507E+00    0.68       0.0  T
   2   -249.5001577  0.510386E+00  0.355E+00    0.41       1.0  T
   3   -239.5997972  0.990036E+01  0.454E+00    0.01       1.0  T
   4   -241.4089874 -0.180919E+01  0.398E+00    0.14       1.0  T
   5   -249.7365883 -0.832760E+01  0.141E+00    0.24       1.0  T
   6   -250.0829219 -0.346334E+00  0.909E-01    0.13       1.0  T
   7   -250.1861351 -0.103213E+00  0.718E-01    0.27       1.0  T
   8   -250.2013304 -0.151953E-01  0.554E-01    0.23       1.0  T
   9   -250.2055420 -0.421164E-02  0.375E-01    0.22       1.0  T
  10   -250.2094238 -0.388177E-02  0.347E-01    0.14       1.0  T
  11   -250.2281077 -0.186839E-01  0.767E-02    0.15       1.0  T
  12   -250.2253935  0.271419E-02  0.152E-01    0.14       1.0  T
  13   -250.2284745 -0.308102E-02  0.412E-02    0.15       1.0  T
  14   -250.2285632 -0.886863E-04  0.162E-02    0.15       1.0  T
  15   -250.2285618  0.143124E-05  0.224E-02    0.15       1.0  T
  16   -250.2285985 -0.367572E-04  0.115E-02    0.15       1.0  T
  17   -250.2286085 -0.997176E-05  0.664E-03    0.15       1.3  T
  18   -250.2286121 -0.364373E-05  0.355E-03    0.15       2.5  T
  19   -250.2286135 -0.131971E-05  0.150E-03    0.15       5.9  T
  20   -250.2286134  0.784620E-07  0.124E-03    0.15       7.1  T
  21   -250.2286136 -0.244273E-06  0.287E-04    0.15      30.8  T
  22   -250.2286136  0.431558E-08  0.392E-04    0.15      22.6  T

   *** convergence criteria satisfied after 22 iterations ***

         #    Occupation            Energy/Eh            Energy/eV
      -------------------------------------------------------------
         1        2.0000           -0.7520109             -20.4633
       ...           ...                  ...                  ...
       224        2.0000           -0.3626997              -9.8696
       225        2.0000           -0.3564337              -9.6991
       226        2.0000           -0.3561103              -9.6903
       227        2.0000           -0.3486362              -9.4869
       228        2.0000           -0.3450155              -9.3883
       229        2.0000           -0.3442053              -9.3663
       230        1.8936           -0.3254967              -8.8572 (HOMO)
       231        0.1064           -0.3200256              -8.7083 (LUMO)
       232                         -0.3064911              -8.3400
       233                         -0.2962802              -8.0622
       234                         -0.2935644              -7.9883
       235                         -0.2917035              -7.9377
       ...                                ...                  ...
       490                          0.7204013              19.6031
      -------------------------------------------------------------
                  HL-Gap            0.0054711 Eh            0.1489 eV
             Fermi-level           -0.3227612 Eh           -8.7828 eV

 SCC (total)                   0 d,  0 h,  0 min,  2.020 sec
 SCC setup                      ...        0 min,  0.003 sec (  0.149%)
 Dispersion                     ...        0 min,  0.007 sec (  0.347%)
 classical contributions        ...        0 min,  0.001 sec (  0.050%)
 integral evaluation            ...        0 min,  0.055 sec (  2.723%)
 iterations                     ...        0 min,  1.754 sec ( 86.832%)
 molecular gradient             ...        0 min,  0.193 sec (  9.554%)
 printout                       ...        0 min,  0.007 sec (  0.347%)

         :::::::::::::::::::::::::::::::::::::::::::::::::::::
         ::                     SUMMARY                     ::
         :::::::::::::::::::::::::::::::::::::::::::::::::::::
         :: total energy            -246.302314871664 Eh    ::
         :: gradient norm              0.062457188990 Eh/a0 ::
         :: HOMO-LUMO gap              0.148875255258 eV    ::
         ::.................................................::
         :: SCC energy              -250.233348985566 Eh    ::
         :: -> isotropic ES            0.008506377497 Eh    ::
         :: -> anisotropic ES          0.005279773224 Eh    ::
         :: -> anisotropic XC          0.096345791974 Eh    ::
         :: -> dispersion             -0.311314472388 Eh    ::
         :: repulsion energy           3.931034113902 Eh    ::
         :: add. restraining           0.000000000000 Eh    ::
         :: total charge              -0.000000000000 e     ::
         :::::::::::::::::::::::::::::::::::::::::::::::::::::

      ----------------------------------------------------------- 
     |                   =====================                   |
     |                        A N C O P T                        |
     |                   =====================                   |
     |               Approximate Normal Coordinate               |
     |                Rational Function Optimizer                |
      ----------------------------------------------------------- 
      ----------------------------------------------------------- 
     |                   =====================                   |
     |                        A N C O P T                        |
     |                   =====================                   |
     |               Approximate Normal Coordinate               |
     |                Rational Function Optimizer                |
      ----------------------------------------------------------- 

          ...................................................
          :                      SETUP                      :
          :.................................................:
          :   optimization level            normal          :
          :   max. optcycles                   384          :
          :   ANC micro-cycles                  20          :
          :   degrees of freedom               378          :
          :.................................................:
          :   RF solver                   davidson          :
          :   write xtbopt.log                true          :
          :   linear?                        false          :
          :   energy convergence         0.5000000E-05 Eh   :
          :   grad. convergence          0.1000000E-02 Eh/α :
          :   maxmium RF displ.          1.0000000          :
          :   Hlow (freq-cutoff)         0.1000000E-01      :
          :   Hmax (freq-cutoff)         5.0000000          :
          :   S6 in model hess.         20.0000000          :
          ...................................................

generating ANC from exact Hessian ...
Using Lindh-Hessian (1995)
 Shifting diagonal of input Hessian by   9.864002849320822E-003
 Lowest  eigenvalues of input Hessian
    0.000000    0.000000    0.000000    0.000000    0.000000    0.000000
    0.010000    0.010111    0.010193    0.010421    0.010501    0.011106
    0.011286    0.011484    0.011634    0.012021    0.012665    0.013099
 Highest eigenvalues
    2.013379    2.024445    2.040197    2.063964    2.088945    2.089419
 

........................................................................
.............................. CYCLE    1 ..............................
........................................................................

 iter      E             dE          RMSdq      gap      omega  full diag
   1   -250.2286136 -0.250229E+03  0.139E-04    0.15       0.0  T
   2   -250.2286131  0.581434E-06  0.153E-03    0.15       5.8  T
   3   -250.2286136 -0.581515E-06  0.125E-04    0.15      71.0  T
   4   -250.2286136 -0.347464E-08  0.469E-05    0.15     188.7  T
     SCC iter.                  ...        0 min,  0.308 sec
     gradient                   ...        0 min,  0.193 sec
 * total energy  :  -246.3023149 Eh     change       -0.2590730E-07 Eh
   gradient norm :     0.0624651 Eh/α   predicted     0.0000000E+00 (-100.00%)
   displ. norm   :     0.5686525 α      lambda       -0.2474589E-01
   maximum displ.:     0.1662874 α      in ANC's #62, #44, #51, ...

........................................................................
.............................. CYCLE    2 ..............................
........................................................................

 iter      E             dE          RMSdq      gap      omega  full diag
   1   -250.3691319 -0.250369E+03  0.223E-01    0.14       0.0  T
   2   -250.3020576  0.670744E-01  0.543E-01    0.52       1.0  T
   3   -250.3699121 -0.678545E-01  0.142E-01    0.14       1.0  T
   4   -250.3573473  0.125648E-01  0.252E-01    0.20       1.0  T
   5   -250.3737258 -0.163785E-01  0.418E-02    0.16       1.0  T
   6   -250.3734530  0.272813E-03  0.502E-02    0.15       1.0  T
   7   -250.3739637 -0.510644E-03  0.172E-02    0.15       1.0  T
   8   -250.3740040 -0.403158E-04  0.828E-03    0.15       1.1  T
   9   -250.3740178 -0.137874E-04  0.253E-03    0.15       3.5  T
  10   -250.3740187 -0.929775E-06  0.130E-03    0.15       6.8  T
  11   -250.3740187  0.242194E-07  0.114E-03    0.15       7.8  T
  12   -250.3740188 -0.101927E-06  0.957E-04    0.15       9.2  T
  13   -250.3740190 -0.205556E-06  0.163E-04    0.15      54.3  T
     SCC iter.                  ...        0 min,  1.135 sec
     gradient                   ...        0 min,  0.198 sec
 * total energy  :  -246.3203009 Eh     change       -0.1798600E-01 Eh
   gradient norm :     0.0295086 Eh/α   predicted    -0.1637433E-01 (  -8.96%)
   displ. norm   :     0.5822302 α      lambda       -0.1178928E-01
   maximum displ.:     0.1738898 α      in ANC's #44, #36, #45, ...

........................................................................
.............................. CYCLE    3 ..............................
........................................................................

 iter      E             dE          RMSdq      gap      omega  full diag
   1   -250.4936958 -0.250494E+03  0.207E-01    0.14       0.0  T
   2   -250.4197164  0.739794E-01  0.569E-01    0.56       1.0  T
   3   -250.4976618 -0.779454E-01  0.127E-01    0.17       1.0  T
   4   -250.4983815 -0.719763E-03  0.800E-02    0.15       1.0  T
   5   -250.4923867  0.599481E-02  0.166E-01    0.14       1.0  T
   6   -250.4991573 -0.677057E-02  0.347E-02    0.16       1.0  T
   7   -250.4994239 -0.266638E-03  0.796E-03    0.15       1.1  T
   8   -250.4994224  0.151171E-05  0.706E-03    0.15       1.3  T
   9   -250.4994321 -0.968623E-05  0.254E-03    0.15       3.5  T
  10   -250.4994330 -0.852585E-06  0.162E-03    0.15       5.5  T
  11   -250.4994335 -0.525591E-06  0.464E-04    0.15      19.0  T
  12   -250.4994335 -0.132598E-07  0.254E-04    0.15      34.8  T
     SCC iter.                  ...        0 min,  0.944 sec
     gradient                   ...        0 min,  0.204 sec
 * total energy  :  -246.3278105 Eh     change       -0.7509584E-02 Eh
   gradient norm :     0.0155310 Eh/α   predicted    -0.7892883E-02 (   5.10%)
   displ. norm   :     0.3694515 α      lambda       -0.2981647E-02
   maximum displ.:     0.1033912 α      in ANC's #36, #44, #34, ...

........................................................................
.............................. CYCLE    4 ..............................
........................................................................

 iter      E             dE          RMSdq      gap      omega  full diag
   1   -250.5472183 -0.250547E+03  0.106E-01    0.15       0.0  T
   2   -250.5074675  0.397507E-01  0.407E-01    0.31       1.0  T
   3   -250.5479758 -0.405083E-01  0.504E-02    0.15       1.0  T
   4   -250.5454048  0.257105E-02  0.102E-01    0.17       1.0  T
   5   -250.5482233 -0.281850E-02  0.159E-02    0.15       1.0  T
   6   -250.5482025  0.207748E-04  0.164E-02    0.15       1.0  T
   7   -250.5482638 -0.612751E-04  0.323E-03    0.15       2.7  T
   8   -250.5482641 -0.345999E-06  0.206E-03    0.15       4.3  T
   9   -250.5482647 -0.528336E-06  0.846E-04    0.15      10.5  T
  10   -250.5482646  0.830601E-07  0.953E-04    0.15       9.3  T
     SCC iter.                  ...        0 min,  0.825 sec
     gradient                   ...        0 min,  0.200 sec
 * total energy  :  -246.3293955 Eh     change       -0.1585027E-02 Eh
   gradient norm :     0.0094427 Eh/α   predicted    -0.1694311E-02 (   6.89%)
   displ. norm   :     0.2267537 α      lambda       -0.8429002E-03
   maximum displ.:     0.0665257 α      in ANC's #15, #12, #14, ...

........................................................................
.............................. CYCLE    5 ..............................
........................................................................

 iter      E             dE          RMSdq      gap      omega  full diag
   1   -250.5600242 -0.250560E+03  0.536E-02    0.15       0.0  T
   2   -250.5592956  0.728597E-03  0.627E-02    0.16       1.0  T
   3   -250.5466868  0.126088E-01  0.231E-01    0.14       1.0  T
   4   -250.5598372 -0.131503E-01  0.343E-02    0.15       1.0  T
   5   -250.5600000 -0.162817E-03  0.147E-02    0.15       1.0  T
   6   -250.5600397 -0.397175E-04  0.747E-03    0.15       1.2  T
   7   -250.5600481 -0.837015E-05  0.368E-03    0.15       2.4  T
   8   -250.5600510 -0.288241E-05  0.114E-03    0.15       7.8  T
   9   -250.5600511 -0.134928E-06  0.620E-04    0.15      14.3  T
  10   -250.5600512 -0.706593E-07  0.227E-04    0.15      38.9  T
     SCC iter.                  ...        0 min,  0.793 sec
     gradient                   ...        0 min,  0.186 sec
 * total energy  :  -246.3297927 Eh     change       -0.3972175E-03 Eh
   gradient norm :     0.0061084 Eh/α   predicted    -0.4431215E-03 (  11.56%)
   displ. norm   :     0.1263356 α      lambda       -0.2674321E-03
   maximum displ.:     0.0451834 α      in ANC's #12, #15, #14, ...

........................................................................
.............................. CYCLE    6 ..............................
........................................................................

 iter      E             dE          RMSdq      gap      omega  full diag
   1   -250.5571809 -0.250557E+03  0.306E-02    0.15       0.0  T
   2   -250.5571829 -0.192925E-05  0.172E-02    0.15       1.0  T
   3   -250.5568535  0.329403E-03  0.365E-02    0.15       1.0  T
   4   -250.5566928  0.160692E-03  0.448E-02    0.16       1.0  T
   5   -250.5571808 -0.488004E-03  0.567E-03    0.15       1.6  T
   6   -250.5571834 -0.259643E-05  0.349E-03    0.15       2.5  T
   7   -250.5571860 -0.262552E-05  0.123E-03    0.15       7.2  T
   8   -250.5571863 -0.304525E-06  0.443E-04    0.15      20.0  T
   9   -250.5571863 -0.200332E-07  0.270E-04    0.15      32.7  T
     SCC iter.                  ...        0 min,  0.705 sec
     gradient                   ...        0 min,  0.201 sec
 * total energy  :  -246.3299636 Eh     change       -0.1708386E-03 Eh
   gradient norm :     0.0034356 Eh/α   predicted    -0.1358505E-03 ( -20.48%)
   displ. norm   :     0.1697311 α      lambda       -0.2106550E-03
   maximum displ.:     0.0639873 α      in ANC's #12, #15, #7, ...

........................................................................
.............................. CYCLE    7 ..............................
........................................................................

 iter      E             dE          RMSdq      gap      omega  full diag
   1   -250.5523173 -0.250552E+03  0.384E-02    0.15       0.0  T
   2   -250.5491338  0.318348E-02  0.116E-01    0.14       1.0  T
   3   -250.5515076 -0.237373E-02  0.604E-02    0.16       1.0  T
   4   -250.5522615 -0.753981E-03  0.175E-02    0.15       1.0  T
   5   -250.5523313 -0.697301E-04  0.569E-03    0.15       1.6  T
   6   -250.5523381 -0.677403E-05  0.262E-03    0.15       3.4  T
   7   -250.5523392 -0.111915E-05  0.103E-03    0.15       8.6  T
   8   -250.5523392 -0.726374E-07  0.563E-04    0.15      15.7  T
   9   -250.5523393 -0.538345E-07  0.214E-04    0.15      41.3  T
     SCC iter.                  ...        0 min,  0.708 sec
     gradient                   ...        0 min,  0.202 sec
 * total energy  :  -246.3300907 Eh     change       -0.1271808E-03 Eh
   gradient norm :     0.0035827 Eh/α   predicted    -0.1083630E-03 ( -14.80%)
   displ. norm   :     0.1439709 α      lambda       -0.9926377E-04
   maximum displ.:     0.0529602 α      in ANC's #7, #14, #9, ...

........................................................................
.............................. CYCLE    8 ..............................
........................................................................

 iter      E             dE          RMSdq      gap      omega  full diag
   1   -250.5523472 -0.250552E+03  0.299E-02    0.15       0.0  T
   2   -250.5517094  0.637776E-03  0.534E-02    0.16       1.0  T
   3   -250.5506159  0.109351E-02  0.845E-02    0.15       1.0  T
   4   -250.5523174 -0.170157E-02  0.127E-02    0.15       1.0  T
   5   -250.5523517 -0.342573E-04  0.318E-03    0.15       2.8  T
   6   -250.5523512  0.461072E-06  0.303E-03    0.15       2.9  T
   7   -250.5523534 -0.215302E-05  0.897E-04    0.15       9.9  T
   8   -250.5523535 -0.143010E-06  0.392E-04    0.15      22.5  T
   9   -250.5523536 -0.221756E-07  0.209E-04    0.15      42.2  T
     SCC iter.                  ...        0 min,  0.714 sec
     gradient                   ...        0 min,  0.194 sec
 * total energy  :  -246.3301588 Eh     change       -0.6801249E-04 Eh
   gradient norm :     0.0033131 Eh/α   predicted    -0.5066420E-04 ( -25.51%)
   displ. norm   :     0.1849302 α      lambda       -0.9967153E-04
   maximum displ.:     0.0672868 α      in ANC's #7, #12, #6, ...

........................................................................
.............................. CYCLE    9 ..............................
........................................................................

 iter      E             dE          RMSdq      gap      omega  full diag
   1   -250.5546041 -0.250555E+03  0.373E-02    0.15       0.0  T
   2   -250.5527062  0.189783E-02  0.901E-02    0.17       1.0  T
   3   -250.5531781 -0.471890E-03  0.779E-02    0.15       1.0  T
   4   -250.5544783 -0.130018E-02  0.237E-02    0.15       1.0  T
   5   -250.5546089 -0.130561E-03  0.778E-03    0.15       1.1  T
   6   -250.5546179 -0.899184E-05  0.383E-03    0.15       2.3  T
   7   -250.5546207 -0.278993E-05  0.164E-03    0.15       5.4  T
   8   -250.5546213 -0.684190E-06  0.337E-04    0.15      26.2  T
   9   -250.5546213 -0.440664E-08  0.248E-04    0.15      35.6  T
     SCC iter.                  ...        0 min,  0.708 sec
     gradient                   ...        0 min,  0.191 sec
 * total energy  :  -246.3302189 Eh     change       -0.6018268E-04 Eh
   gradient norm :     0.0026417 Eh/α   predicted    -0.5154079E-04 ( -14.36%)
   displ. norm   :     0.1043726 α      lambda       -0.4515006E-04
   maximum displ.:     0.0398556 α      in ANC's #7, #3, #8, ...

........................................................................
.............................. CYCLE   10 ..............................
........................................................................

 iter      E             dE          RMSdq      gap      omega  full diag
   1   -250.5559911 -0.250556E+03  0.196E-02    0.15       0.0  T
   2   -250.5552537  0.737481E-03  0.559E-02    0.16       1.0  T
   3   -250.5557373 -0.483692E-03  0.334E-02    0.15       1.0  T
   4   -250.5559417 -0.204332E-03  0.144E-02    0.15       1.0  T
   5   -250.5559953 -0.536158E-04  0.342E-03    0.15       2.6  T
   6   -250.5559966 -0.131231E-05  0.197E-03    0.15       4.5  T
   7   -250.5559974 -0.758286E-06  0.733E-04    0.15      12.1  T
   8   -250.5559974 -0.824621E-07  0.417E-04    0.15      21.2  T
     SCC iter.                  ...        0 min,  0.618 sec
     gradient                   ...        0 min,  0.188 sec
 * total energy  :  -246.3302518 Eh     change       -0.3285879E-04 Eh
   gradient norm :     0.0020243 Eh/α   predicted    -0.2282471E-04 ( -30.54%)
   displ. norm   :     0.1319985 α      lambda       -0.4519938E-04
   maximum displ.:     0.0531881 α      in ANC's #3, #7, #8, ...

........................................................................
.............................. CYCLE   11 ..............................
........................................................................

 iter      E             dE          RMSdq      gap      omega  full diag
   1   -250.5562952 -0.250556E+03  0.224E-02    0.15       0.0  T
   2   -250.5560196  0.275598E-03  0.360E-02    0.16       1.0  T
   3   -250.5551327  0.886860E-03  0.688E-02    0.15       1.0  T
   4   -250.5562416 -0.110887E-02  0.143E-02    0.15       1.0  T
   5   -250.5562956 -0.539684E-04  0.373E-03    0.15       2.4  T
   6   -250.5562969 -0.131107E-05  0.237E-03    0.15       3.7  T
   7   -250.5562981 -0.116666E-05  0.672E-04    0.15      13.1  T
   8   -250.5562981 -0.567402E-07  0.408E-04    0.15      21.7  T
   9   -250.5562982 -0.365351E-07  0.110E-04    0.15      80.2  T
     SCC iter.                  ...        0 min,  0.701 sec
     gradient                   ...        0 min,  0.198 sec
 * total energy  :  -246.3302852 Eh     change       -0.3337679E-04 Eh
   gradient norm :     0.0020981 Eh/α   predicted    -0.2299577E-04 ( -31.10%)
   displ. norm   :     0.1492567 α      lambda       -0.3957400E-04
   maximum displ.:     0.0651770 α      in ANC's #3, #11, #7, ...

........................................................................
.............................. CYCLE   12 ..............................
........................................................................

 iter      E             dE          RMSdq      gap      omega  full diag
   1   -250.5555673 -0.250556E+03  0.241E-02    0.15       0.0  T
   2   -250.5555578  0.947632E-05  0.151E-02    0.15       1.0  T
   3   -250.5524265  0.313132E-02  0.111E-01    0.17       1.0  T
   4   -250.5555609 -0.313442E-02  0.644E-03    0.15       1.4  T
   5   -250.5555676 -0.671923E-05  0.204E-03    0.15       4.3  T
   6   -250.5555672  0.457127E-06  0.212E-03    0.15       4.2  T
   7   -250.5555682 -0.100536E-05  0.804E-04    0.15      11.0  T
   8   -250.5555683 -0.109955E-06  0.402E-04    0.15      22.0  T
   9   -250.5555683 -0.357021E-07  0.899E-05    0.15      98.3  T
     SCC iter.                  ...        0 min,  0.722 sec
     gradient                   ...        0 min,  0.191 sec
 * total energy  :  -246.3303141 Eh     change       -0.2889834E-04 Eh
   gradient norm :     0.0022788 Eh/α   predicted    -0.2023265E-04 ( -29.99%)
   displ. norm   :     0.1348015 α      lambda       -0.2874316E-04
   maximum displ.:     0.0637904 α      in ANC's #3, #11, #7, ...

........................................................................
.............................. CYCLE   13 ..............................
........................................................................

 iter      E             dE          RMSdq      gap      omega  full diag
   1   -250.5547440 -0.250555E+03  0.217E-02    0.15       0.0  T
   2   -250.5545964  0.147565E-03  0.273E-02    0.15       1.0  T
   3   -250.5532532  0.134321E-02  0.776E-02    0.16       1.0  T
   4   -250.5547368 -0.148360E-02  0.746E-03    0.15       1.2  T
   5   -250.5547439 -0.712944E-05  0.279E-03    0.15       3.2  T
   6   -250.5547453 -0.137438E-05  0.138E-03    0.15       6.4  T
   7   -250.5547456 -0.353199E-06  0.559E-04    0.15      15.8  T
   8   -250.5547457 -0.316339E-07  0.411E-04    0.15      21.5  T
     SCC iter.                  ...        0 min,  0.610 sec
     gradient                   ...        0 min,  0.207 sec
 * total energy  :  -246.3303344 Eh     change       -0.2035730E-04 Eh
   gradient norm :     0.0018123 Eh/α   predicted    -0.1463753E-04 ( -28.10%)
   displ. norm   :     0.1294461 α      lambda       -0.1540606E-04
   maximum displ.:     0.0699200 α      in ANC's #3, #11, #2, ...

........................................................................
.............................. CYCLE   14 ..............................
........................................................................

 iter      E             dE          RMSdq      gap      omega  full diag
   1   -250.5543891 -0.250554E+03  0.207E-02    0.15       0.0  T
   2   -250.5542561  0.132936E-03  0.261E-02    0.15       1.0  T
   3   -250.5530441  0.121199E-02  0.737E-02    0.16       1.0  T
   4   -250.5543629 -0.131880E-02  0.114E-02    0.15       1.0  T
   5   -250.5543886 -0.256383E-04  0.306E-03    0.15       2.9  T
   6   -250.5543906 -0.202328E-05  0.131E-03    0.15       6.7  T
   7   -250.5543909 -0.280556E-06  0.605E-04    0.15      14.6  T
   8   -250.5543909 -0.638685E-07  0.299E-04    0.15      29.5  T
     SCC iter.                  ...        0 min,  0.672 sec
     gradient                   ...        0 min,  0.197 sec
 * total energy  :  -246.3303471 Eh     change       -0.1267666E-04 Eh
   gradient norm :     0.0009627 Eh/α   predicted    -0.7765082E-05 ( -38.75%)
   displ. norm   :     0.0268796 α      lambda       -0.4235857E-05
   maximum displ.:     0.0162847 α      in ANC's #3, #8, #16, ...

........................................................................
.............................. CYCLE   15 ..............................
........................................................................

 iter      E             dE          RMSdq      gap      omega  full diag
   1   -250.5548222 -0.250555E+03  0.456E-03    0.15       0.0  T
   2   -250.5548056  0.165779E-04  0.847E-03    0.15       1.0  T
   3   -250.5547879  0.176996E-04  0.120E-02    0.15       1.0  T
   4   -250.5548200 -0.320730E-04  0.304E-03    0.15       2.9  T
   5   -250.5548223 -0.231949E-05  0.710E-04    0.15      12.5  T
   6   -250.5548224 -0.778344E-07  0.370E-04    0.15      23.9  T
   7   -250.5548224 -0.239241E-07  0.127E-04    0.15      69.7  T
     SCC iter.                  ...        0 min,  0.555 sec
     gradient                   ...        0 min,  0.194 sec
 * total energy  :  -246.3303522 Eh     change       -0.5088042E-05 Eh
   gradient norm :     0.0005786 Eh/α   predicted    -0.2119088E-05 ( -58.35%)
   displ. norm   :     0.0546150 α      lambda       -0.5814788E-05
   maximum displ.:     0.0314342 α      in ANC's #3, #8, #10, ...

........................................................................
.............................. CYCLE   16 ..............................
........................................................................

 iter      E             dE          RMSdq      gap      omega  full diag
   1   -250.5553098 -0.250555E+03  0.865E-03    0.15       0.0  T
   2   -250.5551164  0.193454E-03  0.281E-02    0.16       1.0  T
   3   -250.5552821 -0.165739E-03  0.117E-02    0.15       1.0  T
   4   -250.5553059 -0.237884E-04  0.470E-03    0.15       1.9  T
   5   -250.5553111 -0.515423E-05  0.122E-03    0.15       7.3  T
   6   -250.5553113 -0.277456E-06  0.575E-04    0.15      15.4  T
   7   -250.5553114 -0.527477E-07  0.171E-04    0.15      51.7  T
     SCC iter.                  ...        0 min,  0.504 sec
     gradient                   ...        0 min,  0.188 sec
 * total energy  :  -246.3303585 Eh     change       -0.6295503E-05 Eh
   gradient norm :     0.0007244 Eh/α   predicted    -0.2915113E-05 ( -53.70%)
   displ. norm   :     0.0553612 α      lambda       -0.3955872E-05
   maximum displ.:     0.0363893 α      in ANC's #3, #8, #10, ...

........................................................................
.............................. CYCLE   17 ..............................
........................................................................

 iter      E             dE          RMSdq      gap      omega  full diag
   1   -250.5552753 -0.250555E+03  0.824E-03    0.15       0.0  T
   2   -250.5550006  0.274676E-03  0.334E-02    0.16       1.0  T
   3   -250.5552631 -0.262481E-03  0.863E-03    0.15       1.0  T
   4   -250.5552748 -0.116614E-04  0.343E-03    0.15       2.6  T
   5   -250.5552771 -0.229135E-05  0.108E-03    0.15       8.2  T
   6   -250.5552773 -0.217299E-06  0.571E-04    0.15      15.5  T
   7   -250.5552773 -0.517780E-07  0.218E-04    0.15      40.6  T
     SCC iter.                  ...        0 min,  0.557 sec
     gradient                   ...        0 min,  0.200 sec
 * total energy  :  -246.3303630 Eh     change       -0.4461865E-05 Eh
   gradient norm :     0.0007682 Eh/α   predicted    -0.1983344E-05 ( -55.55%)
   displ. norm   :     0.0563447 α      lambda       -0.3614135E-05
   maximum displ.:     0.0377482 α      in ANC's #3, #8, #10, ...

   *** GEOMETRY OPTIMIZATION CONVERGED AFTER 17 ITERATIONS ***

------------------------------------------------------------------------
 total energy gain   :        -0.0280481 Eh      -17.6004 kcal/mol
 total RMSD          :         0.1816618 a0        0.0961 Å
 total power (kW/mol):        -4.3317778 (step)   -4.4878 (real)
------------------------------------------------------------------------

 ANCopt (total)                0 d,  0 h,  0 min, 16.409 sec
 optimizer setup                ...        0 min,  0.003 sec (  0.018%)
 model hessian                  ...        0 min,  0.114 sec (  0.695%)
 ANC generation                 ...        0 min,  0.032 sec (  0.195%)
 coordinate transformation      ...        0 min,  0.003 sec (  0.018%)
 single point calculation       ...        0 min, 16.215 sec ( 98.818%)
 optimization log               ...        0 min,  0.025 sec (  0.152%)
 hessian update                 ...        0 min,  0.006 sec (  0.037%)
 rational function              ...        0 min,  0.007 sec (  0.043%)

================
 final structure:
================
128
 xtb: 6.7.1pre (5071a88)
C           -3.03845065576880       -7.05846511411153        0.71169062115512
C            1.16318074994670       -7.22552186254496        0.82756279080121
C           -0.90036796104411       -5.86689737567893        1.03548121839854
C            3.29207383849252       -6.14405417870757        0.42299103916452
C            1.25689642408600       -4.80852801499519        0.57237746845167
C           -1.77439857615319       -7.01487272370296        1.17532000942289
C           -3.75438904166895       -6.04212020202110       -0.01839013938499
C            2.50298698149732       -7.30289942667679        0.63933704128689
C            0.49300596474228       -5.98009014159017        0.81250268264112
C           -1.48283663862010       -4.61102979944784        0.97656124405303
C            7.52471531956820       -6.48354598904270       -0.38141337373832
C            5.47693485759245       -5.08333133494386        0.01289764608756
C            3.43943658552636       -3.70296680748992        0.23488733349447
C            5.58903349494496       -2.56271106862008        0.11676934167561
C            7.72882342307780       -1.36803404742771        0.11328775400726
C            6.94348145553622       -7.69111595277262       -0.28087897866611
C            4.66789672283985       -6.22848657567679        0.17694610264078
C            2.65973995668861       -4.87668375795394        0.41464700600613
C            0.60668777389906       -3.56078670156958        0.39774505841074
C            6.85502648181157       -5.24569969023503       -0.22374033043061
C            4.84255911110766       -3.78280267780210        0.09986988107059
C            2.77785539570372       -2.43774933155936        0.14781660576483
C            6.99881077072403       -2.52399161874625        0.01300703803035
C            4.92946472183624       -1.30243516917199        0.27963170423301
C            7.10095496515750       -0.16692441592520        0.45513850485694
C           -7.53898790269259       -6.90671884111258        0.42921156626583
C           -5.08675301109945       -5.83542755700312        0.09035314523027
C           -7.13564267325909       -4.79038177321991       -0.70642354348572
C           -5.03964895907327       -3.45420202674034       -0.61848647109089
C           -7.08950817323413       -2.07714426512755       -0.92140561810879
C           -0.79915440298063       -3.49323260637861        0.48709338956158
C           -2.87939873624587       -2.30635995997095       -0.29083627391801
C           -4.95089567651639       -1.00467050282427       -0.56987797009165
C           -7.00954398425033        0.33139813609507       -0.80209993462274
C           -7.92629832405888       -5.95532294977566       -0.42775534914719
C           -5.78955104443241       -4.69800620543111       -0.48055828060808
C           -3.65330285144215       -3.45796701942479       -0.59231909162339
C           -5.71217544793748       -2.19879424252291       -0.67019736954081
C           -7.72672042543359       -0.85272769450456       -0.92270412195227
C            1.35751914130891       -2.39192554561502        0.16057095872082
C           -7.07131514339743        2.77860898758192       -0.55126741188125
C           -0.74821563673151       -1.12594612431354        0.01140444848600
C           -2.81925724033421        0.15643310073424       -0.21262265100781
C            5.85473258108983        4.77012384977686       -0.57380424726501
C           -4.80371559367598        1.41605242225835       -0.72706024509999
C            3.79418557808725        6.06685452588711       -0.21703860661005
C            3.51296860563152       -1.24468517001714        0.06044615400295
C           -4.74395309218989        3.88735753848837        0.75719445005689
C            1.40772810411879        0.03294838237506       -0.08124717858028
C           -6.91312584038775        5.03156904813031        0.58356088112365
C           -0.66605227612296        1.31919812213524       -0.09319640086557
C            7.86004774152387        5.94722985465871       -1.31760716902345
C           -2.73944065098701        2.59924825389130        0.07247557516599
C            5.71930254970196       -0.18295768474962        0.63260581797822
C           -2.64649326576876        5.02427996310971        0.47091794280539
C            3.47666354080415        1.16925436257943       -0.54770635967690
C           -4.72691882440115        6.27694390162669        0.72411814763286
C            1.49477509479802        2.48306703728199       -0.13972492486391
C           -7.15436642261285        7.39967388395659        1.18372893258284
C           -0.57281345287519        3.75614070869846        0.15441270875734
C            7.83957644341268        1.04917850021962        0.41286251247660
C           -0.48952425874557        6.18054366785488        0.43892026696121
C            5.85538629133624        2.50536320653838        0.34498964242241
C           -2.53539987035549        7.43369016447599        0.77526495712494
C            3.67951406102340        3.62565491851142       -0.21838201752249
C            1.59851675308639        4.92689580715672        0.06876143772576
C           -1.49507014462234       -2.32033755650946        0.06164307474576
C            7.24048088357666        2.25532065718932        0.17357631992298
C           -1.18392004753805        7.39756548695439        0.66683566776667
C           -3.55011880600616       -1.05168556269346       -0.35654563606010
C            5.13758414631190        3.58153492614962       -0.14932131502211
C           -5.58532860470421        0.25424373650250       -0.73552287337762
C            3.02263312384830        4.85161686737601       -0.12123978002315
C           -7.67308015296972        1.56300706644914       -0.50648873385600
C            0.91186389416432        6.12121775811723        0.32818260267982
C            0.67011265669919       -1.16065311097609        0.06392800879990
C           -1.41225495697339        0.11942061964834       -0.09926217372624
C            7.23351170423213        4.80916629895973       -0.82789307100096
C           -3.47744267028589        1.41762741285048       -0.27954312733636
C            5.15728411143248        5.98595472508273       -0.71062245587488
C            3.32885939830922        7.28168959107356        0.16090308094918
C            2.81625250815026       -0.01691331059454       -0.20525864769510
C           -5.45795969041979        5.08810017500697        0.71360188047608
C            0.74326893859649        1.28134809297693       -0.13235387831442
C           -7.66779827330179        6.17390933471465        1.02635508242787
C           -1.33738861062598        2.55958530559853        0.03710962994174
C            7.12194311654094        7.08202467516392       -1.58622937505082
C           -3.38172073627613        3.81977562788716        0.45128353660723
C           -3.31651293241558        6.25545315730727        0.67718074179965
C            2.89301833745722        2.42450476790926       -0.32776140815285
C            0.83337450930173        3.72539198694112        0.03000105624937
C           -1.23781759486569        4.98815494347739        0.33229636702908
H           -3.62830274412117       -7.94592996639256        0.91568567037154
H            0.59836229688355       -8.12960221310316        0.98754164701451
H           -1.38835460106456       -7.89724445262899        1.66454220075939
H            2.98540867955699       -8.26798294448813        0.65898869958577
H            8.58341351362636       -6.42938016492616       -0.59449533553171
H            8.79517475900262       -1.39060256955250       -0.05121725911335
H            7.47795209146274       -8.61683849865850       -0.40535732595661
H           -8.17512690460481       -7.71961309451305        0.73612838509251
H           -8.91693443554303       -5.98724138424524       -0.85641764862308
H           -8.80063955747081       -0.81869526679308       -1.03200412735321
H            8.92239408936785        5.91541092468912       -1.50440970552984
H           -7.75125340641147        8.24716421797877        1.47819846057239
H            8.90811679421366        0.97509165555071        0.27645521169076
H           -3.03783727889607        8.37529814660337        0.93921966095444
H           -0.61977751200077        8.31465615865920        0.74484007914070
H           -8.66384389069924        1.48709692047044       -0.07724931194716
H            3.96245231783099        8.15269883210436        0.17839725163886
H           -8.72615818033696        6.03275510659194        1.19976500039141
H            7.59464882537172        7.94833443593446       -2.02183332336643
C           -7.58948523322075        3.96352359962505        0.05750981671394
C            5.77988774189046        7.10238290380239       -1.26801631443617
H           -8.67195629912272        3.99911704375621        0.11738156779086
H            5.20392076010134        7.99103289168556       -1.47053362343845
H            4.45070566228921        1.10985418189346       -1.00952359177990
H           -2.49203883233507       -4.48353992338203        1.33947452901008
H           -5.26626677236042        2.99047510898260        1.05281070190167
S           -5.51326271765518        7.84394365375582        0.84402165958953
S            1.73652872390720        7.63771365739356        0.65535711539848
S            8.28891929073146        3.43710682710175       -0.59459088413576
S            5.08225099819527        1.28598248887615        1.40529089739868
S            7.96720984118072       -3.92836095660797       -0.36078838887870
S            5.27676370241770       -7.89063091320119        0.08004083476132
S           -2.89966675904698       -4.97160740258446       -1.15871874117160
S           -5.97673388876071       -6.93003519354514        1.17601421229637
S           -8.09631220475674       -3.46418593154270       -1.31331612572318
S           -5.53731340344224        2.85345025127179       -1.46028143691927
 
 Bond Distances (Angstroems)
 ---------------------------
C1-C6=1.3471         C1-C7=1.4417         C1-H93=1.0850        C2-C8=1.3552         C2-C9=1.4144         C2-H94=1.0779        
C3-C6=1.4496         C3-C9=1.4156         C3-C10=1.3856        C4-C8=1.4186         C4-C17=1.4002        C4-C18=1.4164        
C5-C9=1.4191         C5-C18=1.4133        C5-C19=1.4178        C6-C1=1.3471         C6-C3=1.4496         C6-H95=1.0803        
C7-C1=1.4417         C7-C27=1.3527        C7-S125=1.7824       C8-C2=1.3552         C8-C4=1.4186         C8-H96=1.0791        
C9-C2=1.4144         C9-C3=1.4156         C9-C5=1.4191         C10-C3=1.3856        C10-C31=1.3987       C10-H117=1.0800      
C11-C16=1.3439       C11-C20=1.4162       C11-H97=1.0813       C12-C17=1.4117       C12-C20=1.4077       C12-C21=1.4496       
C13-C18=1.4205       C13-C21=1.4119       C13-C22=1.4304       C14-C21=1.4304       C14-C23=1.4141       C14-C24=1.4317       
C15-C23=1.3708       C15-C25=1.3978       C15-H98=1.0792       C16-C11=1.3439       C16-H99=1.0762       C16-S124=1.7170      
C17-C4=1.4002        C17-C12=1.4117       C17-S124=1.7728      C18-C4=1.4164        C18-C5=1.4133        C18-C13=1.4205       
C19-C5=1.4178        C19-C31=1.4103       C19-C40=1.4093       C20-C11=1.4162       C20-C12=1.4077       C20-S123=1.7295      
C21-C12=1.4496       C21-C13=1.4119       C21-C14=1.4304       C22-C13=1.4304       C22-C40=1.4211       C22-C47=1.4041       
C23-C14=1.4141       C23-C15=1.3708       C23-S123=1.7464      C24-C14=1.4317       C24-C47=1.4345       C24-C54=1.4148       
C25-C15=1.3978       C25-C54=1.3931       C25-C61=1.4235       C26-C35=1.3377       C26-H100=1.0769      C26-S126=1.7317      
C27-C7=1.3527        C27-C36=1.4538       C27-S126=1.7801      C28-C35=1.4352       C28-C36=1.3680       C28-S127=1.7464      
C29-C36=1.4589       C29-C37=1.3866       C29-C38=1.4251       C30-C38=1.4053       C30-C39=1.3803       C30-S127=1.7582      
C31-C10=1.3987       C31-C19=1.4103       C31-C67=1.4286       C32-C37=1.4199       C32-C67=1.4286       C32-C70=1.4242       
C33-C38=1.4197       C33-C70=1.4177       C33-C72=1.4194       C34-C39=1.3896       C34-C72=1.4279       C34-C74=1.4299       
C35-C26=1.3377       C35-C28=1.4352       C35-H101=1.0799      C36-C27=1.4538       C36-C28=1.3680       C36-C29=1.4589       
C37-C29=1.3866       C37-C32=1.4199       C37-S125=1.7832      C38-C29=1.4251       C38-C30=1.4053       C38-C33=1.4197       
C39-C30=1.3803       C39-C34=1.3896       C39-H102=1.0800      C40-C19=1.4093       C40-C22=1.4211       C40-C76=1.4135       
C41-C74=1.3571       C41-C112=1.4294      C41-S128=1.7847      C42-C67=1.4096       C42-C76=1.4197       C42-C77=1.4157       
C43-C70=1.4193       C43-C77=1.4120       C43-C79=1.4242       C44-C71=1.4516       C44-C78=1.4025       C44-C80=1.4083       
C45-C72=1.4003       C45-C79=1.3997       C45-S128=1.7725      C46-C73=1.4427       C46-C80=1.4520       C46-C81=1.3547       
C47-C22=1.4041       C47-C24=1.4345       C47-C82=1.4365       C48-C83=1.3977       C48-C88=1.3978       C48-H118=1.0792      
C49-C76=1.4106       C49-C82=1.4149       C49-C84=1.4151       C50-C83=1.4621       C50-C85=1.4389       C50-C112=1.3693      
C51-C77=1.4129       C51-C84=1.4104       C51-C86=1.4164       C52-C78=1.3884       C52-C87=1.3801       C52-H103=1.0791      
C53-C79=1.4369       C53-C86=1.4031       C53-C88=1.4303       C54-C24=1.4148       C54-C25=1.3931       C54-S122=1.7778      
C55-C88=1.4113       C55-C89=1.4168       C55-C92=1.4159       C56-C82=1.4001       C56-C90=1.4017       C56-H116=1.0796      
C57-C83=1.3957       C57-C89=1.4114       C57-S119=1.7573      C58-C84=1.4174       C58-C90=1.4120       C58-C91=1.4176       
C59-C85=1.3382       C59-H104=1.0776      C59-S119=1.7338      C60-C86=1.4248       C60-C91=1.4120       C60-C92=1.4113       
C61-C25=1.4235       C61-C68=1.3678       C61-H105=1.0798      C62-C69=1.4196       C62-C75=1.4070       C62-C92=1.4118       
C63-C68=1.4179       C63-C71=1.3848       C63-S122=1.7913      C64-C69=1.3563       C64-C89=1.4170       C64-H106=1.0798      
C65-C71=1.4604       C65-C73=1.3942       C65-C90=1.4399       C66-C73=1.4387       C66-C75=1.4019       C66-C91=1.4250       
C67-C31=1.4286       C67-C32=1.4286       C67-C42=1.4096       C68-C61=1.3678       C68-C63=1.4179       C68-S121=1.7567      
C69-C62=1.4196       C69-C64=1.3563       C69-H107=1.0795      C70-C32=1.4242       C70-C33=1.4177       C70-C43=1.4193       
C71-C44=1.4516       C71-C63=1.3848       C71-C65=1.4604       C72-C33=1.4194       C72-C34=1.4279       C72-C45=1.4003       
C73-C46=1.4427       C73-C65=1.3942       C73-C66=1.4387       C74-C34=1.4299       C74-C41=1.3571       C74-H108=1.0824      
C75-C62=1.4070       C75-C66=1.4019       C75-S120=1.7570      C76-C40=1.4135       C76-C42=1.4197       C76-C49=1.4106       
C77-C42=1.4157       C77-C43=1.4120       C77-C51=1.4129       C78-C44=1.4025       C78-C52=1.3884       C78-S121=1.7467      
C79-C43=1.4242       C79-C45=1.3997       C79-C53=1.4369       C80-C44=1.4083       C80-C46=1.4520       C80-C113=1.3945      
C81-C46=1.3547       C81-H109=1.0772      C81-S120=1.7049      C82-C47=1.4365       C82-C49=1.4149       C82-C56=1.4001       
C83-C48=1.3977       C83-C50=1.4621       C83-C57=1.3957       C84-C49=1.4151       C84-C51=1.4104       C84-C58=1.4174       
C85-C50=1.4389       C85-C59=1.3382       C85-H110=1.0817      C86-C51=1.4164       C86-C53=1.4031       C86-C60=1.4248       
C87-C52=1.3801       C87-H111=1.0787      C87-C113=1.3794      C88-C48=1.3978       C88-C53=1.4303       C88-C55=1.4113       
C89-C55=1.4168       C89-C57=1.4114       C89-C64=1.4170       C90-C56=1.4017       C90-C58=1.4120       C90-C65=1.4399       
C91-C58=1.4176       C91-C60=1.4120       C91-C66=1.4250       C92-C55=1.4159       C92-C60=1.4113       C92-C62=1.4118       
H93-C1=1.0850        H94-C2=1.0779        H95-C6=1.0803        H96-C8=1.0791        H97-C11=1.0813       H98-C15=1.0792       
H99-C16=1.0762       H100-C26=1.0769      H101-C35=1.0799      H102-C39=1.0800      H103-C52=1.0791      H104-C59=1.0776      
H105-C61=1.0798      H106-C64=1.0798      H107-C69=1.0795      H108-C74=1.0824      H109-C81=1.0772      H110-C85=1.0817      
H111-C87=1.0787      C112-C41=1.4294      C112-C50=1.3693      C112-H114=1.0847     C113-C80=1.3945      C113-C87=1.3794      
C113-H115=1.0782     H114-C112=1.0847     H115-C113=1.0782     H116-C56=1.0796      H117-C10=1.0800      H118-C48=1.0792      
S119-C57=1.7573      S119-C59=1.7338      S120-C75=1.7570      S120-C81=1.7049      S121-C68=1.7567      S121-C78=1.7467      
S122-C54=1.7778      S122-C63=1.7913      S123-C20=1.7295      S123-C23=1.7464      S124-C16=1.7170      S124-C17=1.7728      
S125-C7=1.7824       S125-C37=1.7832      S126-C26=1.7317      S126-C27=1.7801      S127-C28=1.7464      S127-C30=1.7582      
S128-C41=1.7847      S128-C45=1.7725      
 C  H  Rav=1.0797 sigma=0.0021  Rmin=1.0762  Rmax=1.0850    24
 C  C  Rav=1.4100 sigma=0.0256  Rmin=1.3377  Rmax=1.4621   119
 S  C  Rav=1.7565 sigma=0.0238  Rmin=1.7049  Rmax=1.7913    20
 
 selected bond angles (degree)
 --------------------
C7-C1-C6=128.13                H93-C1-C6=118.16               H93-C1-C7=113.70               C9-C2-C8=121.15                
H94-C2-C8=119.39               H94-C2-C9=119.46               C9-C3-C6=123.05                C10-C3-C6=117.93               
C10-C3-C9=118.65               C17-C4-C8=121.61               C18-C4-C8=118.92               C18-C4-C17=119.45              
C18-C5-C9=120.89               C19-C5-C9=120.04               C19-C5-C18=118.94              C3-C6-C1=123.93                
H95-C6-C1=117.70               H95-C6-C3=118.36               C27-C7-C1=123.79               S125-C7-C1=120.61              
S125-C7-C27=115.59             C4-C8-C2=121.63                H96-C8-C2=119.37               H96-C8-C4=118.99               
C3-C9-C2=122.35                C5-C9-C2=118.28                C5-C9-C3=119.37                C31-C10-C3=122.26              
H117-C10-C3=119.05             H117-C10-C31=118.68            
 
 selected dihedral angles (degree)
 ---------------------------------
C3-C6-C1-C7=  1.71            C3-C6-C1-H93=183.30           H95-C6-C1-C7=182.82           H95-C6-C1-H93=  4.41          
C1-C6-C3-C9=216.04            C1-C6-C3-C10= 28.99           H95-C6-C3-C9= 34.92           H95-C6-C3-C10=207.87          
C27-C7-C1-C6=213.00           C27-C7-C1-H93= 31.47          S125-C7-C1-C6= 33.63          S125-C7-C1-H93=212.09         
C4-C8-C2-C9=  0.16            C4-C8-C2-H94=179.92           H96-C8-C2-C9=179.84           H96-C8-C2-H94=359.59          
C2-C8-C4-C17=182.52           C2-C8-C4-C18=  0.48           H96-C8-C4-C17=  2.84          H96-C8-C4-C18=180.80          
C3-C9-C2-C8=181.43            C3-C9-C2-H94=  1.68           C5-C9-C2-C8=  1.03            C5-C9-C2-H94=181.28           
C2-C9-C3-C6=354.20            C2-C9-C3-C10=181.30           C5-C9-C3-C6=174.60            C5-C9-C3-C10=  1.70           
C2-C9-C5-C18=357.08           C2-C9-C5-C19=172.82           C3-C9-C5-C18=176.70           C3-C9-C5-C19=352.44           
C31-C10-C3-C6=197.81          C31-C10-C3-C9= 11.08          H117-C10-C3-C6= 19.13         H117-C10-C3-C9=192.39         
           -------------------------------------------------
          |                Final Singlepoint                |
           -------------------------------------------------

          ...................................................
          :                      SETUP                      :
          :.................................................:
          :  # basis functions                 500          :
          :  # atomic orbitals                 490          :
          :  # shells                          242          :
          :  # electrons                       460          :
          :  max. iterations                   250          :
          :  Hamiltonian                  GFN2-xTB          :
          :  restarted?                      false          :
          :  GBSA solvation                  false          :
          :  PC potential                    false          :
          :  electronic temp.          300.0000000     K    :
          :  accuracy                    1.0000000          :
          :  -> integral cutoff          0.2500000E+02      :
          :  -> integral neglect         0.1000000E-07      :
          :  -> SCF convergence          0.1000000E-05 Eh   :
          :  -> wf. convergence          0.1000000E-03 e    :
          :  Broyden damping             0.4000000          :
          :  net charge                          0          :
          :  unpaired electrons                  0          :
          ...................................................

 iter      E             dE          RMSdq      gap      omega  full diag
   1   -250.5552773 -0.250555E+03  0.961E-05    0.15       0.0  T
   2   -250.5552772  0.100543E-06  0.636E-04    0.15      13.9  T
   3   -250.5552773 -0.898403E-07  0.225E-04    0.15      39.2  T

   *** convergence criteria satisfied after 3 iterations ***

         #    Occupation            Energy/Eh            Energy/eV
      -------------------------------------------------------------
         1        2.0000           -0.7489280             -20.3794
       ...           ...                  ...                  ...
       224        2.0000           -0.3612600              -9.8304
       225        2.0000           -0.3551387              -9.6638
       226        2.0000           -0.3543618              -9.6427
       227        2.0000           -0.3479827              -9.4691
       228        2.0000           -0.3448016              -9.3825
       229        2.0000           -0.3430536              -9.3350
       230        1.9013           -0.3249375              -8.8420 (HOMO)
       231        0.0987           -0.3193173              -8.6891 (LUMO)
       232                         -0.3060500              -8.3280
       233                         -0.2952525              -8.0342
       234                         -0.2931341              -7.9766
       235                         -0.2902770              -7.8988
       ...                                ...                  ...
       490                          0.7609609              20.7068
      -------------------------------------------------------------
                  HL-Gap            0.0056202 Eh            0.1529 eV
             Fermi-level           -0.3221274 Eh           -8.7655 eV

 SCC (total)                   0 d,  0 h,  0 min,  0.510 sec
 SCC setup                      ...        0 min,  0.001 sec (  0.196%)
 Dispersion                     ...        0 min,  0.004 sec (  0.784%)
 classical contributions        ...        0 min,  0.001 sec (  0.196%)
 integral evaluation            ...        0 min,  0.057 sec ( 11.177%)
 iterations                     ...        0 min,  0.249 sec ( 48.823%)
 molecular gradient             ...        0 min,  0.190 sec ( 37.255%)
 printout                       ...        0 min,  0.008 sec (  1.569%)

         :::::::::::::::::::::::::::::::::::::::::::::::::::::
         ::                     SUMMARY                     ::
         :::::::::::::::::::::::::::::::::::::::::::::::::::::
         :: total energy            -246.330362948112 Eh    ::
         :: gradient norm              0.000768633139 Eh/a0 ::
         :: HOMO-LUMO gap              0.152933615821 eV    ::
         ::.................................................::
         :: SCC energy              -250.560293286072 Eh    ::
         :: -> isotropic ES            0.008021787913 Eh    ::
         :: -> anisotropic ES          0.004793563744 Eh    ::
         :: -> anisotropic XC          0.090490816527 Eh    ::
         :: -> dispersion             -0.317254333124 Eh    ::
         :: repulsion energy           4.229930337960 Eh    ::
         :: add. restraining           0.000000000000 Eh    ::
         :: total charge              -0.000000000000 e     ::
         :::::::::::::::::::::::::::::::::::::::::::::::::::::

           -------------------------------------------------
          |                Property Printout                |
           -------------------------------------------------

    * Orbital Energies and Occupations

         #    Occupation            Energy/Eh            Energy/eV
      -------------------------------------------------------------
         1        2.0000           -0.7489280             -20.3794
       ...           ...                  ...                  ...
       218        2.0000           -0.3895937             -10.6014
       219        2.0000           -0.3859929             -10.5034
       220        2.0000           -0.3785221             -10.3001
       221        2.0000           -0.3747837             -10.1984
       222        2.0000           -0.3709016             -10.0927
       223        2.0000           -0.3620901              -9.8530
       224        2.0000           -0.3612600              -9.8304
       225        2.0000           -0.3551387              -9.6638
       226        2.0000           -0.3543618              -9.6427
       227        2.0000           -0.3479827              -9.4691
       228        2.0000           -0.3448016              -9.3825
       229        2.0000           -0.3430536              -9.3350
       230        1.9013           -0.3249375              -8.8420 (HOMO)
       231        0.0987           -0.3193173              -8.6891 (LUMO)
       232                         -0.3060500              -8.3280
       233                         -0.2952525              -8.0342
       234                         -0.2931341              -7.9766
       235                         -0.2902770              -7.8988
       236                         -0.2794838              -7.6051
       237                         -0.2750431              -7.4843
       238                         -0.2670485              -7.2668
       239                         -0.2639124              -7.1814
       240                         -0.2623425              -7.1387
       241                         -0.2583301              -7.0295
       ...                                ...                  ...
       490                          0.7609609              20.7068
      -------------------------------------------------------------
                  HL-Gap            0.0056202 Eh            0.1529 eV
             Fermi-level           -0.3221274 Eh           -8.7655 eV

     #   Z          covCN         q      C6AA      α(0)
     1   6 C        2.923    -0.040    29.001     8.831
     2   6 C        2.915    -0.031    28.763     8.794
     3   6 C        2.970     0.009    27.818     8.651
     4   6 C        3.060    -0.001    27.996     8.677
     5   6 C        2.992     0.001    27.987     8.678
     6   6 C        2.903    -0.033    28.824     8.803
     7   6 C        3.017     0.030    27.313     8.573
     8   6 C        2.925    -0.040    28.987     8.829
     9   6 C        2.986     0.009    27.807     8.650
    10   6 C        3.083    -0.024    28.502     8.752
    11   6 C        3.099    -0.041    28.884     8.807
    12   6 C        3.010     0.005    27.887     8.662
    13   6 C        2.984    -0.001    28.047     8.687
    14   6 C        3.005    -0.001    28.038     8.686
    15   6 C        3.047    -0.056    29.346     8.885
    16   6 C        2.890    -0.005    28.155     8.699
    17   6 C        2.969     0.025    27.449     8.594
    18   6 C        2.991     0.004    27.917     8.667
    19   6 C        2.998     0.002    27.977     8.677
    20   6 C        2.958     0.037    27.171     8.550
    21   6 C        2.973    -0.001    28.057     8.689
    22   6 C        2.987     0.002    27.974     8.676
    23   6 C        2.968     0.037    27.172     8.550
    24   6 C        2.995    -0.001    28.030     8.685
    25   6 C        3.059     0.015    27.618     8.618
    26   6 C        2.891     0.005    27.920     8.663
    27   6 C        3.039     0.023    27.463     8.595
    28   6 C        2.960     0.047    26.938     8.513
    29   6 C        3.043    -0.002    28.032     8.684
    30   6 C        2.965     0.036    27.194     8.554
    31   6 C        2.986     0.008    27.842     8.656
    32   6 C        2.993    -0.004    28.125     8.699
    33   6 C        2.993    -0.004    28.114     8.698
    34   6 C        2.977     0.011    27.760     8.642
    35   6 C        3.044    -0.045    29.062     8.842
    36   6 C        3.029    -0.001    28.023     8.683
    37   6 C        2.967     0.030    27.333     8.576
    38   6 C        3.011    -0.000    28.017     8.683
    39   6 C        3.000    -0.049    29.213     8.866
    40   6 C        2.990    -0.003    28.097     8.695
    41   6 C        2.942     0.047    26.953     8.515
    42   6 C        2.994     0.002    27.978     8.677
    43   6 C        2.994    -0.000    28.020     8.683
    44   6 C        3.011     0.002    27.969     8.675
    45   6 C        2.970     0.028    27.382     8.583
    46   6 C        3.012     0.001    27.980     8.677
    47   6 C        2.976    -0.001    28.038     8.686
    48   6 C        3.100    -0.030    28.626     8.768
    49   6 C        2.998     0.002    27.960     8.674
    50   6 C        2.959     0.015    27.673     8.629
    51   6 C        2.992    -0.002    28.065     8.690
    52   6 C        3.013    -0.041    29.004     8.834
    53   6 C        2.979    -0.004    28.123     8.699
    54   6 C        2.971     0.020    27.554     8.610
    55   6 C        3.000     0.004    27.916     8.667
    56   6 C        3.141    -0.030    28.500     8.736
    57   6 C        2.970     0.036    27.197     8.554
    58   6 C        2.993     0.001    28.002     8.680
    59   6 C        2.888    -0.003    28.089     8.689
    60   6 C        2.988    -0.002    28.070     8.691
    61   6 C        3.024    -0.064    29.562     8.919
    62   6 C        3.057    -0.001    27.991     8.676
    63   6 C        2.983     0.025    27.446     8.594
    64   6 C        2.917    -0.032    28.786     8.798
    65   6 C        2.973    -0.007    28.188     8.709
    66   6 C        3.001     0.001    27.984     8.678
    67   6 C        2.980    -0.001    28.044     8.687
    68   6 C        3.028     0.044    26.991     8.522
    69   6 C        2.920    -0.038    28.954     8.824
    70   6 C        2.990    -0.001    28.053     8.688
    71   6 C        2.991     0.003    27.959     8.674
    72   6 C        3.045    -0.004    28.079     8.691
    73   6 C        2.977     0.007    27.850     8.657
    74   6 C        2.985    -0.051    29.263     8.874
    75   6 C        2.967     0.028    27.382     8.583
    76   6 C        2.991     0.000    28.010     8.682
    77   6 C        2.991    -0.001    28.050     8.688
    78   6 C        2.973     0.045    26.980     8.520
    79   6 C        3.005    -0.005    28.131     8.700
    80   6 C        2.999     0.005    27.905     8.665
    81   6 C        2.904    -0.008    28.224     8.711
    82   6 C        2.978     0.005    27.911     8.666
    83   6 C        3.003     0.006    27.884     8.662
    84   6 C        2.991    -0.002    28.064     8.690
    85   6 C        2.950    -0.042    29.041     8.839
    86   6 C        2.991     0.002    27.966     8.675
    87   6 C        2.917    -0.027    28.686     8.783
    88   6 C        2.981     0.002    27.967     8.675
    89   6 C        3.032    -0.001    28.027     8.684
    90   6 C        2.978     0.004    27.918     8.667
    91   6 C        2.991    -0.001    28.035     8.685
    92   6 C        2.995     0.004    27.918     8.667
    93   1 H        0.925     0.047     2.360     2.402
    94   1 H        0.926     0.040     2.453     2.449
    95   1 H        0.926     0.036     2.500     2.473
    96   1 H        0.926     0.045     2.382     2.413
    97   1 H        0.925     0.057     2.235     2.338
    98   1 H        0.926     0.045     2.381     2.413
    99   1 H        0.926     0.062     2.170     2.304
   100   1 H        0.926     0.060     2.193     2.316
   101   1 H        0.926     0.056     2.248     2.345
   102   1 H        0.926     0.041     2.435     2.440
   103   1 H        0.926     0.047     2.359     2.402
   104   1 H        0.926     0.048     2.339     2.392
   105   1 H        0.926     0.038     2.473     2.459
   106   1 H        0.926     0.046     2.376     2.411
   107   1 H        0.926     0.043     2.403     2.424
   108   1 H        0.925     0.038     2.469     2.457
   109   1 H        0.926     0.057     2.233     2.337
   110   1 H        0.925     0.040     2.453     2.449
   111   1 H        0.926     0.042     2.417     2.431
   112   6 C        2.937    -0.059    29.473     8.904
   113   6 C        2.924    -0.043    29.078     8.843
   114   1 H        0.925     0.036     2.509     2.477
   115   1 H        0.926     0.038     2.470     2.458
   116   1 H        0.926     0.031     2.572     2.508
   117   1 H        0.926     0.035     2.514     2.479
   118   1 H        0.926     0.040     2.452     2.449
   119  16 S        2.085    -0.074   144.130    20.206
   120  16 S        2.110    -0.036   142.524    20.093
   121  16 S        2.215    -0.092   144.887    20.259
   122  16 S        2.381    -0.123   146.216    20.352
   123  16 S        2.274    -0.056   143.393    20.154
   124  16 S        2.125    -0.030   142.303    20.077
   125  16 S        2.301    -0.145   147.179    20.419
   126  16 S        2.112    -0.078   144.318    20.219
   127  16 S        2.195    -0.087   144.660    20.243
   128  16 S        2.314    -0.136   146.782    20.391

 Mol. C6AA /au·bohr⁶  :     429198.158484
 Mol. C8AA /au·bohr⁸  :   13304273.118182
 Mol. α(0) /au        :       1077.254194


Wiberg/Mayer (AO) data.
largest (>0.10) Wiberg bond orders for each atom

 ---------------------------------------------------------------------------
     #   Z sym  total        # sym  WBO       # sym  WBO       # sym  WBO
 ---------------------------------------------------------------------------
     1   6 C    3.958 --     6 C    1.726     7 C    1.133    93 H    0.944
     2   6 C    3.970 --     8 C    1.604     9 C    1.242    94 H    0.963
     3   6 C    3.941 --    10 C    1.397     9 C    1.251     6 C    1.114
     4   6 C    3.969 --    17 C    1.311    18 C    1.230     8 C    1.228
     5   6 C    3.972 --    18 C    1.266     9 C    1.253    19 C    1.225
     6   6 C    3.959 --     1 C    1.726     3 C    1.114    95 H    0.959
     7   6 C    3.952 --    27 C    1.604     1 C    1.133   125 S    0.979
     8   6 C    3.953 --     2 C    1.604     4 C    1.228    96 H    0.951
     9   6 C    3.947 --     5 C    1.253     3 C    1.251     2 C    1.242
    10   6 C    3.936 --     3 C    1.397    31 C    1.301   117 H    0.959
    11   6 C    3.978 --    16 C    1.635    20 C    1.242    97 H    0.953
    12   6 C    3.972 --    20 C    1.296    17 C    1.292    21 C    1.168
    13   6 C    3.970 --    21 C    1.308    18 C    1.236    22 C    1.200
    14   6 C    3.944 --    23 C    1.252    24 C    1.239    21 C    1.229
    15   6 C    3.942 --    23 C    1.468    25 C    1.280    98 H    0.962
    16   6 C    3.839 --    11 C    1.635   124 S    1.143    99 H    0.961
    17   6 C    3.847 --     4 C    1.311    12 C    1.292   124 S    1.044
    18   6 C    3.949 --     5 C    1.266    13 C    1.236     4 C    1.230
    19   6 C    3.961 --    31 C    1.261    40 C    1.253     5 C    1.225
    20   6 C    3.787 --    12 C    1.296    11 C    1.242   123 S    1.119
    21   6 C    3.953 --    13 C    1.308    14 C    1.229    12 C    1.168
    22   6 C    3.972 --    47 C    1.321    40 C    1.227    13 C    1.200
    23   6 C    3.943 --    15 C    1.468    14 C    1.252   123 S    1.048
    24   6 C    3.965 --    54 C    1.291    14 C    1.239    47 C    1.193
    25   6 C    3.972 --    54 C    1.338    15 C    1.280    61 C    1.183
    26   6 C    3.939 --    35 C    1.722   126 S    1.122   100 H    0.960
    27   6 C    3.930 --     7 C    1.604    36 C    1.107   126 S    1.006
    28   6 C    3.927 --    36 C    1.507    35 C    1.156   127 S    1.077
    29   6 C    3.945 --    37 C    1.419    38 C    1.204    36 C    1.110
    30   6 C    3.883 --    39 C    1.415    38 C    1.278   127 S    1.035
    31   6 C    3.959 --    10 C    1.301    19 C    1.261    67 C    1.190
    32   6 C    3.941 --    37 C    1.253    70 C    1.234    67 C    1.227
    33   6 C    3.970 --    70 C    1.251    38 C    1.242    72 C    1.234
    34   6 C    3.916 --    39 C    1.361    72 C    1.202    74 C    1.187
    35   6 C    3.981 --    26 C    1.722    28 C    1.156   101 H    0.954
    36   6 C    3.975 --    28 C    1.507    29 C    1.110    27 C    1.107
    37   6 C    3.921 --    29 C    1.419    32 C    1.253   125 S    0.997
    38   6 C    3.965 --    30 C    1.278    33 C    1.242    29 C    1.204
    39   6 C    3.953 --    30 C    1.415    34 C    1.361   102 H    0.964
    40   6 C    3.950 --    19 C    1.253    76 C    1.251    22 C    1.227
    41   6 C    3.910 --    74 C    1.595   112 C    1.181   128 S    0.990
    42   6 C    3.964 --    67 C    1.282    76 C    1.233    77 C    1.230
    43   6 C    3.958 --    77 C    1.258    70 C    1.248    79 C    1.222
    44   6 C    3.981 --    78 C    1.314    80 C    1.292    71 C    1.129
    45   6 C    3.847 --    79 C    1.323    72 C    1.308   128 S    1.013
    46   6 C    3.979 --    81 C    1.579    73 C    1.136    80 C    1.088
    47   6 C    3.944 --    22 C    1.321    24 C    1.193    82 C    1.185
    48   6 C    3.903 --    83 C    1.336    88 C    1.325   118 H    0.958
    49   6 C    3.960 --    76 C    1.252    82 C    1.244    84 C    1.243
    50   6 C    3.940 --   112 C    1.557    85 C    1.148    83 C    1.083
    51   6 C    3.942 --    84 C    1.257    77 C    1.249    86 C    1.226
    52   6 C    3.975 --    87 C    1.428    78 C    1.393   103 H    0.966
    53   6 C    3.901 --    86 C    1.319    88 C    1.189    79 C    1.180
    54   6 C    3.905 --    25 C    1.338    24 C    1.291   122 S    1.011
    55   6 C    3.975 --    88 C    1.252    89 C    1.250    92 C    1.237
    56   6 C    3.891 --    82 C    1.328    90 C    1.324   116 H    0.959
    57   6 C    3.903 --    83 C    1.352    89 C    1.278   119 S    1.062
    58   6 C    3.953 --    90 C    1.263    84 C    1.240    91 C    1.230
    59   6 C    3.917 --    85 C    1.725   119 S    1.110   104 H    0.962
    60   6 C    3.968 --    91 C    1.276    92 C    1.257    86 C    1.206
    61   6 C    3.909 --    68 C    1.518    25 C    1.183   105 H    0.963
    62   6 C    3.960 --    75 C    1.289    92 C    1.248    69 C    1.229
    63   6 C    3.883 --    71 C    1.449    68 C    1.223   122 S    0.992
    64   6 C    3.965 --    69 C    1.608    89 C    1.235   106 H    0.958
    65   6 C    3.968 --    73 C    1.408    90 C    1.172    71 C    1.127
    66   6 C    3.965 --    75 C    1.336    91 C    1.224    73 C    1.186
    67   6 C    3.923 --    42 C    1.282    32 C    1.227    31 C    1.190
    68   6 C    3.941 --    61 C    1.518    63 C    1.223   121 S    1.041
    69   6 C    3.971 --    64 C    1.608    62 C    1.229   107 H    0.954
    70   6 C    3.974 --    33 C    1.251    43 C    1.248    32 C    1.234
    71   6 C    3.951 --    63 C    1.449    44 C    1.129    65 C    1.127
    72   6 C    3.970 --    45 C    1.308    33 C    1.234    34 C    1.202
    73   6 C    3.951 --    65 C    1.408    66 C    1.186    46 C    1.136
    74   6 C    3.925 --    41 C    1.595    34 C    1.187   108 H    0.952
    75   6 C    3.891 --    66 C    1.336    62 C    1.289   120 S    1.053
    76   6 C    3.957 --    49 C    1.252    40 C    1.251    42 C    1.233
    77   6 C    3.960 --    43 C    1.258    51 C    1.249    42 C    1.230
    78   6 C    3.955 --    52 C    1.393    44 C    1.314   121 S    1.066
    79   6 C    3.964 --    45 C    1.323    43 C    1.222    53 C    1.180
    80   6 C    3.973 --   113 C    1.376    44 C    1.292    46 C    1.088
    81   6 C    3.888 --    46 C    1.579   120 S    1.173   109 H    0.955
    82   6 C    3.961 --    56 C    1.328    49 C    1.244    47 C    1.185
    83   6 C    3.977 --    57 C    1.352    48 C    1.336    50 C    1.083
    84   6 C    3.966 --    51 C    1.257    49 C    1.243    58 C    1.240
    85   6 C    3.978 --    59 C    1.725    50 C    1.148   110 H    0.954
    86   6 C    3.971 --    53 C    1.319    51 C    1.226    60 C    1.206
    87   6 C    3.975 --   113 C    1.442    52 C    1.428   111 H    0.969
    88   6 C    3.978 --    48 C    1.325    55 C    1.252    53 C    1.189
    89   6 C    3.974 --    57 C    1.278    55 C    1.250    64 C    1.235
    90   6 C    3.953 --    56 C    1.324    58 C    1.263    65 C    1.172
    91   6 C    3.963 --    60 C    1.276    58 C    1.230    66 C    1.224
    92   6 C    3.975 --    60 C    1.257    62 C    1.248    55 C    1.237
    93   1 H    0.996 --     1 C    0.944
    94   1 H    0.997 --     2 C    0.963
    95   1 H    0.996 --     6 C    0.959
    96   1 H    0.997 --     8 C    0.951
    97   1 H    0.996 --    11 C    0.953
    98   1 H    0.997 --    15 C    0.962
    99   1 H    0.995 --    16 C    0.961
   100   1 H    0.994 --    26 C    0.960
   101   1 H    0.996 --    35 C    0.954
   102   1 H    0.996 --    39 C    0.964
   103   1 H    0.997 --    52 C    0.966
   104   1 H    0.996 --    59 C    0.962
   105   1 H    0.997 --    61 C    0.963
   106   1 H    0.997 --    64 C    0.958
   107   1 H    0.997 --    69 C    0.954
   108   1 H    0.997 --    74 C    0.952
   109   1 H    0.995 --    81 C    0.955
   110   1 H    0.996 --    85 C    0.954
   111   1 H    0.997 --    87 C    0.969
   112   6 C    3.966 --    50 C    1.557    41 C    1.181   114 H    0.952
   113   6 C    3.981 --    87 C    1.442    80 C    1.376   115 H    0.964
   114   1 H    0.997 --   112 C    0.952
   115   1 H    0.997 --   113 C    0.964
   116   1 H    0.997 --    56 C    0.959
   117   1 H    0.997 --    10 C    0.959
   118   1 H    0.997 --    48 C    0.958
   119  16 S    2.488 --    59 C    1.110    57 C    1.062
   120  16 S    2.534 --    81 C    1.173    75 C    1.053
   121  16 S    2.452 --    78 C    1.066    68 C    1.041
   122  16 S    2.397 --    54 C    1.011    63 C    0.992
   123  16 S    2.468 --    20 C    1.119    23 C    1.048
   124  16 S    2.465 --    16 C    1.143    17 C    1.044
   125  16 S    2.327 --    37 C    0.997     7 C    0.979
   126  16 S    2.511 --    26 C    1.122    27 C    1.006
   127  16 S    2.415 --    28 C    1.077    30 C    1.035
   128  16 S    2.353 --    45 C    1.013    41 C    0.990
 ---------------------------------------------------------------------------

Topologies differ in total number of bonds
Writing topology from bond orders to xtbtopo.mol

molecular dipole:
                 x           y           z       tot (Debye)
 q only:        1.084      -0.662       0.460
   full:        0.884      -0.828       0.474       3.306
molecular quadrupole (traceless):
                xx          xy          yy          xz          yz          zz
 q only:        5.799      -8.536      37.001     -19.962      -3.571     -42.800
  q+dip:       39.816      -5.258      30.887     -27.758      -4.351     -70.703
   full:       24.484      -5.946      19.154     -26.599      -3.706     -43.638

           -------------------------------------------------
          |                Geometry Summary                 |
           -------------------------------------------------

      molecular mass/u    :     1473.8476267
   center of mass at/Å    :        0.0086082      -0.0001715       0.0058373
  moments of inertia/u·Å² :        0.3397493E+05   0.3876151E+05   0.7131240E+05
rotational constants/cm⁻¹ :        0.4961785E-03   0.4349065E-03   0.2363913E-03

 * 137 selected distances

     #   Z          #   Z                                           value/Å
     1   6 C        6   6 C                                       1.3471008
     2   6 C        8   6 C                                       1.3551743
     4   6 C        8   6 C                                       1.4185860
     2   6 C        9   6 C                                       1.4143768
     3   6 C        9   6 C                                       1.4156353
     5   6 C        9   6 C                                       1.4190655
     3   6 C       10   6 C                                       1.3856208
    11   6 C       16   6 C                                       1.3439366
     4   6 C       17   6 C                                       1.4001985
    12   6 C       17   6 C                                       1.4116783
     4   6 C       18   6 C                                       1.4163841
     5   6 C       18   6 C                                       1.4133274
    13   6 C       18   6 C                                       1.4205113
     5   6 C       19   6 C                                       1.4177893
    11   6 C       20   6 C                                       1.4161948
    12   6 C       20   6 C                                       1.4076569
    13   6 C       21   6 C                                       1.4118628
    14   6 C       21   6 C                                       1.4304312
    13   6 C       22   6 C                                       1.4304009
    14   6 C       23   6 C                                       1.4141210
    15   6 C       23   6 C                                       1.3708439
    14   6 C       24   6 C                                       1.4317300
    15   6 C       25   6 C                                       1.3977644
     7   6 C       27   6 C                                       1.3526792
    10   6 C       31   6 C                                       1.3987391
    19   6 C       31   6 C                                       1.4102976
    26   6 C       35   6 C                                       1.3377429
    28   6 C       35   6 C                                       1.4352284
    28   6 C       36   6 C                                       1.3680319
    29   6 C       37   6 C                                       1.3865983
    32   6 C       37   6 C                                       1.4198657
    29   6 C       38   6 C                                       1.4251368
    30   6 C       38   6 C                                       1.4053292
    33   6 C       38   6 C                                       1.4196981
    30   6 C       39   6 C                                       1.3803034
    34   6 C       39   6 C                                       1.3896193
    19   6 C       40   6 C                                       1.4093389
    22   6 C       40   6 C                                       1.4211326
    22   6 C       47   6 C                                       1.4040753
    24   6 C       47   6 C                                       1.4345170
    24   6 C       54   6 C                                       1.4148020
    25   6 C       54   6 C                                       1.3930956
    25   6 C       61   6 C                                       1.4234661
    31   6 C       67   6 C                                       1.4286322
    32   6 C       67   6 C                                       1.4285668
    42   6 C       67   6 C                                       1.4095697
    61   6 C       68   6 C                                       1.3678277
    63   6 C       68   6 C                                       1.4178826
    62   6 C       69   6 C                                       1.4196033
    64   6 C       69   6 C                                       1.3563038
    32   6 C       70   6 C                                       1.4242160
    33   6 C       70   6 C                                       1.4177085
    43   6 C       70   6 C                                       1.4193039
    63   6 C       71   6 C                                       1.3848210
    33   6 C       72   6 C                                       1.4194396
    34   6 C       72   6 C                                       1.4278568
    45   6 C       72   6 C                                       1.4002822
    65   6 C       73   6 C                                       1.3942425
    34   6 C       74   6 C                                       1.4298696
    41   6 C       74   6 C                                       1.3571347
    62   6 C       75   6 C                                       1.4070080
    66   6 C       75   6 C                                       1.4018548
    40   6 C       76   6 C                                       1.4134708
    42   6 C       76   6 C                                       1.4197249
    49   6 C       76   6 C                                       1.4106159
    42   6 C       77   6 C                                       1.4156744
    43   6 C       77   6 C                                       1.4120469
    51   6 C       77   6 C                                       1.4129125
    44   6 C       78   6 C                                       1.4025397
    52   6 C       78   6 C                                       1.3883646
    43   6 C       79   6 C                                       1.4241832
    45   6 C       79   6 C                                       1.3997408
    44   6 C       80   6 C                                       1.4083319
    46   6 C       81   6 C                                       1.3546929
    49   6 C       82   6 C                                       1.4148521
    56   6 C       82   6 C                                       1.4001454
    48   6 C       83   6 C                                       1.3976727
    57   6 C       83   6 C                                       1.3956651
    49   6 C       84   6 C                                       1.4151396
    51   6 C       84   6 C                                       1.4103732
    58   6 C       84   6 C                                       1.4173724
    59   6 C       85   6 C                                       1.3382368
    51   6 C       86   6 C                                       1.4164155
    53   6 C       86   6 C                                       1.4030589
    60   6 C       86   6 C                                       1.4248089
    52   6 C       87   6 C                                       1.3801145
    48   6 C       88   6 C                                       1.3977933
    53   6 C       88   6 C                                       1.4302820
    55   6 C       88   6 C                                       1.4113029
    55   6 C       89   6 C                                       1.4167775
    57   6 C       89   6 C                                       1.4113505
    64   6 C       89   6 C                                       1.4170395
    56   6 C       90   6 C                                       1.4016674
    58   6 C       90   6 C                                       1.4120453
    58   6 C       91   6 C                                       1.4176139
    60   6 C       91   6 C                                       1.4120158
    66   6 C       91   6 C                                       1.4249761
    55   6 C       92   6 C                                       1.4159408
    60   6 C       92   6 C                                       1.4112876
    62   6 C       92   6 C                                       1.4117729
     1   6 C       93   1 H                                       1.0849579
     2   6 C       94   1 H                                       1.0779493
     6   6 C       95   1 H                                       1.0802539
     8   6 C       96   1 H                                       1.0791215
    11   6 C       97   1 H                                       1.0812862
    15   6 C       98   1 H                                       1.0792018
    16   6 C       99   1 H                                       1.0761581 (min)
    26   6 C      100   1 H                                       1.0768788
    35   6 C      101   1 H                                       1.0798751
    39   6 C      102   1 H                                       1.0800033
    52   6 C      103   1 H                                       1.0791143
    59   6 C      104   1 H                                       1.0776022
    61   6 C      105   1 H                                       1.0797567
    64   6 C      106   1 H                                       1.0797918
    69   6 C      107   1 H                                       1.0795356
    74   6 C      108   1 H                                       1.0824148
    81   6 C      109   1 H                                       1.0772202
    85   6 C      110   1 H                                       1.0817215
    87   6 C      111   1 H                                       1.0787466
    41   6 C      112   6 C                                       1.4293820
    50   6 C      112   6 C                                       1.3692747
    80   6 C      113   6 C                                       1.3945377
    87   6 C      113   6 C                                       1.3794155
   112   6 C      114   1 H                                       1.0847098
   113   6 C      115   1 H                                       1.0781699
    56   6 C      116   1 H                                       1.0796119
    10   6 C      117   1 H                                       1.0800227
    48   6 C      118   1 H                                       1.0791658
    59   6 C      119  16 S                                       1.7337816
    81   6 C      120  16 S                                       1.7049209
    68   6 C      121  16 S                                       1.7566796 (max)
    78   6 C      121  16 S                                       1.7466719
    20   6 C      123  16 S                                       1.7294843
    23   6 C      123  16 S                                       1.7463601
    16   6 C      124  16 S                                       1.7169793
    26   6 C      126  16 S                                       1.7317321
    28   6 C      127  16 S                                       1.7464251

 * 3 distinct bonds (by element types)

   Z      Z             #   av. dist./Å        max./Å        min./Å
   1 H    6 C          24     1.0797196     1.0849579     1.0761581
   6 C    6 C         104     1.4045466     1.4352284     1.3377429
   6 C   16 S           9     1.7347817     1.7566796     1.7049209


optimized geometry written to: xtbopt.xyz


           -------------------------------------------------
          | TOTAL ENERGY             -246.330362948112 Eh   |
          | GRADIENT NORM               0.000768633139 Eh/α |
          | HOMO-LUMO GAP               0.152933615821 eV   |
           -------------------------------------------------

------------------------------------------------------------------------
 * finished run on 2025/12/08 at 00:31:28.754     
------------------------------------------------------------------------
 total:
 * wall-time:     0 d,  0 h,  0 min, 19.107 sec
 *  cpu-time:     0 d,  0 h,  1 min, 13.141 sec
 * ratio c/w:     3.828 speedup
 SCF:
 * wall-time:     0 d,  0 h,  0 min,  2.023 sec
 *  cpu-time:     0 d,  0 h,  0 min,  7.891 sec
 * ratio c/w:     3.900 speedup
 ANC optimizer:
 * wall-time:     0 d,  0 h,  0 min, 16.929 sec
 *  cpu-time:     0 d,  0 h,  1 min,  4.703 sec
 * ratio c/w:     3.822 speedup

normal termination of xtb
