      -----------------------------------------------------------      
     |                   =====================                   |     
     |                           x T B                           |     
     |                   =====================                   |     
     |                         S. Grimme                         |     
     |          Mulliken Center for Theoretical Chemistry        |     
     |                    University of Bonn                     |     
      -----------------------------------------------------------      

   * xtb version 6.7.1pre (5071a88) compiled by 'Marcel@Raven' on 2024-07-23

   xtb is free software: you can redistribute it and/or modify it under
   the terms of the GNU Lesser General Public License as published by
   the Free Software Foundation, either version 3 of the License, or
   (at your option) any later version.
   
   xtb is distributed in the hope that it will be useful,
   but WITHOUT ANY WARRANTY; without even the implied warranty of
   MERCHANTABILITY or FITNESS FOR A PARTICULAR PURPOSE.  See the
   GNU Lesser General Public License for more details.
   
   Cite this work as:
   * C. Bannwarth, E. Caldeweyher, S. Ehlert, A. Hansen, P. Pracht,
     J. Seibert, S. Spicher, S. Grimme, WIREs Comput. Mol. Sci., 2020, 11,
     e01493. DOI: 10.1002/wcms.1493
   
   for GFN2-xTB:
   * C. Bannwarth, S. Ehlert and S. Grimme., J. Chem. Theory Comput., 2019,
     15, 1652-1671. DOI: 10.1021/acs.jctc.8b01176
   for GFN1-xTB:
   * S. Grimme, C. Bannwarth, P. Shushkov, J. Chem. Theory Comput., 2017,
     13, 1989-2009. DOI: 10.1021/acs.jctc.7b00118
   for GFN0-xTB:
   * P. Pracht, E. Caldeweyher, S. Ehlert, S. Grimme, ChemRxiv, 2019, preprint.
     DOI: 10.26434/chemrxiv.8326202.v1
   for GFN-FF:
   * S. Spicher and S. Grimme, Angew. Chem. Int. Ed., 2020, 59, 15665-15673.
     DOI: 10.1002/anie.202004239
   
   for ALPB and GBSA implicit solvation:
   * S. Ehlert, M. Stahn, S. Spicher, S. Grimme, J. Chem. Theory Comput.,
     2021, 17, 4250-4261. DOI: 10.1021/acs.jctc.1c00471
   
   for ddCOSMO and CPCM-X implicit solvation:
   * M. Stahn, S. Ehlert, S. Grimme, J. Phys. Chem. A,
     2023, XX, XXXX-XXXX. DOI: 10.1021/acs.jpca.3c04382
   
   for DFT-D4:
   * E. Caldeweyher, C. Bannwarth and S. Grimme, J. Chem. Phys., 2017,
     147, 034112. DOI: 10.1063/1.4993215
   * E. Caldeweyher, S. Ehlert, A. Hansen, H. Neugebauer, S. Spicher,
     C. Bannwarth and S. Grimme, J. Chem. Phys., 2019, 150, 154122.
     DOI: 10.1063/1.5090222
   * E. Caldeweyher, J.-M. Mewes, S. Ehlert and S. Grimme, Phys. Chem. Chem. Phys.
     2020, 22, 8499-8512. DOI: 10.1039/D0CP00502A
   
   for sTDA-xTB:
   * S. Grimme and C. Bannwarth, J. Chem. Phys., 2016, 145, 054103.
     DOI: 10.1063/1.4959605
   
   in the mass-spec context:
   * V. Asgeirsson, C. Bauer and S. Grimme, Chem. Sci., 2017, 8, 4879.
     DOI: 10.1039/c7sc00601b
   * J. Koopman and S. Grimme, ACS Omega 2019, 4, 12, 15120-15133.
     DOI: 10.1021/acsomega.9b02011
   
   for metadynamics refer to:
   * S. Grimme, J. Chem. Theory Comput., 2019, 155, 2847-2862
     DOI: 10.1021/acs.jctc.9b00143
   
   for SPH calculations refer to:
   * S. Spicher and S. Grimme, J. Chem. Theory Comput., 2021, 17, 1701-1714
     DOI: 10.1021/acs.jctc.0c01306
   
   for ONIOM refer to:
   * C. Plett, A. Katbashev, S. Ehlert, S. Grimme, M. Bursch,
     Phys. Chem. Chem. Phys., 2023, 25, 17860-17868. DOI: 10.1039/D3CP02178E
   
   for DIPRO refer to:
   * J. Kohn, N. Gildemeister, S. Grimme, D. Fazzi, A. Hansen,
     J. Chem. Phys., 2023, just accepted.
   
   for PTB refer to:
   * S. Grimme, M. Mueller, A. Hansen, J. Chem. Phys., 2023, 158, 124111.
     DOI: 10.1063/5.0137838
   
   with help from (in alphabetical order)
   P. Atkinson, C. Bannwarth, F. Bohle, G. Brandenburg, E. Caldeweyher
   M. Checinski, S. Dohm, S. Ehlert, S. Ehrlich, I. Gerasimov, C. Hölzer
   A. Katbashev, J. Kohn, J. Koopman, C. Lavigne, S. Lehtola, F. März, M. Müller,
   F. Musil, H. Neugebauer, J. Pisarek, C. Plett, P. Pracht, F. Pultar,
   J. Seibert, P. Shushkov, S. Spicher, M. Stahn, M. Steiner, T. Strunk,
   J. Stückrath, T. Rose, and J. Unsleber
   
 * started run on 2025/12/08 at 00:31:28.798     
   ID    Z sym.   atoms
    1    6 C      1-92, 112, 113
    2    1 H      93-111, 114-118
    3   16 S      119-128

           -------------------------------------------------
          |                Calculation Setup                |
           -------------------------------------------------

          program call               : xtb "C:\Users\LENOVO GAMING\Documents\GitHub\molecular-conductivity-sim\results\1.5nm-10Sdoped-7percent\xtbopt.xyz" --sp
          coordinate file            : C:\Users\LENOVO GAMING\Documents\GitHub\molecular-conductivity-sim\results\1.5nm-10Sdoped-7percent\xtbopt.xyz
          omp threads                :                    16


           -------------------------------------------------
          |                 G F N 2 - x T B                 |
           -------------------------------------------------

        Reference                      10.1021/acs.jctc.8b01176
      * Hamiltonian:
        H0-scaling (s, p, d)           1.850000    2.230000    2.230000
        zeta-weighting                 0.500000
      * Dispersion:
        s8                             2.700000
        a1                             0.520000
        a2                             5.000000
        s9                             5.000000
      * Repulsion:
        kExp                           1.500000    1.000000
        rExp                           1.000000
      * Coulomb:
        alpha                          2.000000
        third order                    shell-resolved
        anisotropic                    true
        a3                             3.000000
        a5                             4.000000
        cn-shift                       1.200000
        cn-exp                         4.000000
        max-rad                        5.000000

q/qsh data taken from xtbrestart
CAMM data taken from xtbrestart

          ...................................................
          :                      SETUP                      :
          :.................................................:
          :  # basis functions                 500          :
          :  # atomic orbitals                 490          :
          :  # shells                          242          :
          :  # electrons                       460          :
          :  max. iterations                   250          :
          :  Hamiltonian                  GFN2-xTB          :
          :  restarted?                       true          :
          :  GBSA solvation                  false          :
          :  PC potential                    false          :
          :  electronic temp.          300.0000000     K    :
          :  accuracy                    1.0000000          :
          :  -> integral cutoff          0.2500000E+02      :
          :  -> integral neglect         0.1000000E-07      :
          :  -> SCF convergence          0.1000000E-05 Eh   :
          :  -> wf. convergence          0.1000000E-03 e    :
          :  Broyden damping             0.4000000          :
          :  net charge                          0          :
          :  unpaired electrons                  0          :
          ...................................................

 iter      E             dE          RMSdq      gap      omega  full diag
   1   -250.5552774 -0.250555E+03  0.241E-05    0.15       0.0  T
   2   -250.5552773  0.451058E-08  0.132E-04    0.15      66.8  T
   3   -250.5552774 -0.427019E-08  0.381E-05    0.15     231.7  T

   *** convergence criteria satisfied after 3 iterations ***

         #    Occupation            Energy/Eh            Energy/eV
      -------------------------------------------------------------
         1        2.0000           -0.7489264             -20.3793
       ...           ...                  ...                  ...
       224        2.0000           -0.3612614              -9.8304
       225        2.0000           -0.3551387              -9.6638
       226        2.0000           -0.3543621              -9.6427
       227        2.0000           -0.3479836              -9.4691
       228        2.0000           -0.3448021              -9.3825
       229        2.0000           -0.3430540              -9.3350
       230        1.9013           -0.3249376              -8.8420 (HOMO)
       231        0.0987           -0.3193165              -8.6890 (LUMO)
       232                         -0.3060503              -8.3281
       233                         -0.2952532              -8.0342
       234                         -0.2931343              -7.9766
       235                         -0.2902775              -7.8989
       ...                                ...                  ...
       490                          0.7609597              20.7068
      -------------------------------------------------------------
                  HL-Gap            0.0056211 Eh            0.1530 eV
             Fermi-level           -0.3221270 Eh           -8.7655 eV

 SCC (total)                   0 d,  0 h,  0 min,  0.411 sec
 SCC setup                      ...        0 min,  0.001 sec (  0.243%)
 Dispersion                     ...        0 min,  0.009 sec (  2.190%)
 classical contributions        ...        0 min,  0.001 sec (  0.243%)
 integral evaluation            ...        0 min,  0.033 sec (  8.029%)
 iterations                     ...        0 min,  0.277 sec ( 67.397%)
 molecular gradient             ...        0 min,  0.085 sec ( 20.681%)
 printout                       ...        0 min,  0.005 sec (  1.217%)

         :::::::::::::::::::::::::::::::::::::::::::::::::::::
         ::                     SUMMARY                     ::
         :::::::::::::::::::::::::::::::::::::::::::::::::::::
         :: total energy            -246.330362960421 Eh    ::
         :: gradient norm              0.000767451884 Eh/a0 ::
         :: HOMO-LUMO gap              0.152957992805 eV    ::
         ::.................................................::
         :: SCC energy              -250.560293298381 Eh    ::
         :: -> isotropic ES            0.008027688991 Eh    ::
         :: -> anisotropic ES          0.004795746199 Eh    ::
         :: -> anisotropic XC          0.090490053504 Eh    ::
         :: -> dispersion             -0.317254591541 Eh    ::
         :: repulsion energy           4.229930337960 Eh    ::
         :: add. restraining           0.000000000000 Eh    ::
         :: total charge              -0.000000000000 e     ::
         :::::::::::::::::::::::::::::::::::::::::::::::::::::

           -------------------------------------------------
          |                Property Printout                |
           -------------------------------------------------

    * Orbital Energies and Occupations

         #    Occupation            Energy/Eh            Energy/eV
      -------------------------------------------------------------
         1        2.0000           -0.7489264             -20.3793
       ...           ...                  ...                  ...
       218        2.0000           -0.3895941             -10.6014
       219        2.0000           -0.3859936             -10.5034
       220        2.0000           -0.3785227             -10.3001
       221        2.0000           -0.3747840             -10.1984
       222        2.0000           -0.3709017             -10.0927
       223        2.0000           -0.3620905              -9.8530
       224        2.0000           -0.3612614              -9.8304
       225        2.0000           -0.3551387              -9.6638
       226        2.0000           -0.3543621              -9.6427
       227        2.0000           -0.3479836              -9.4691
       228        2.0000           -0.3448021              -9.3825
       229        2.0000           -0.3430540              -9.3350
       230        1.9013           -0.3249376              -8.8420 (HOMO)
       231        0.0987           -0.3193165              -8.6890 (LUMO)
       232                         -0.3060503              -8.3281
       233                         -0.2952532              -8.0342
       234                         -0.2931343              -7.9766
       235                         -0.2902775              -7.8989
       236                         -0.2794838              -7.6051
       237                         -0.2750432              -7.4843
       238                         -0.2670487              -7.2668
       239                         -0.2639129              -7.1814
       240                         -0.2623428              -7.1387
       241                         -0.2583308              -7.0295
       ...                                ...                  ...
       490                          0.7609597              20.7068
      -------------------------------------------------------------
                  HL-Gap            0.0056211 Eh            0.1530 eV
             Fermi-level           -0.3221270 Eh           -8.7655 eV

     #   Z          covCN         q      C6AA      α(0)
     1   6 C        2.923    -0.040    29.001     8.831
     2   6 C        2.915    -0.031    28.763     8.794
     3   6 C        2.970     0.009    27.818     8.651
     4   6 C        3.060    -0.001    27.996     8.677
     5   6 C        2.992     0.001    27.987     8.678
     6   6 C        2.903    -0.033    28.824     8.803
     7   6 C        3.017     0.030    27.313     8.573
     8   6 C        2.925    -0.040    28.987     8.829
     9   6 C        2.986     0.009    27.807     8.650
    10   6 C        3.083    -0.024    28.502     8.752
    11   6 C        3.099    -0.041    28.884     8.807
    12   6 C        3.010     0.005    27.887     8.662
    13   6 C        2.984    -0.001    28.047     8.687
    14   6 C        3.005    -0.001    28.038     8.686
    15   6 C        3.047    -0.056    29.346     8.885
    16   6 C        2.890    -0.005    28.155     8.699
    17   6 C        2.969     0.025    27.449     8.594
    18   6 C        2.991     0.004    27.917     8.667
    19   6 C        2.998     0.002    27.977     8.677
    20   6 C        2.958     0.037    27.171     8.550
    21   6 C        2.973    -0.001    28.057     8.689
    22   6 C        2.987     0.002    27.974     8.676
    23   6 C        2.968     0.037    27.172     8.550
    24   6 C        2.995    -0.001    28.030     8.685
    25   6 C        3.059     0.015    27.618     8.618
    26   6 C        2.891     0.005    27.920     8.663
    27   6 C        3.039     0.023    27.463     8.595
    28   6 C        2.960     0.047    26.938     8.513
    29   6 C        3.043    -0.002    28.032     8.684
    30   6 C        2.965     0.036    27.194     8.554
    31   6 C        2.986     0.008    27.842     8.656
    32   6 C        2.993    -0.004    28.125     8.699
    33   6 C        2.993    -0.004    28.114     8.698
    34   6 C        2.977     0.011    27.760     8.642
    35   6 C        3.044    -0.045    29.062     8.842
    36   6 C        3.029    -0.001    28.023     8.683
    37   6 C        2.967     0.030    27.333     8.576
    38   6 C        3.011    -0.000    28.017     8.683
    39   6 C        3.000    -0.049    29.213     8.866
    40   6 C        2.990    -0.003    28.097     8.695
    41   6 C        2.942     0.047    26.953     8.515
    42   6 C        2.994     0.002    27.978     8.677
    43   6 C        2.994    -0.000    28.020     8.683
    44   6 C        3.011     0.002    27.969     8.675
    45   6 C        2.970     0.028    27.382     8.583
    46   6 C        3.012     0.001    27.980     8.677
    47   6 C        2.976    -0.001    28.038     8.686
    48   6 C        3.100    -0.030    28.626     8.768
    49   6 C        2.998     0.002    27.960     8.674
    50   6 C        2.959     0.015    27.673     8.629
    51   6 C        2.992    -0.002    28.065     8.690
    52   6 C        3.013    -0.041    29.004     8.834
    53   6 C        2.979    -0.004    28.123     8.699
    54   6 C        2.971     0.020    27.554     8.610
    55   6 C        3.000     0.004    27.916     8.667
    56   6 C        3.141    -0.030    28.500     8.736
    57   6 C        2.970     0.036    27.197     8.554
    58   6 C        2.993     0.001    28.002     8.680
    59   6 C        2.888    -0.003    28.089     8.689
    60   6 C        2.988    -0.002    28.070     8.691
    61   6 C        3.024    -0.064    29.562     8.919
    62   6 C        3.057    -0.001    27.991     8.676
    63   6 C        2.983     0.025    27.446     8.594
    64   6 C        2.917    -0.032    28.786     8.798
    65   6 C        2.973    -0.007    28.188     8.709
    66   6 C        3.001     0.001    27.984     8.678
    67   6 C        2.980    -0.001    28.044     8.687
    68   6 C        3.028     0.044    26.991     8.522
    69   6 C        2.920    -0.038    28.954     8.824
    70   6 C        2.990    -0.001    28.053     8.688
    71   6 C        2.991     0.003    27.959     8.674
    72   6 C        3.045    -0.004    28.079     8.691
    73   6 C        2.977     0.007    27.850     8.657
    74   6 C        2.985    -0.051    29.263     8.874
    75   6 C        2.967     0.028    27.382     8.583
    76   6 C        2.991     0.000    28.010     8.682
    77   6 C        2.991    -0.001    28.050     8.688
    78   6 C        2.973     0.045    26.980     8.520
    79   6 C        3.005    -0.005    28.131     8.700
    80   6 C        2.999     0.005    27.905     8.665
    81   6 C        2.904    -0.008    28.224     8.711
    82   6 C        2.978     0.005    27.911     8.666
    83   6 C        3.003     0.006    27.884     8.662
    84   6 C        2.991    -0.002    28.064     8.690
    85   6 C        2.950    -0.042    29.041     8.839
    86   6 C        2.991     0.002    27.966     8.675
    87   6 C        2.917    -0.027    28.686     8.783
    88   6 C        2.981     0.002    27.967     8.675
    89   6 C        3.032    -0.001    28.027     8.684
    90   6 C        2.978     0.004    27.918     8.667
    91   6 C        2.991    -0.001    28.035     8.685
    92   6 C        2.995     0.004    27.918     8.667
    93   1 H        0.925     0.047     2.360     2.402
    94   1 H        0.926     0.040     2.453     2.449
    95   1 H        0.926     0.036     2.500     2.473
    96   1 H        0.926     0.045     2.382     2.413
    97   1 H        0.925     0.057     2.235     2.338
    98   1 H        0.926     0.045     2.381     2.413
    99   1 H        0.926     0.062     2.170     2.304
   100   1 H        0.926     0.060     2.193     2.316
   101   1 H        0.926     0.056     2.248     2.345
   102   1 H        0.926     0.041     2.435     2.440
   103   1 H        0.926     0.047     2.359     2.402
   104   1 H        0.926     0.048     2.339     2.392
   105   1 H        0.926     0.038     2.473     2.459
   106   1 H        0.926     0.046     2.376     2.411
   107   1 H        0.926     0.043     2.403     2.424
   108   1 H        0.925     0.038     2.469     2.457
   109   1 H        0.926     0.057     2.233     2.337
   110   1 H        0.925     0.040     2.453     2.449
   111   1 H        0.926     0.042     2.417     2.431
   112   6 C        2.937    -0.059    29.473     8.904
   113   6 C        2.924    -0.043    29.078     8.843
   114   1 H        0.925     0.036     2.509     2.477
   115   1 H        0.926     0.038     2.470     2.458
   116   1 H        0.926     0.031     2.572     2.508
   117   1 H        0.926     0.035     2.514     2.479
   118   1 H        0.926     0.040     2.452     2.449
   119  16 S        2.085    -0.074   144.130    20.206
   120  16 S        2.110    -0.036   142.524    20.093
   121  16 S        2.215    -0.092   144.887    20.259
   122  16 S        2.381    -0.123   146.216    20.352
   123  16 S        2.274    -0.056   143.393    20.154
   124  16 S        2.125    -0.030   142.303    20.077
   125  16 S        2.301    -0.145   147.179    20.419
   126  16 S        2.112    -0.078   144.318    20.219
   127  16 S        2.195    -0.087   144.660    20.243
   128  16 S        2.314    -0.136   146.782    20.391

 Mol. C6AA /au·bohr⁶  :     429198.156107
 Mol. C8AA /au·bohr⁸  :   13304273.105741
 Mol. α(0) /au        :       1077.254191


Wiberg/Mayer (AO) data.
largest (>0.10) Wiberg bond orders for each atom

 ---------------------------------------------------------------------------
     #   Z sym  total        # sym  WBO       # sym  WBO       # sym  WBO
 ---------------------------------------------------------------------------
     1   6 C    3.958 --     6 C    1.726     7 C    1.133    93 H    0.944
     2   6 C    3.970 --     8 C    1.604     9 C    1.242    94 H    0.963
     3   6 C    3.941 --    10 C    1.397     9 C    1.251     6 C    1.114
     4   6 C    3.969 --    17 C    1.311    18 C    1.230     8 C    1.228
     5   6 C    3.972 --    18 C    1.266     9 C    1.253    19 C    1.225
     6   6 C    3.959 --     1 C    1.726     3 C    1.114    95 H    0.959
     7   6 C    3.952 --    27 C    1.604     1 C    1.133   125 S    0.979
     8   6 C    3.953 --     2 C    1.604     4 C    1.228    96 H    0.951
     9   6 C    3.947 --     5 C    1.253     3 C    1.251     2 C    1.242
    10   6 C    3.936 --     3 C    1.397    31 C    1.301   117 H    0.959
    11   6 C    3.978 --    16 C    1.635    20 C    1.242    97 H    0.953
    12   6 C    3.972 --    20 C    1.296    17 C    1.292    21 C    1.168
    13   6 C    3.970 --    21 C    1.308    18 C    1.236    22 C    1.200
    14   6 C    3.944 --    23 C    1.252    24 C    1.239    21 C    1.229
    15   6 C    3.942 --    23 C    1.468    25 C    1.280    98 H    0.962
    16   6 C    3.839 --    11 C    1.635   124 S    1.143    99 H    0.961
    17   6 C    3.847 --     4 C    1.311    12 C    1.292   124 S    1.044
    18   6 C    3.949 --     5 C    1.266    13 C    1.236     4 C    1.230
    19   6 C    3.961 --    31 C    1.261    40 C    1.253     5 C    1.225
    20   6 C    3.787 --    12 C    1.296    11 C    1.242   123 S    1.119
    21   6 C    3.953 --    13 C    1.308    14 C    1.229    12 C    1.168
    22   6 C    3.972 --    47 C    1.321    40 C    1.227    13 C    1.200
    23   6 C    3.943 --    15 C    1.468    14 C    1.252   123 S    1.048
    24   6 C    3.965 --    54 C    1.291    14 C    1.239    47 C    1.193
    25   6 C    3.972 --    54 C    1.338    15 C    1.280    61 C    1.183
    26   6 C    3.939 --    35 C    1.722   126 S    1.122   100 H    0.960
    27   6 C    3.930 --     7 C    1.604    36 C    1.107   126 S    1.006
    28   6 C    3.927 --    36 C    1.507    35 C    1.156   127 S    1.077
    29   6 C    3.945 --    37 C    1.419    38 C    1.204    36 C    1.110
    30   6 C    3.883 --    39 C    1.415    38 C    1.278   127 S    1.035
    31   6 C    3.959 --    10 C    1.301    19 C    1.261    67 C    1.190
    32   6 C    3.941 --    37 C    1.253    70 C    1.234    67 C    1.227
    33   6 C    3.970 --    70 C    1.251    38 C    1.242    72 C    1.234
    34   6 C    3.916 --    39 C    1.361    72 C    1.202    74 C    1.187
    35   6 C    3.981 --    26 C    1.722    28 C    1.156   101 H    0.954
    36   6 C    3.975 --    28 C    1.507    29 C    1.110    27 C    1.107
    37   6 C    3.921 --    29 C    1.419    32 C    1.253   125 S    0.997
    38   6 C    3.965 --    30 C    1.278    33 C    1.242    29 C    1.204
    39   6 C    3.953 --    30 C    1.415    34 C    1.361   102 H    0.964
    40   6 C    3.950 --    19 C    1.253    76 C    1.251    22 C    1.227
    41   6 C    3.910 --    74 C    1.595   112 C    1.181   128 S    0.990
    42   6 C    3.964 --    67 C    1.282    76 C    1.233    77 C    1.230
    43   6 C    3.958 --    77 C    1.258    70 C    1.248    79 C    1.222
    44   6 C    3.981 --    78 C    1.314    80 C    1.292    71 C    1.129
    45   6 C    3.847 --    79 C    1.323    72 C    1.308   128 S    1.013
    46   6 C    3.979 --    81 C    1.579    73 C    1.136    80 C    1.088
    47   6 C    3.944 --    22 C    1.321    24 C    1.193    82 C    1.185
    48   6 C    3.903 --    83 C    1.336    88 C    1.325   118 H    0.958
    49   6 C    3.960 --    76 C    1.252    82 C    1.244    84 C    1.243
    50   6 C    3.940 --   112 C    1.557    85 C    1.148    83 C    1.083
    51   6 C    3.942 --    84 C    1.257    77 C    1.249    86 C    1.226
    52   6 C    3.975 --    87 C    1.428    78 C    1.393   103 H    0.966
    53   6 C    3.901 --    86 C    1.319    88 C    1.189    79 C    1.180
    54   6 C    3.905 --    25 C    1.338    24 C    1.291   122 S    1.011
    55   6 C    3.975 --    88 C    1.252    89 C    1.250    92 C    1.237
    56   6 C    3.891 --    82 C    1.328    90 C    1.324   116 H    0.959
    57   6 C    3.903 --    83 C    1.352    89 C    1.278   119 S    1.062
    58   6 C    3.953 --    90 C    1.263    84 C    1.240    91 C    1.230
    59   6 C    3.917 --    85 C    1.725   119 S    1.110   104 H    0.962
    60   6 C    3.968 --    91 C    1.276    92 C    1.257    86 C    1.206
    61   6 C    3.909 --    68 C    1.518    25 C    1.183   105 H    0.963
    62   6 C    3.960 --    75 C    1.289    92 C    1.248    69 C    1.229
    63   6 C    3.883 --    71 C    1.449    68 C    1.223   122 S    0.992
    64   6 C    3.965 --    69 C    1.608    89 C    1.235   106 H    0.958
    65   6 C    3.968 --    73 C    1.408    90 C    1.172    71 C    1.127
    66   6 C    3.965 --    75 C    1.336    91 C    1.224    73 C    1.186
    67   6 C    3.923 --    42 C    1.282    32 C    1.227    31 C    1.190
    68   6 C    3.941 --    61 C    1.518    63 C    1.223   121 S    1.041
    69   6 C    3.971 --    64 C    1.608    62 C    1.229   107 H    0.954
    70   6 C    3.974 --    33 C    1.251    43 C    1.248    32 C    1.234
    71   6 C    3.951 --    63 C    1.449    44 C    1.129    65 C    1.127
    72   6 C    3.970 --    45 C    1.308    33 C    1.234    34 C    1.202
    73   6 C    3.951 --    65 C    1.408    66 C    1.186    46 C    1.136
    74   6 C    3.925 --    41 C    1.595    34 C    1.187   108 H    0.952
    75   6 C    3.891 --    66 C    1.336    62 C    1.289   120 S    1.053
    76   6 C    3.957 --    49 C    1.252    40 C    1.251    42 C    1.233
    77   6 C    3.960 --    43 C    1.258    51 C    1.249    42 C    1.230
    78   6 C    3.955 --    52 C    1.393    44 C    1.314   121 S    1.066
    79   6 C    3.964 --    45 C    1.323    43 C    1.222    53 C    1.180
    80   6 C    3.973 --   113 C    1.376    44 C    1.292    46 C    1.088
    81   6 C    3.888 --    46 C    1.579   120 S    1.173   109 H    0.955
    82   6 C    3.961 --    56 C    1.328    49 C    1.244    47 C    1.185
    83   6 C    3.977 --    57 C    1.352    48 C    1.336    50 C    1.083
    84   6 C    3.966 --    51 C    1.257    49 C    1.243    58 C    1.240
    85   6 C    3.978 --    59 C    1.725    50 C    1.148   110 H    0.954
    86   6 C    3.971 --    53 C    1.319    51 C    1.226    60 C    1.206
    87   6 C    3.975 --   113 C    1.442    52 C    1.428   111 H    0.969
    88   6 C    3.978 --    48 C    1.325    55 C    1.252    53 C    1.189
    89   6 C    3.974 --    57 C    1.278    55 C    1.250    64 C    1.235
    90   6 C    3.953 --    56 C    1.324    58 C    1.263    65 C    1.172
    91   6 C    3.963 --    60 C    1.276    58 C    1.230    66 C    1.224
    92   6 C    3.975 --    60 C    1.257    62 C    1.248    55 C    1.237
    93   1 H    0.996 --     1 C    0.944
    94   1 H    0.997 --     2 C    0.963
    95   1 H    0.996 --     6 C    0.959
    96   1 H    0.997 --     8 C    0.951
    97   1 H    0.996 --    11 C    0.953
    98   1 H    0.997 --    15 C    0.962
    99   1 H    0.995 --    16 C    0.961
   100   1 H    0.994 --    26 C    0.960
   101   1 H    0.996 --    35 C    0.954
   102   1 H    0.996 --    39 C    0.964
   103   1 H    0.997 --    52 C    0.966
   104   1 H    0.996 --    59 C    0.962
   105   1 H    0.997 --    61 C    0.963
   106   1 H    0.997 --    64 C    0.958
   107   1 H    0.997 --    69 C    0.954
   108   1 H    0.997 --    74 C    0.952
   109   1 H    0.995 --    81 C    0.955
   110   1 H    0.996 --    85 C    0.954
   111   1 H    0.997 --    87 C    0.969
   112   6 C    3.966 --    50 C    1.557    41 C    1.181   114 H    0.952
   113   6 C    3.981 --    87 C    1.442    80 C    1.376   115 H    0.964
   114   1 H    0.997 --   112 C    0.952
   115   1 H    0.997 --   113 C    0.964
   116   1 H    0.997 --    56 C    0.959
   117   1 H    0.997 --    10 C    0.959
   118   1 H    0.997 --    48 C    0.958
   119  16 S    2.488 --    59 C    1.110    57 C    1.062
   120  16 S    2.534 --    81 C    1.173    75 C    1.053
   121  16 S    2.452 --    78 C    1.066    68 C    1.041
   122  16 S    2.397 --    54 C    1.011    63 C    0.992
   123  16 S    2.468 --    20 C    1.119    23 C    1.048
   124  16 S    2.465 --    16 C    1.143    17 C    1.044
   125  16 S    2.327 --    37 C    0.997     7 C    0.979
   126  16 S    2.511 --    26 C    1.122    27 C    1.006
   127  16 S    2.415 --    28 C    1.077    30 C    1.035
   128  16 S    2.353 --    45 C    1.013    41 C    0.990
 ---------------------------------------------------------------------------

Topologies differ in total number of bonds
Writing topology from bond orders to xtbtopo.mol

molecular dipole:
                 x           y           z       tot (Debye)
 q only:        1.084      -0.662       0.460
   full:        0.884      -0.828       0.474       3.306
molecular quadrupole (traceless):
                xx          xy          yy          xz          yz          zz
 q only:        5.799      -8.536      37.001     -19.962      -3.571     -42.799
  q+dip:       39.816      -5.258      30.887     -27.758      -4.351     -70.703
   full:       24.484      -5.945      19.154     -26.599      -3.706     -43.638


           -------------------------------------------------
          | TOTAL ENERGY             -246.330362960421 Eh   |
          | GRADIENT NORM               0.000767451884 Eh/α |
          | HOMO-LUMO GAP               0.152957992805 eV   |
           -------------------------------------------------

------------------------------------------------------------------------
 * finished run on 2025/12/08 at 00:31:29.352     
------------------------------------------------------------------------
 total:
 * wall-time:     0 d,  0 h,  0 min,  0.550 sec
 *  cpu-time:     0 d,  0 h,  0 min,  5.328 sec
 * ratio c/w:     9.688 speedup
 SCF:
 * wall-time:     0 d,  0 h,  0 min,  0.415 sec
 *  cpu-time:     0 d,  0 h,  0 min,  4.172 sec
 * ratio c/w:    10.053 speedup

normal termination of xtb
