128
 energy: -246.330362948112 gnorm: 0.000768633139 xtb: 6.7.1pre (5071a88)
C           -3.03845065576880       -7.05846511411153        0.71169062115512
C            1.16318074994670       -7.22552186254496        0.82756279080121
C           -0.90036796104411       -5.86689737567893        1.03548121839854
C            3.29207383849252       -6.14405417870757        0.42299103916452
C            1.25689642408600       -4.80852801499519        0.57237746845167
C           -1.77439857615319       -7.01487272370296        1.17532000942289
C           -3.75438904166895       -6.04212020202110       -0.01839013938499
C            2.50298698149732       -7.30289942667679        0.63933704128689
C            0.49300596474228       -5.98009014159017        0.81250268264112
C           -1.48283663862010       -4.61102979944784        0.97656124405303
C            7.52471531956820       -6.48354598904270       -0.38141337373832
C            5.47693485759245       -5.08333133494386        0.01289764608756
C            3.43943658552636       -3.70296680748992        0.23488733349447
C            5.58903349494496       -2.56271106862008        0.11676934167561
C            7.72882342307780       -1.36803404742771        0.11328775400726
C            6.94348145553622       -7.69111595277262       -0.28087897866611
C            4.66789672283985       -6.22848657567679        0.17694610264078
C            2.65973995668861       -4.87668375795394        0.41464700600613
C            0.60668777389906       -3.56078670156958        0.39774505841074
C            6.85502648181157       -5.24569969023503       -0.22374033043061
C            4.84255911110766       -3.78280267780210        0.09986988107059
C            2.77785539570372       -2.43774933155936        0.14781660576483
C            6.99881077072403       -2.52399161874625        0.01300703803035
C            4.92946472183624       -1.30243516917199        0.27963170423301
C            7.10095496515750       -0.16692441592520        0.45513850485694
C           -7.53898790269259       -6.90671884111258        0.42921156626583
C           -5.08675301109945       -5.83542755700312        0.09035314523027
C           -7.13564267325909       -4.79038177321991       -0.70642354348572
C           -5.03964895907327       -3.45420202674034       -0.61848647109089
C           -7.08950817323413       -2.07714426512755       -0.92140561810879
C           -0.79915440298063       -3.49323260637861        0.48709338956158
C           -2.87939873624587       -2.30635995997095       -0.29083627391801
C           -4.95089567651639       -1.00467050282427       -0.56987797009165
C           -7.00954398425033        0.33139813609507       -0.80209993462274
C           -7.92629832405888       -5.95532294977566       -0.42775534914719
C           -5.78955104443241       -4.69800620543111       -0.48055828060808
C           -3.65330285144215       -3.45796701942479       -0.59231909162339
C           -5.71217544793748       -2.19879424252291       -0.67019736954081
C           -7.72672042543359       -0.85272769450456       -0.92270412195227
C            1.35751914130891       -2.39192554561502        0.16057095872082
C           -7.07131514339743        2.77860898758192       -0.55126741188125
C           -0.74821563673151       -1.12594612431354        0.01140444848600
C           -2.81925724033421        0.15643310073424       -0.21262265100781
C            5.85473258108983        4.77012384977686       -0.57380424726501
C           -4.80371559367598        1.41605242225835       -0.72706024509999
C            3.79418557808725        6.06685452588711       -0.21703860661005
C            3.51296860563152       -1.24468517001714        0.06044615400295
C           -4.74395309218989        3.88735753848837        0.75719445005689
C            1.40772810411879        0.03294838237506       -0.08124717858028
C           -6.91312584038775        5.03156904813031        0.58356088112365
C           -0.66605227612296        1.31919812213524       -0.09319640086557
C            7.86004774152387        5.94722985465871       -1.31760716902345
C           -2.73944065098701        2.59924825389130        0.07247557516599
C            5.71930254970196       -0.18295768474962        0.63260581797822
C           -2.64649326576876        5.02427996310971        0.47091794280539
C            3.47666354080415        1.16925436257943       -0.54770635967690
C           -4.72691882440115        6.27694390162669        0.72411814763286
C            1.49477509479802        2.48306703728199       -0.13972492486391
C           -7.15436642261285        7.39967388395659        1.18372893258284
C           -0.57281345287519        3.75614070869846        0.15441270875734
C            7.83957644341268        1.04917850021962        0.41286251247660
C           -0.48952425874557        6.18054366785488        0.43892026696121
C            5.85538629133624        2.50536320653838        0.34498964242241
C           -2.53539987035549        7.43369016447599        0.77526495712494
C            3.67951406102340        3.62565491851142       -0.21838201752249
C            1.59851675308639        4.92689580715672        0.06876143772576
C           -1.49507014462234       -2.32033755650946        0.06164307474576
C            7.24048088357666        2.25532065718932        0.17357631992298
C           -1.18392004753805        7.39756548695439        0.66683566776667
C           -3.55011880600616       -1.05168556269346       -0.35654563606010
C            5.13758414631190        3.58153492614962       -0.14932131502211
C           -5.58532860470421        0.25424373650250       -0.73552287337762
C            3.02263312384830        4.85161686737601       -0.12123978002315
C           -7.67308015296972        1.56300706644914       -0.50648873385600
C            0.91186389416432        6.12121775811723        0.32818260267982
C            0.67011265669919       -1.16065311097609        0.06392800879990
C           -1.41225495697339        0.11942061964834       -0.09926217372624
C            7.23351170423213        4.80916629895973       -0.82789307100096
C           -3.47744267028589        1.41762741285048       -0.27954312733636
C            5.15728411143248        5.98595472508273       -0.71062245587488
C            3.32885939830922        7.28168959107356        0.16090308094918
C            2.81625250815026       -0.01691331059454       -0.20525864769510
C           -5.45795969041979        5.08810017500697        0.71360188047608
C            0.74326893859649        1.28134809297693       -0.13235387831442
C           -7.66779827330179        6.17390933471465        1.02635508242787
C           -1.33738861062598        2.55958530559853        0.03710962994174
C            7.12194311654094        7.08202467516392       -1.58622937505082
C           -3.38172073627613        3.81977562788716        0.45128353660723
C           -3.31651293241558        6.25545315730727        0.67718074179965
C            2.89301833745722        2.42450476790926       -0.32776140815285
C            0.83337450930173        3.72539198694112        0.03000105624937
C           -1.23781759486569        4.98815494347739        0.33229636702908
H           -3.62830274412117       -7.94592996639256        0.91568567037154
H            0.59836229688355       -8.12960221310316        0.98754164701451
H           -1.38835460106456       -7.89724445262899        1.66454220075939
H            2.98540867955699       -8.26798294448813        0.65898869958577
H            8.58341351362636       -6.42938016492616       -0.59449533553171
H            8.79517475900262       -1.39060256955250       -0.05121725911335
H            7.47795209146274       -8.61683849865850       -0.40535732595661
H           -8.17512690460481       -7.71961309451305        0.73612838509251
H           -8.91693443554303       -5.98724138424524       -0.85641764862308
H           -8.80063955747081       -0.81869526679308       -1.03200412735321
H            8.92239408936785        5.91541092468912       -1.50440970552984
H           -7.75125340641147        8.24716421797877        1.47819846057239
H            8.90811679421366        0.97509165555071        0.27645521169076
H           -3.03783727889607        8.37529814660337        0.93921966095444
H           -0.61977751200077        8.31465615865920        0.74484007914070
H           -8.66384389069924        1.48709692047044       -0.07724931194716
H            3.96245231783099        8.15269883210436        0.17839725163886
H           -8.72615818033696        6.03275510659194        1.19976500039141
H            7.59464882537172        7.94833443593446       -2.02183332336643
C           -7.58948523322075        3.96352359962505        0.05750981671394
C            5.77988774189046        7.10238290380239       -1.26801631443617
H           -8.67195629912272        3.99911704375621        0.11738156779086
H            5.20392076010134        7.99103289168556       -1.47053362343845
H            4.45070566228921        1.10985418189346       -1.00952359177990
H           -2.49203883233507       -4.48353992338203        1.33947452901008
H           -5.26626677236042        2.99047510898260        1.05281070190167
S           -5.51326271765518        7.84394365375582        0.84402165958953
S            1.73652872390720        7.63771365739356        0.65535711539848
S            8.28891929073146        3.43710682710175       -0.59459088413576
S            5.08225099819527        1.28598248887615        1.40529089739868
S            7.96720984118072       -3.92836095660797       -0.36078838887870
S            5.27676370241770       -7.89063091320119        0.08004083476132
S           -2.89966675904698       -4.97160740258446       -1.15871874117160
S           -5.97673388876071       -6.93003519354514        1.17601421229637
S           -8.09631220475674       -3.46418593154270       -1.31331612572318
S           -5.53731340344224        2.85345025127179       -1.46028143691927
