128
 energy: -246.302314897572 gnorm: 0.062465177027 xtb: 6.7.1pre (5071a88)
C           -3.05323100000000       -7.13286500000000        0.67326300000000
C            1.19841100000000       -7.25966700000000        0.94125900000000
C           -0.89530700000000       -5.90812300000000        1.03879700000000
C            3.33330500000000       -6.18320600000000        0.47949600000000
C            1.28168300000000       -4.83453400000000        0.59519900000000
C           -1.77444800000000       -7.06956300000000        1.13876400000000
C           -3.82134800000000       -6.13216800000000       -0.06108900000000
C            2.54537900000000       -7.34255800000000        0.75690900000000
C            0.51643100000000       -6.01255000000000        0.86111900000000
C           -1.47543500000000       -4.64753500000000        0.94276500000000
C            7.58924600000000       -6.51420100000000       -0.37417600000000
C            5.52626600000000       -5.10816200000000        0.03484400000000
C            3.47781100000000       -3.71706500000000        0.25671800000000
C            5.64325100000000       -2.56152600000000        0.14933700000000
C            7.80853500000000       -1.37819000000000        0.13342000000000
C            6.97296300000000       -7.71858700000000       -0.32621700000000
C            4.71342200000000       -6.27177100000000        0.18547300000000
C            2.69979000000000       -4.90610600000000        0.44898600000000
C            0.62308000000000       -3.58120100000000        0.38984400000000
C            6.91900700000000       -5.26858100000000       -0.19347900000000
C            4.89010400000000       -3.79093500000000        0.13321700000000
C            2.80703400000000       -2.44012100000000        0.15890800000000
C            7.06511300000000       -2.53710200000000        0.05006000000000
C            4.97865300000000       -1.28584200000000        0.31482200000000
C            7.18319600000000       -0.16470200000000        0.46072700000000
C           -7.62875000000000       -6.93843700000000        0.52289700000000
C           -5.15779200000000       -5.91566400000000        0.08892000000000
C           -7.22685200000000       -4.84124800000000       -0.68745000000000
C           -5.10829100000000       -3.48611300000000       -0.65541500000000
C           -7.17607100000000       -2.10345700000000       -0.91798100000000
C           -0.79544800000000       -3.52123600000000        0.45473300000000
C           -2.91245500000000       -2.34035600000000       -0.34987100000000
C           -5.00256300000000       -1.01968100000000       -0.63105800000000
C           -7.07842500000000        0.32713100000000       -0.85276800000000
C           -8.03367800000000       -5.99647800000000       -0.35179700000000
C           -5.86630800000000       -4.75403500000000       -0.49207000000000
C           -3.71407200000000       -3.50015500000000       -0.65630800000000
C           -5.78004900000000       -2.22052200000000       -0.70722500000000
C           -7.80648900000000       -0.86689900000000       -0.92200400000000
C            1.37305200000000       -2.40293000000000        0.14937500000000
C           -7.15080300000000        2.80036900000000       -0.63181300000000
C           -0.76450500000000       -1.13897500000000       -0.04056500000000
C           -2.85129100000000        0.15482500000000       -0.27843400000000
C            5.91575400000000        4.80546400000000       -0.60783500000000
C           -4.84911300000000        1.41847900000000       -0.83916100000000
C            3.84495800000000        6.10765900000000       -0.18359200000000
C            3.54540700000000       -1.23774200000000        0.07107000000000
C           -4.76970100000000        3.92980900000000        0.72923000000000
C            1.40832700000000        0.03137300000000       -0.12529100000000
C           -6.96466800000000        5.06339200000000        0.58090200000000
C           -0.68114400000000        1.32904900000000       -0.13995100000000
C            7.93942300000000        5.98582900000000       -1.35303500000000
C           -2.77013700000000        2.62284400000000        0.01755100000000
C            5.79435200000000       -0.17035300000000        0.68848000000000
C           -2.66296000000000        5.06596500000000        0.48661800000000
C            3.48499700000000        1.17802500000000       -0.58641000000000
C           -4.76081100000000        6.33218000000000        0.78617000000000
C            1.49783400000000        2.49928900000000       -0.18267000000000
C           -7.23255000000000        7.43097500000000        1.25983000000000
C           -0.58071800000000        3.78440800000000        0.12957800000000
C            7.93545400000000        1.06059700000000        0.37602000000000
C           -0.48232900000000        6.22527700000000        0.46269400000000
C            5.93140500000000        2.52817500000000        0.34529100000000
C           -2.54082900000000        7.48746700000000        0.83469400000000
C            3.71303100000000        3.64649100000000       -0.23892500000000
C            1.61492700000000        4.95770500000000        0.06893300000000
C           -1.51074900000000       -2.34821300000000        0.00809500000000
C            7.32603400000000        2.26784300000000        0.10700500000000
C           -1.18412200000000        7.45038400000000        0.71058200000000
C           -3.58533300000000       -1.06964700000000       -0.41861600000000
C            5.19463800000000        3.59972200000000       -0.16985600000000
C           -5.63835000000000        0.24681700000000       -0.81219700000000
C            3.05781400000000        4.88253300000000       -0.11876500000000
C           -7.75033900000000        1.57522100000000       -0.55604900000000
C            0.92959100000000        6.16314300000000        0.34786100000000
C            0.66956900000000       -1.17105600000000        0.02297200000000
C           -1.43369600000000        0.11829300000000       -0.15540000000000
C            7.29918000000000        4.82624000000000       -0.91085100000000
C           -3.51976500000000        1.43279500000000       -0.36041700000000
C            5.22168500000000        6.03800400000000       -0.68290300000000
C            3.37055100000000        7.31935500000000        0.21160800000000
C            2.82965300000000       -0.01134100000000       -0.23888300000000
C           -5.49251900000000        5.12799700000000        0.73029000000000
C            0.73750600000000        1.29028300000000       -0.17649500000000
C           -7.73772500000000        6.19946900000000        1.05209100000000
C           -1.35730400000000        2.57831400000000       -0.00864500000000
C            7.20813900000000        7.15647100000000       -1.52811000000000
C           -3.40406100000000        3.85460500000000        0.42950300000000
C           -3.33999800000000        6.30685600000000        0.72243300000000
C            2.90757200000000        2.43703800000000       -0.37343600000000
C            0.83623600000000        3.74992100000000        0.00253500000000
C           -1.24012000000000        5.02821100000000        0.34202800000000
H           -3.59952100000000       -8.05320500000000        0.88111100000000
H            0.64136600000000       -8.16535300000000        1.14932300000000
H           -1.38640100000000       -7.97444200000000        1.59829600000000
H            3.01645700000000       -8.31476600000000        0.84307400000000
H            8.65909200000000       -6.49617400000000       -0.55955700000000
H            8.88136600000000       -1.39853800000000       -0.03640100000000
H            7.51211700000000       -8.64748300000000       -0.47919200000000
H           -8.29196500000000       -7.72086200000000        0.87770400000000
H           -9.05247100000000       -6.03792500000000       -0.72645600000000
H           -8.89161100000000       -0.81996400000000       -0.97378000000000
H            9.00104100000000        5.96039800000000       -1.58047400000000
H           -7.85237900000000        8.26461900000000        1.57322100000000
H            9.00205400000000        0.96455900000000        0.19158300000000
H           -3.01946500000000        8.44363800000000        1.02040500000000
H           -0.63625200000000        8.38241500000000        0.79172700000000
H           -8.72679000000000        1.50173100000000       -0.07604900000000
H            4.01317300000000        8.19033500000000        0.25380700000000
H           -8.80704000000000        6.05912800000000        1.19827600000000
H            7.69040100000000        8.04740500000000       -1.91812900000000
C           -7.64096500000000        3.99168000000000        0.03167200000000
C            5.86109700000000        7.18035600000000       -1.19308300000000
H           -8.72745700000000        4.02330200000000        0.12905100000000
H            5.29691300000000        8.09291600000000       -1.34636100000000
H            4.49904400000000        1.12145400000000       -0.94541500000000
H           -2.50588900000000       -4.52999000000000        1.24837600000000
H           -5.31023400000000        3.01617400000000        0.91953900000000
S           -5.56815200000000        7.90405000000000        0.96840900000000
S            1.76844400000000        7.67780200000000        0.69764000000000
S            8.29760100000000        3.37991600000000       -0.85674000000000
S            5.21121700000000        1.32382200000000        1.47704100000000
S            8.02742000000000       -3.95981200000000       -0.28436900000000
S            5.30604700000000       -7.92008700000000       -0.02448500000000
S           -3.02217500000000       -5.04697700000000       -1.25248400000000
S           -6.03979900000000       -6.96724700000000        1.24111300000000
S           -8.19520400000000       -3.50407100000000       -1.29927600000000
S           -5.62971200000000        2.82841900000000       -1.60343800000000
128
 energy: -246.320300894515 gnorm: 0.029508567026 xtb: 6.7.1pre (5071a88)
C           -3.05216076383974       -7.10988196655583        0.67492491673311
C            1.20073770896551       -7.23948364617471        0.93273941524842
C           -0.89809945557914       -5.89945152127003        1.00663062720655
C            3.32631427540490       -6.16128353036888        0.47655673127341
C            1.27539732849962       -4.82421087110217        0.59001837873557
C           -1.77867224766682       -7.05168066798181        1.12768577023901
C           -3.80945206392073       -6.10109260540378       -0.03938875686938
C            2.54488149309690       -7.31784138674859        0.75138637121279
C            0.51275875241074       -6.00146353883264        0.84310696940280
C           -1.48087250659715       -4.64337154915624        0.91458151905995
C            7.56774522685577       -6.50538081061753       -0.36889921899538
C            5.51337984712911       -5.09770961137677        0.03419444971320
C            3.46896897143119       -3.71072051271888        0.25882346519135
C            5.62978921894731       -2.56294573745117        0.15187385500452
C            7.78445304570782       -1.37541051248463        0.13499454294258
C            6.96152686564290       -7.70769047902883       -0.32386696264622
C            4.70048812688331       -6.24924332617706        0.18702965595288
C            2.68929322070404       -4.89133916443518        0.44999489397657
C            0.61831492291487       -3.57598431905754        0.38076118111623
C            6.89967004009274       -5.26280587020675       -0.19268471511906
C            4.87884001589015       -3.78809726825966        0.13417850848172
C            2.80077271730205       -2.43947558235324        0.15673659381987
C            7.04568536149911       -2.53204436021846        0.05437075361685
C            4.96689776468134       -1.29363670599016        0.30434903706908
C            7.15880378432511       -0.16441031815574        0.45524714719507
C           -7.61502128282612       -6.91998463719878        0.51866324427043
C           -5.14112318978717       -5.88581511046038        0.09470221318148
C           -7.20562961928544       -4.82814910457865       -0.67568796671448
C           -5.09564833278084       -3.47940848492152       -0.64132262151581
C           -7.15173063199227       -2.09244992177010       -0.91903305707920
C           -0.79880121940975       -3.51749139897402        0.43624025017579
C           -2.90753557178818       -2.32986297973101       -0.34488888348554
C           -4.99074979942062       -1.01833420795911       -0.62419435905280
C           -7.05786487129336        0.32848903721765       -0.83707013754164
C           -8.01146070584192       -5.97866170160626       -0.34836901119806
C           -5.85112501434385       -4.73700206113636       -0.48039871137934
C           -3.70381625938487       -3.48604854832643       -0.63266236639927
C           -5.76428211274907       -2.21589935943467       -0.69902984787879
C           -7.78288732271950       -0.86071661601623       -0.91777486514279
C            1.36993349142050       -2.39970538763087        0.14697450582397
C           -7.12434345788767        2.79282694254778       -0.59750432376041
C           -0.76118099055325       -1.13723600947758       -0.04162374506540
C           -2.84296412358800        0.15244583442079       -0.28007531173996
C            5.90051352651992        4.79740053561627       -0.60561167297303
C           -4.83677703633402        1.41428439690154       -0.80695046030570
C            3.83653660001310        6.09349131852856       -0.18595447571974
C            3.53981232970418       -1.24166694442093        0.07283013982094
C           -4.76824067267280        3.91855588830269        0.69874249398570
C            1.40913067507028        0.03158950563562       -0.11512600006746
C           -6.95081968666051        5.05298069576074        0.57641077265084
C           -0.67694944046629        1.32519320165277       -0.14080646107674
C            7.91741713215761        5.97524964820708       -1.34536997911287
C           -2.76222277909280        2.61444409144912        0.01307185934528
C            5.77267519062331       -0.17482307951080        0.65576868234163
C           -2.65976180239383        5.05163360654426        0.47330721503886
C            3.49018911483428        1.17749031263734       -0.54499960682322
C           -4.75049670733584        6.30980146230050        0.77188276647037
C            1.49856799325052        2.49571383614692       -0.17238272503764
C           -7.21285426861992        7.40974323030099        1.25251562002846
C           -0.57966160647524        3.77536583881361        0.12828561874729
C            7.90059562589691        1.05770173312440        0.36398722469832
C           -0.48472766616096        6.20481198741615        0.45898768289978
C            5.90965217999113        2.52524276775286        0.31491452576420
C           -2.53895502122173        7.45979920589872        0.83036025505432
C            3.70684478039569        3.64401082216889       -0.23291828783621
C            1.61215529456287        4.94638378886415        0.06573373683120
C           -1.50963761418975       -2.34120399835590        0.00457836510945
C            7.29376581672698        2.25984844192678        0.09428646088770
C           -1.18513910718995        7.42291483214759        0.70756094636714
C           -3.57842020805073       -1.06567445726663       -0.41821869798462
C            5.17995209276025        3.59789327794148       -0.18211993477631
C           -5.62501555632499        0.24627849574965       -0.79666084785238
C            3.05046421975779        4.87340735631996       -0.12092992880965
C           -7.72229785636204        1.57143849851804       -0.53852982591686
C            0.92314339056334        6.14214040414575        0.34362804562222
C            0.66872325328307       -1.16886010530473        0.02475857486684
C           -1.42843072104993        0.11690873464899       -0.15695270372607
C            7.27628253276090        4.82134563002334       -0.90778766844890
C           -3.50667220704118        1.42460346995345       -0.35079297097266
C            5.21132114658486        6.02631144395163       -0.67695966488478
C            3.36333807623918        7.30142834791833        0.20928371992271
C            2.82987903918119       -0.01133764118807       -0.21000414630061
C           -5.48523145476223        5.11681782280035        0.70500004393312
C            0.74097677466354        1.28780273200823       -0.17266789392126
C           -7.71746304666253        6.18608267074174        1.04434340483235
C           -1.35240359515032        2.57226374272306       -0.00834319843169
C            7.19246823209080        7.13998944884853       -1.52123185853577
C           -3.40257469230501        3.84510889912002        0.40513820698141
C           -3.33453209893936        6.28414011539516        0.71597722229477
C            2.90861697836503        2.43550665834748       -0.34214074812371
C            0.83515610104949        3.74313001639516        0.00495206222930
C           -1.24196508389975        5.01340923744338        0.33442990468821
H           -3.60490569376023       -8.02581547333046        0.87190746562903
H            0.64810479183673       -8.14354411989400        1.14435982242442
H           -1.39148779197595       -7.94870173011283        1.59581294006527
H            3.02566027113555       -8.28413655033036        0.83112420984065
H            8.63455872615867       -6.47637413985769       -0.55393358575155
H            8.85372531001284       -1.40017590562575       -0.03225562892084
H            7.49833461974074       -8.63303519924145       -0.47485932186942
H           -8.26937876993570       -7.70699496144349        0.86544162771201
H           -9.02264300511369       -6.01660135227091       -0.73375353402932
H           -8.86380632628230       -0.81913093507370       -0.98340413365984
H            8.97555206634420        5.94640602880845       -1.57003045228019
H           -7.82588384198610        8.24414956510962        1.56377809359620
H            8.96745846325895        0.96986697770844        0.19496128886933
H           -3.02401316616401        8.41069736324960        1.01383065708661
H           -0.63201124402992        8.34948831907623        0.79152152479380
H           -8.70689190749888        1.49559426776628       -0.08623200309238
H            3.99934600430048        8.17347607104728        0.25116545299475
H           -8.78280952892999        6.04693635145933        1.19405244728994
H            7.67563635641920        8.02725127824449       -1.90882726084241
C           -7.62455051118872        3.98441807288205        0.03635863203799
C            5.85216863722805        7.16287087614087       -1.18550370277657
H           -8.70938509913375        4.02097082686265        0.11351762038090
H            5.29393736708463        8.07458673796270       -1.33983413289359
H            4.49454088686393        1.11951725065982       -0.93579974288737
H           -2.50736415013459       -4.52734858576775        1.23130014733429
H           -5.30740956773586        3.00938315762486        0.91328700858403
S           -5.55388963930381        7.87427997659710        0.96599062176211
S            1.76044532313840        7.65488418461119        0.69003792966614
S            8.28206920357652        3.38606814005395       -0.83090104068187
S            5.15819592911032        1.31797588391139        1.41502806141666
S            8.01308769549279       -3.95095068236646       -0.28049867048636
S            5.29100069457936       -7.90401818344702       -0.01119661900513
S           -2.97541764758129       -5.02180386923800       -1.20223428579898
S           -6.02512214776553       -6.95743693648896        1.21940143578029
S           -8.17072348722395       -3.49174992360512       -1.28166500482707
S           -5.59380262477113        2.85068087043548       -1.53913179629572
128
 energy: -246.327810478298 gnorm: 0.015531035980 xtb: 6.7.1pre (5071a88)
C           -3.04830945183804       -7.08302813090202        0.67031838145995
C            1.19714351422196       -7.21997787388134        0.92086547415456
C           -0.89805083252747       -5.88543918429333        0.99255572741033
C            3.31554086600387       -6.13947298822044        0.47146580010368
C            1.26722965092639       -4.81192441633193        0.58052025935974
C           -1.77776610405203       -7.03149712934082        1.11748811909860
C           -3.79462331825545       -6.06872429444532       -0.03373781084454
C            2.53900483176108       -7.29424971074075        0.74247807507114
C            0.50780071549703       -5.98758529747026        0.82858388549799
C           -1.48259472641917       -4.63127465075444        0.90524947736132
C            7.54321995946190       -6.49266559479335       -0.36407358172272
C            5.49735315075921       -5.08392985577174        0.03560668384369
C            3.45643065550946       -3.70096312114358        0.25799200073149
C            5.61078651802459       -2.55944707070576        0.15213414574658
C            7.75811624398476       -1.37198180105896        0.13522612767186
C            6.94728285949437       -7.69594047649979       -0.31990299871978
C            4.68495249142140       -6.22645891466240        0.18914304402809
C            2.67597703598920       -4.87486586923410        0.44573177232146
C            0.61301173820533       -3.56750543631876        0.37228495947578
C            6.87761245057924       -5.25314191641157       -0.19059471277004
C            4.86340345793186       -3.78124977559082        0.13349549032841
C            2.79173248927471       -2.43484086188795        0.15739039678825
C            7.02220421188950       -2.52581561182540        0.05725823004637
C            4.95027223083990       -1.29499393627831        0.30152277342281
C            7.13309665935037       -0.16235359852289        0.44878791988720
C           -7.58992969353922       -6.90189009251960        0.51041946596818
C           -5.12238308477841       -5.85496855955411        0.09519768715820
C           -7.18219814516014       -4.80593295729184       -0.66225519707000
C           -5.07740291810208       -3.46941554258129       -0.62857776696723
C           -7.12458782950827       -2.08159868510735       -0.91380279206557
C           -0.79941922271165       -3.50707008799939        0.42841525035748
C           -2.89763559406465       -2.31977878928523       -0.34242539778532
C           -4.97340459540688       -1.01437697865433       -0.61368123694793
C           -7.03463447753345        0.32970811803285       -0.82332112302383
C           -7.98383977465267       -5.95580894918251       -0.34746614237622
C           -5.83161047057966       -4.71429477106267       -0.46751057293215
C           -3.68911855362985       -3.47165207313430       -0.62021026194520
C           -5.74330247999370       -2.20847494483163       -0.68816571688733
C           -7.75748984074598       -0.85477568250340       -0.91297865713521
C            1.36557261333609       -2.39417363932092        0.14503633395595
C           -7.09789658906429        2.78334862737604       -0.58363180262001
C           -0.75613847482315       -1.13456921288486       -0.04334893107192
C           -2.83183374948404        0.15238483023571       -0.27881703143947
C            5.87771492621235        4.78318151913212       -0.60092146536654
C           -4.82294107710269        1.40992048394161       -0.78650571653352
C            3.82078080756057        6.07753109947771       -0.18929318176108
C            3.52946043507564       -1.24024986316316        0.07626094999327
C           -4.75774862365328        3.90141631452572        0.69477197473137
C            1.40785056025336        0.03158964520495       -0.10335260564817
C           -6.93034120344606        5.03823720427373        0.56886592251047
C           -0.67203150901248        1.32014754232685       -0.14048700304647
C            7.89089259018859        5.95959905347064       -1.33665120661350
C           -2.75182893053904        2.60482483697901        0.01037332125717
C            5.75149053730537       -0.17476016842223        0.63687430037965
C           -2.65391939150509        5.03334147134555        0.45847538936381
C            3.48286883507424        1.17389359811265       -0.53549332117107
C           -4.73769715290748        6.28578599955493        0.75638973544733
C            1.49692190754035        2.48940134546030       -0.16213388856864
C           -7.18343480034379        7.38824772198175        1.24259095506073
C           -0.57760226139637        3.76316670841673        0.12494132938811
C            7.86832623753945        1.05439680026005        0.35595970562992
C           -0.48697394688126        6.18341254508815        0.45332324047406
C            5.88744416323821        2.51574995864807        0.30115386833495
C           -2.53608699545706        7.43198290139288        0.82258829709150
C            3.69517561146559        3.63565677752375       -0.22898640292039
C            1.60752717836108        4.93294940587216        0.06475204200767
C           -1.50475400155424       -2.33327161671363        0.00176196631797
C            7.26175589094684        2.25132519670990        0.08877364067961
C           -1.18426236245031        7.39573202818433        0.70386524377887
C           -3.56655584351999       -1.06027601358497       -0.41342869265523
C            5.15906442077131        3.59026112147396       -0.18143236111908
C           -5.60815716133097        0.24694809668905       -0.78022000812832
C            3.03925378751256        4.86074677758228       -0.12139867242856
C           -7.69479523414780        1.56650801960497       -0.52884698855970
C            0.91658661233335        6.12170935748019        0.33941039865654
C            0.66752585337315       -1.16579060647675        0.02850701223250
C           -1.42111774823861        0.11578305695535       -0.15754217759782
C            7.24881824109466        4.81044452756799       -0.89921266354633
C           -3.49127148378052        1.41850780410446       -0.34737464736955
C            5.19191585756949        6.01041533852834       -0.67463400806555
C            3.34914148857419        7.28375978116657        0.20616578370428
C            2.82339920005590       -0.01396217558437       -0.19759374980561
C           -5.47295361380592        5.10082082306655        0.69426959182958
C            0.74299618798474        1.28377248226892       -0.16463301454280
C           -7.69128340240503        6.16983193326946        1.03148315761456
C           -1.34594915629322        2.56433989009149       -0.01079178644956
C            7.17041925415065        7.12175908281890       -1.51418807271006
C           -3.39358896619252        3.82976261273145        0.39703966069169
C           -3.32606203730168        6.25997755781102        0.70213718675881
C            2.90155342281342        2.43264775579295       -0.33274617329054
C            0.83378911565750        3.73333894987550        0.00811941389088
C           -1.24187528476491        4.99553416529565        0.32419891863097
H           -3.61574548087716       -7.98707679107960        0.87069312570140
H            0.64702526418965       -8.12200856003222        1.13651210602995
H           -1.38780447351147       -7.92494682751787        1.58420690314734
H            3.03058035728399       -8.25317542883108        0.82092412307867
H            8.60773396098137       -6.44958930557415       -0.54958775440905
H            8.82478253762802       -1.40257653733684       -0.02799835244790
H            7.48020872162278       -8.61931073510654       -0.46883741822777
H           -8.23552562683920       -7.69284878725943        0.85352483111903
H           -8.98993507723909       -5.98451066144463       -0.74015959114306
H           -8.83463875699649       -0.81891511954329       -0.99386859913579
H            8.94695048933565        5.92484865422223       -1.55696404479022
H           -7.78865252961070        8.22410228119140        1.55472953627119
H            8.93380603929285        0.97438252499782        0.19397335763490
H           -3.02967574915852        8.37578546833804        1.00743030335751
H           -0.62442312608387        8.31581306633796        0.79192533759383
H           -8.68277029492771        1.49069111679510       -0.09205371393675
H            3.98023518970569        8.15605223142273        0.25006669320334
H           -8.75368734108589        6.03017457847415        1.18381941099554
H            7.65437269953036        8.00596857785352       -1.90021605346086
C           -7.60359186356856        3.97337682002472        0.03201201070535
C            5.83353722823130        7.14393385689474       -1.17871320102676
H           -8.68638923916582        4.01050043273372        0.10188850484741
H            5.27988355859139        8.05613540547903       -1.33053553332321
H            4.45946792100539        1.11085052163346       -1.00156364172736
H           -2.49492216338652       -4.50847244313495        1.26238917513177
H           -5.28555656803822        3.00137722985368        0.97824008196375
S           -5.53151484740600        7.84575112751960        0.95713848935769
S            1.74730879359753        7.63469209004629        0.68343682179007
S            8.26584548507450        3.38963896992016       -0.80044381900483
S            5.14156375635642        1.31197416721433        1.40412079408729
S            7.99687033992406       -3.93914063936626       -0.27710671151150
S            5.27292076564800       -7.88897428824099        0.00480067374020
S           -2.95334803975091       -4.99827312170050       -1.19087241012854