      -----------------------------------------------------------      
     |                   =====================                   |     
     |                           x T B                           |     
     |                   =====================                   |     
     |                         S. Grimme                         |     
     |          Mulliken Center for Theoretical Chemistry        |     
     |                    University of Bonn                     |     
      -----------------------------------------------------------      

   * xtb version 6.7.1pre (5071a88) compiled by 'Marcel@Raven' on 2024-07-23

   xtb is free software: you can redistribute it and/or modify it under
   the terms of the GNU Lesser General Public License as published by
   the Free Software Foundation, either version 3 of the License, or
   (at your option) any later version.
   
   xtb is distributed in the hope that it will be useful,
   but WITHOUT ANY WARRANTY; without even the implied warranty of
   MERCHANTABILITY or FITNESS FOR A PARTICULAR PURPOSE.  See the
   GNU Lesser General Public License for more details.
   
   Cite this work as:
   * C. Bannwarth, E. Caldeweyher, S. Ehlert, A. Hansen, P. Pracht,
     J. Seibert, S. Spicher, S. Grimme, WIREs Comput. Mol. Sci., 2020, 11,
     e01493. DOI: 10.1002/wcms.1493
   
   for GFN2-xTB:
   * C. Bannwarth, S. Ehlert and S. Grimme., J. Chem. Theory Comput., 2019,
     15, 1652-1671. DOI: 10.1021/acs.jctc.8b01176
   for GFN1-xTB:
   * S. Grimme, C. Bannwarth, P. Shushkov, J. Chem. Theory Comput., 2017,
     13, 1989-2009. DOI: 10.1021/acs.jctc.7b00118
   for GFN0-xTB:
   * P. Pracht, E. Caldeweyher, S. Ehlert, S. Grimme, ChemRxiv, 2019, preprint.
     DOI: 10.26434/chemrxiv.8326202.v1
   for GFN-FF:
   * S. Spicher and S. Grimme, Angew. Chem. Int. Ed., 2020, 59, 15665-15673.
     DOI: 10.1002/anie.202004239
   
   for ALPB and GBSA implicit solvation:
   * S. Ehlert, M. Stahn, S. Spicher, S. Grimme, J. Chem. Theory Comput.,
     2021, 17, 4250-4261. DOI: 10.1021/acs.jctc.1c00471
   
   for ddCOSMO and CPCM-X implicit solvation:
   * M. Stahn, S. Ehlert, S. Grimme, J. Phys. Chem. A,
     2023, XX, XXXX-XXXX. DOI: 10.1021/acs.jpca.3c04382
   
   for DFT-D4:
   * E. Caldeweyher, C. Bannwarth and S. Grimme, J. Chem. Phys., 2017,
     147, 034112. DOI: 10.1063/1.4993215
   * E. Caldeweyher, S. Ehlert, A. Hansen, H. Neugebauer, S. Spicher,
     C. Bannwarth and S. Grimme, J. Chem. Phys., 2019, 150, 154122.
     DOI: 10.1063/1.5090222
   * E. Caldeweyher, J.-M. Mewes, S. Ehlert and S. Grimme, Phys. Chem. Chem. Phys.
     2020, 22, 8499-8512. DOI: 10.1039/D0CP00502A
   
   for sTDA-xTB:
   * S. Grimme and C. Bannwarth, J. Chem. Phys., 2016, 145, 054103.
     DOI: 10.1063/1.4959605
   
   in the mass-spec context:
   * V. Asgeirsson, C. Bauer and S. Grimme, Chem. Sci., 2017, 8, 4879.
     DOI: 10.1039/c7sc00601b
   * J. Koopman and S. Grimme, ACS Omega 2019, 4, 12, 15120-15133.
     DOI: 10.1021/acsomega.9b02011
   
   for metadynamics refer to:
   * S. Grimme, J. Chem. Theory Comput., 2019, 155, 2847-2862
     DOI: 10.1021/acs.jctc.9b00143
   
   for SPH calculations refer to:
   * S. Spicher and S. Grimme, J. Chem. Theory Comput., 2021, 17, 1701-1714
     DOI: 10.1021/acs.jctc.0c01306
   
   for ONIOM refer to:
   * C. Plett, A. Katbashev, S. Ehlert, S. Grimme, M. Bursch,
     Phys. Chem. Chem. Phys., 2023, 25, 17860-17868. DOI: 10.1039/D3CP02178E
   
   for DIPRO refer to:
   * J. Kohn, N. Gildemeister, S. Grimme, D. Fazzi, A. Hansen,
     J. Chem. Phys., 2023, just accepted.
   
   for PTB refer to:
   * S. Grimme, M. Mueller, A. Hansen, J. Chem. Phys., 2023, 158, 124111.
     DOI: 10.1063/5.0137838
   
   with help from (in alphabetical order)
   P. Atkinson, C. Bannwarth, F. Bohle, G. Brandenburg, E. Caldeweyher
   M. Checinski, S. Dohm, S. Ehlert, S. Ehrlich, I. Gerasimov, C. Hölzer
   A. Katbashev, J. Kohn, J. Koopman, C. Lavigne, S. Lehtola, F. März, M. Müller,
   F. Musil, H. Neugebauer, J. Pisarek, C. Plett, P. Pracht, F. Pultar,
   J. Seibert, P. Shushkov, S. Spicher, M. Stahn, M. Steiner, T. Strunk,
   J. Stückrath, T. Rose, and J. Unsleber
   
 * started run on 2025/12/08 at 00:32:16.791     
   ID    Z sym.   atoms
    1    6 C      1-102
    2    1 H      103-128
    3   16 S      129, 130

           -------------------------------------------------
          |                Calculation Setup                |
           -------------------------------------------------

          program call               : xtb "C:\Users\LENOVO GAMING\Documents\GitHub\molecular-conductivity-sim\results\1.5nm-2Sdoped-1.5percent\xtbopt.xyz" --sp
          coordinate file            : C:\Users\LENOVO GAMING\Documents\GitHub\molecular-conductivity-sim\results\1.5nm-2Sdoped-1.5percent\xtbopt.xyz
          omp threads                :                    16


           -------------------------------------------------
          |                 G F N 2 - x T B                 |
           -------------------------------------------------

        Reference                      10.1021/acs.jctc.8b01176
      * Hamiltonian:
        H0-scaling (s, p, d)           1.850000    2.230000    2.230000
        zeta-weighting                 0.500000
      * Dispersion:
        s8                             2.700000
        a1                             0.520000
        a2                             5.000000
        s9                             5.000000
      * Repulsion:
        kExp                           1.500000    1.000000
        rExp                           1.000000
      * Coulomb:
        alpha                          2.000000
        third order                    shell-resolved
        anisotropic                    true
        a3                             3.000000
        a5                             4.000000
        cn-shift                       1.200000
        cn-exp                         4.000000
        max-rad                        5.000000

q/qsh data taken from xtbrestart
CAMM data taken from xtbrestart

          ...................................................
          :                      SETUP                      :
          :.................................................:
          :  # basis functions                 454          :
          :  # atomic orbitals                 452          :
          :  # shells                          236          :
          :  # electrons                       446          :
          :  max. iterations                   250          :
          :  Hamiltonian                  GFN2-xTB          :
          :  restarted?                       true          :
          :  GBSA solvation                  false          :
          :  PC potential                    false          :
          :  electronic temp.          300.0000000     K    :
          :  accuracy                    1.0000000          :
          :  -> integral cutoff          0.2500000E+02      :
          :  -> integral neglect         0.1000000E-07      :
          :  -> SCF convergence          0.1000000E-05 Eh   :
          :  -> wf. convergence          0.1000000E-03 e    :
          :  Broyden damping             0.4000000          :
          :  net charge                          0          :
          :  unpaired electrons                  0          :
          ...................................................

 iter      E             dE          RMSdq      gap      omega  full diag
   1   -243.5648086 -0.243565E+03  0.190E-05    0.32       0.0  T
   2   -243.5648086  0.422631E-10  0.221E-05    0.32     396.2  T
   3   -243.5648086 -0.665068E-10  0.106E-05    0.32     824.2  T

   *** convergence criteria satisfied after 3 iterations ***

         #    Occupation            Energy/Eh            Energy/eV
      -------------------------------------------------------------
         1        2.0000           -0.7250280             -19.7290
       ...           ...                  ...                  ...
       217        2.0000           -0.3832109             -10.4277
       218        2.0000           -0.3788857             -10.3100
       219        2.0000           -0.3732968             -10.1579
       220        2.0000           -0.3615205              -9.8375
       221        2.0000           -0.3556091              -9.6766
       222        2.0000           -0.3488532              -9.4928
       223        1.9961           -0.3324069              -9.0453 (HOMO)
       224        0.0039           -0.3205774              -8.7234 (LUMO)
       225                         -0.2939984              -8.0001
       226                         -0.2881183              -7.8401
       227                         -0.2735030              -7.4424
       228                         -0.2681998              -7.2981
       ...                                ...                  ...
       452                          0.7780940              21.1730
      -------------------------------------------------------------
                  HL-Gap            0.0118295 Eh            0.3219 eV
             Fermi-level           -0.3264921 Eh           -8.8843 eV

 SCC (total)                   0 d,  0 h,  0 min,  0.290 sec
 SCC setup                      ...        0 min,  0.002 sec (  0.690%)
 Dispersion                     ...        0 min,  0.008 sec (  2.759%)
 classical contributions        ...        0 min,  0.000 sec (  0.000%)
 integral evaluation            ...        0 min,  0.026 sec (  8.966%)
 iterations                     ...        0 min,  0.169 sec ( 58.276%)
 molecular gradient             ...        0 min,  0.080 sec ( 27.586%)
 printout                       ...        0 min,  0.005 sec (  1.724%)

         :::::::::::::::::::::::::::::::::::::::::::::::::::::
         ::                     SUMMARY                     ::
         :::::::::::::::::::::::::::::::::::::::::::::::::::::
         :: total energy            -238.951487991591 Eh    ::
         :: gradient norm              0.000346247922 Eh/a0 ::
         :: HOMO-LUMO gap              0.321898251518 eV    ::
         ::.................................................::
         :: SCC energy              -243.572689222331 Eh    ::
         :: -> isotropic ES            0.003836214838 Eh    ::
         :: -> anisotropic ES          0.010344414241 Eh    ::
         :: -> anisotropic XC          0.090348806789 Eh    ::
         :: -> dispersion             -0.292987455769 Eh    ::
         :: repulsion energy           4.621201230740 Eh    ::
         :: add. restraining           0.000000000000 Eh    ::
         :: total charge               0.000000000120 e     ::
         :::::::::::::::::::::::::::::::::::::::::::::::::::::

           -------------------------------------------------
          |                Property Printout                |
           -------------------------------------------------

    * Orbital Energies and Occupations

         #    Occupation            Energy/Eh            Energy/eV
      -------------------------------------------------------------
         1        2.0000           -0.7250280             -19.7290
       ...           ...                  ...                  ...
       211        2.0000           -0.3985137             -10.8441
       212        2.0000           -0.3957061             -10.7677
       213        2.0000           -0.3900485             -10.6138
       214        2.0000           -0.3886362             -10.5753
       215        2.0000           -0.3885330             -10.5725
       216        2.0000           -0.3869993             -10.5308
       217        2.0000           -0.3832109             -10.4277
       218        2.0000           -0.3788857             -10.3100
       219        2.0000           -0.3732968             -10.1579
       220        2.0000           -0.3615205              -9.8375
       221        2.0000           -0.3556091              -9.6766
       222        2.0000           -0.3488532              -9.4928
       223        1.9961           -0.3324069              -9.0453 (HOMO)
       224        0.0039           -0.3205774              -8.7234 (LUMO)
       225                         -0.2939984              -8.0001
       226                         -0.2881183              -7.8401
       227                         -0.2735030              -7.4424
       228                         -0.2681998              -7.2981
       229                         -0.2650878              -7.2134
       230                         -0.2613029              -7.1104
       231                         -0.2570466              -6.9946
       232                         -0.2520972              -6.8599
       233                         -0.2459212              -6.6919
       234                         -0.2424060              -6.5962
       ...                                ...                  ...
       452                          0.7780940              21.1730
      -------------------------------------------------------------
                  HL-Gap            0.0118295 Eh            0.3219 eV
             Fermi-level           -0.3264921 Eh           -8.8843 eV

     #   Z          covCN         q      C6AA      α(0)
     1   6 C        2.919    -0.037    28.909     8.817
     2   6 C        2.920    -0.037    28.923     8.819
     3   6 C        2.983     0.004    27.918     8.667
     4   6 C        2.925    -0.043    29.059     8.840
     5   6 C        2.983     0.004    27.921     8.668
     6   6 C        2.991     0.001    27.989     8.678
     7   6 C        2.922    -0.036    28.895     8.815
     8   6 C        2.920    -0.037    28.919     8.819
     9   6 C        2.979     0.005    27.912     8.666
    10   6 C        2.921    -0.037    28.929     8.820
    11   6 C        2.983     0.005    27.901     8.665
    12   6 C        2.992     0.001    27.989     8.678
    13   6 C        3.024    -0.043    29.045     8.840
    14   6 C        3.004    -0.000    28.020     8.683
    15   6 C        2.983    -0.002    28.065     8.690
    16   6 C        2.999     0.000    28.008     8.681
    17   6 C        3.036    -0.056    29.353     8.886
    18   6 C        2.916    -0.029    28.720     8.788
    19   6 C        2.986     0.007    27.865     8.659
    20   6 C        2.989     0.002    27.976     8.676
    21   6 C        2.987     0.000    28.012     8.682
    22   6 C        2.973     0.047    26.934     8.513
    23   6 C        2.971     0.004    27.938     8.670
    24   6 C        2.985     0.001    28.009     8.681
    25   6 C        2.963     0.044    27.010     8.525
    26   6 C        2.988    -0.000    28.022     8.683
    27   6 C        2.982     0.012    27.735     8.639
    28   6 C        2.912    -0.030    28.738     8.790
    29   6 C        2.976     0.006    27.871     8.660
    30   6 C        2.981     0.013    27.724     8.637
    31   6 C        2.990     0.001    27.985     8.678
    32   6 C        2.987     0.001    27.992     8.679
    33   6 C        2.978     0.012    27.737     8.639
    34   6 C        2.987    -0.001    28.038     8.686
    35   6 C        2.988    -0.001    28.038     8.686
    36   6 C        2.989     0.001    27.986     8.678
    37   6 C        2.982     0.012    27.735     8.639
    38   6 C        2.921    -0.036    28.901     8.816
    39   6 C        2.995     0.001    27.990     8.679
    40   6 C        2.926    -0.044    29.105     8.847
    41   6 C        2.988     0.000    28.014     8.682
    42   6 C        2.994    -0.001    28.034     8.685
    43   6 C        2.926    -0.047    29.178     8.858
    44   6 C        2.986    -0.001    28.038     8.686
    45   6 C        2.964     0.044    27.009     8.524
    46   6 C        2.920    -0.037    28.919     8.819
    47   6 C        2.987    -0.001    28.033     8.685
    48   6 C        2.926    -0.044    29.105     8.847
    49   6 C        2.987    -0.001    28.034     8.685
    50   6 C        2.995     0.001    27.990     8.679
    51   6 C        2.989    -0.000    28.022     8.683
    52   6 C        2.979     0.005    27.912     8.666
    53   6 C        2.987     0.000    28.020     8.683
    54   6 C        2.971     0.004    27.938     8.670
    55   6 C        2.988    -0.000    28.024     8.684
    56   6 C        2.973     0.047    26.934     8.513
    57   6 C        2.988    -0.000    28.029     8.684
    58   6 C        2.921    -0.036    28.901     8.816
    59   6 C        2.985     0.000    28.010     8.681
    60   6 C        2.922    -0.036    28.895     8.815
    61   6 C        2.993    -0.001    28.049     8.688
    62   6 C        2.989     0.002    27.976     8.676
    63   6 C        2.989    -0.000    28.025     8.684
    64   6 C        2.985     0.007    27.865     8.659
    65   6 C        2.989     0.000    28.014     8.682
    66   6 C        2.916    -0.029    28.721     8.788
    67   6 C        2.987     0.000    28.012     8.682
    68   6 C        2.927    -0.047    29.178     8.858
    69   6 C        2.984     0.005    27.900     8.664
    70   6 C        2.994    -0.001    28.034     8.685
    71   6 C        2.921    -0.037    28.928     8.820
    72   6 C        2.988     0.000    28.014     8.682
    73   6 C        2.992     0.001    27.989     8.678
    74   6 C        2.989     0.000    28.015     8.682
    75   6 C        2.978     0.012    27.737     8.639
    76   6 C        2.920    -0.037    28.924     8.819
    77   6 C        2.990    -0.000    28.025     8.684
    78   6 C        2.987     0.001    27.992     8.679
    79   6 C        2.993    -0.001    28.050     8.688
    80   6 C        2.990     0.001    27.985     8.678
    81   6 C        3.034    -0.056    29.355     8.887
    82   6 C        2.983     0.004    27.919     8.667
    83   6 C        2.988    -0.000    28.029     8.684
    84   6 C        2.988    -0.000    28.024     8.684
    85   6 C        2.981     0.013    27.724     8.637
    86   6 C        2.987     0.000    28.020     8.683
    87   6 C        2.976     0.007    27.871     8.660
    88   6 C        2.999     0.000    28.009     8.681
    89   6 C        2.920    -0.037    28.908     8.817
    90   6 C        2.987    -0.001    28.034     8.685
    91   6 C        3.004    -0.000    28.021     8.683
    92   6 C        2.987    -0.000    28.033     8.685
    93   6 C        3.026    -0.043    29.041     8.840
    94   6 C        2.986    -0.001    28.038     8.686
    95   6 C        2.912    -0.030    28.738     8.790
    96   6 C        2.983    -0.002    28.063     8.690
    97   6 C        2.989     0.001    27.986     8.678
    98   6 C        2.982     0.004    27.920     8.668
    99   6 C        2.987    -0.001    28.039     8.686
   100   6 C        2.925    -0.043    29.059     8.840
   101   6 C        2.987    -0.001    28.039     8.686
   102   6 C        2.991     0.001    27.990     8.679
   103   1 H        0.926     0.034     2.534     2.489
   104   1 H        0.926     0.035     2.520     2.482
   105   1 H        0.926     0.038     2.470     2.458
   106   1 H        0.926     0.033     2.545     2.495
   107   1 H        0.926     0.034     2.531     2.488
   108   1 H        0.926     0.035     2.515     2.480
   109   1 H        0.926     0.042     2.420     2.433
   110   1 H        0.926     0.040     2.454     2.450
   111   1 H        0.926     0.037     2.491     2.468
   112   1 H        0.926     0.030     2.582     2.513
   113   1 H        0.926     0.032     2.556     2.500
   114   1 H        0.926     0.033     2.543     2.494
   115   1 H        0.926     0.033     2.538     2.491
   116   1 H        0.926     0.034     2.531     2.488
   117   1 H        0.926     0.033     2.543     2.494
   118   1 H        0.926     0.032     2.556     2.500
   119   1 H        0.926     0.033     2.545     2.495
   120   1 H        0.926     0.037     2.491     2.468
   121   1 H        0.926     0.033     2.538     2.491
   122   1 H        0.926     0.035     2.516     2.481
   123   1 H        0.926     0.035     2.519     2.482
   124   1 H        0.926     0.040     2.454     2.450
   125   1 H        0.926     0.034     2.534     2.489
   126   1 H        0.926     0.042     2.420     2.433
   127   1 H        0.926     0.030     2.582     2.513
   128   1 H        0.926     0.038     2.471     2.458
   129  16 S        2.227    -0.112   145.736    20.318
   130  16 S        2.227    -0.112   145.734    20.318

 Mol. C6AA /au·bohr⁶  :     368200.662049
 Mol. C8AA /au·bohr⁸  :   10394530.109836
 Mol. α(0) /au        :        993.338883


Wiberg/Mayer (AO) data.
largest (>0.10) Wiberg bond orders for each atom

 ---------------------------------------------------------------------------
     #   Z sym  total        # sym  WBO       # sym  WBO       # sym  WBO
 ---------------------------------------------------------------------------
     1   6 C    3.971 --     8 C    1.488     9 C    1.345   103 H    0.961
     2   6 C    3.961 --    10 C    1.501    11 C    1.329   104 H    0.961
     3   6 C    3.966 --     8 C    1.336    12 C    1.278    11 C    1.152
     4   6 C    3.976 --    18 C    1.471    19 C    1.346   105 H    0.959
     5   6 C    3.962 --    10 C    1.329    20 C    1.291    19 C    1.142
     6   6 C    3.978 --    11 C    1.283    20 C    1.251    21 C    1.219
     7   6 C    3.901 --    29 C    1.392    28 C    1.382   106 H    0.962
     8   6 C    3.953 --     1 C    1.488     3 C    1.336   107 H    0.961
     9   6 C    3.950 --     1 C    1.345    31 C    1.278    29 C    1.135
    10   6 C    3.961 --     2 C    1.501     5 C    1.329   108 H    0.959
    11   6 C    3.961 --     2 C    1.329     6 C    1.283     3 C    1.152
    12   6 C    3.976 --     3 C    1.278    31 C    1.249    34 C    1.226
    13   6 C    3.972 --    22 C    1.415    18 C    1.403   109 H    0.967
    14   6 C    3.978 --    22 C    1.301    19 C    1.283    23 C    1.163
    15   6 C    3.961 --    23 C    1.274    24 C    1.254    20 C    1.211
    16   6 C    3.941 --    23 C    1.291    26 C    1.240    25 C    1.196
    17   6 C    3.949 --    25 C    1.543    27 C    1.222   110 H    0.963
    18   6 C    3.977 --     4 C    1.471    13 C    1.403   111 H    0.969
    19   6 C    3.974 --     4 C    1.346    14 C    1.283     5 C    1.142
    20   6 C    3.979 --     5 C    1.291     6 C    1.251    15 C    1.211
    21   6 C    3.953 --    44 C    1.276    34 C    1.246     6 C    1.219
    22   6 C    3.954 --    13 C    1.415    14 C    1.301   130 S    1.060
    23   6 C    3.944 --    16 C    1.291    15 C    1.274    14 C    1.163
    24   6 C    3.967 --    53 C    1.271    15 C    1.254    44 C    1.219
    25   6 C    3.944 --    17 C    1.543    16 C    1.196   130 S    1.049
    26   6 C    3.970 --    61 C    1.271    16 C    1.240    53 C    1.233
    27   6 C    3.978 --    68 C    1.404    17 C    1.222    61 C    1.192
    28   6 C    3.983 --    38 C    1.507     7 C    1.382   112 H    0.970
    29   6 C    3.982 --     7 C    1.392    39 C    1.262     9 C    1.135
    30   6 C    3.985 --    40 C    1.331    38 C    1.273    39 C    1.218
    31   6 C    3.981 --     9 C    1.278    12 C    1.249    41 C    1.229
    32   6 C    3.980 --    42 C    1.280    39 C    1.254    41 C    1.221
    33   6 C    3.985 --    40 C    1.352    43 C    1.287    42 C    1.186
    34   6 C    3.959 --    74 C    1.269    21 C    1.246    12 C    1.226
    35   6 C    3.969 --    41 C    1.283    77 C    1.245    74 C    1.219
    36   6 C    3.978 --    42 C    1.266    79 C    1.264    77 C    1.227
    37   6 C    3.978 --    43 C    1.404    81 C    1.221    79 C    1.192
    38   6 C    3.906 --    28 C    1.507    30 C    1.273   113 H    0.969
    39   6 C    3.955 --    29 C    1.262    32 C    1.254    30 C    1.218
    40   6 C    3.825 --    33 C    1.352    30 C    1.331   114 H    0.966
    41   6 C    3.940 --    35 C    1.283    31 C    1.229    32 C    1.221
    42   6 C    3.958 --    32 C    1.280    36 C    1.266    33 C    1.186
    43   6 C    3.858 --    37 C    1.404    33 C    1.287   115 H    0.966
    44   6 C    3.959 --    21 C    1.276    83 C    1.248    24 C    1.219
    45   6 C    3.944 --    81 C    1.544    88 C    1.196   129 S    1.049
    46   6 C    3.953 --    89 C    1.488    82 C    1.336   116 H    0.961
    47   6 C    3.963 --    74 C    1.257    84 C    1.249    83 C    1.239
    48   6 C    3.824 --    75 C    1.352    85 C    1.331   117 H    0.966
    49   6 C    3.964 --    77 C    1.270    86 C    1.240    84 C    1.233
    50   6 C    3.954 --    87 C    1.262    78 C    1.254    85 C    1.218
    51   6 C    3.970 --    79 C    1.271    88 C    1.240    86 C    1.233
    52   6 C    3.950 --    89 C    1.345    80 C    1.278    87 C    1.136
    53   6 C    3.965 --    24 C    1.271    90 C    1.240    26 C    1.233
    54   6 C    3.945 --    88 C    1.291    96 C    1.274    91 C    1.163
    55   6 C    3.952 --    83 C    1.259    92 C    1.249    90 C    1.233
    56   6 C    3.954 --    93 C    1.414    91 C    1.302   129 S    1.060
    57   6 C    3.962 --    84 C    1.259    94 C    1.248    92 C    1.239
    58   6 C    3.906 --    95 C    1.508    85 C    1.273   118 H    0.969
    59   6 C    3.967 --    86 C    1.272    96 C    1.253    94 C    1.219
    60   6 C    3.901 --    87 C    1.392    95 C    1.382   119 H    0.962
    61   6 C    3.941 --    26 C    1.271    97 C    1.263    27 C    1.192
    62   6 C    3.979 --    98 C    1.290   102 C    1.252    96 C    1.212
    63   6 C    3.955 --    90 C    1.270    99 C    1.245    97 C    1.227
    64   6 C    3.975 --   100 C    1.346    91 C    1.283    98 C    1.143
    65   6 C    3.960 --   101 C    1.269    92 C    1.256    99 C    1.219
    66   6 C    3.977 --   100 C    1.471    93 C    1.404   120 H    0.969
    67   6 C    3.953 --    94 C    1.276   101 C    1.245   102 C    1.219
    68   6 C    3.857 --    27 C    1.404    75 C    1.288   121 H    0.966
    69   6 C    3.961 --    76 C    1.329   102 C    1.282    82 C    1.152
    70   6 C    3.958 --    78 C    1.280    97 C    1.266    75 C    1.186
    71   6 C    3.961 --    76 C    1.502    98 C    1.329   122 H    0.958
    72   6 C    3.940 --    99 C    1.283    80 C    1.229    78 C    1.221
    73   6 C    3.976 --    82 C    1.278    80 C    1.249   101 C    1.226
    74   6 C    3.960 --    34 C    1.269    47 C    1.257    35 C    1.219
    75   6 C    3.985 --    48 C    1.352    68 C    1.288    70 C    1.186
    76   6 C    3.961 --    71 C    1.502    69 C    1.329   123 H    0.961
    77   6 C    3.955 --    49 C    1.270    35 C    1.245    36 C    1.227
    78   6 C    3.980 --    70 C    1.280    50 C    1.254    72 C    1.221
    79   6 C    3.941 --    51 C    1.271    36 C    1.264    37 C    1.192
    80   6 C    3.981 --    52 C    1.278    73 C    1.249    72 C    1.229
    81   6 C    3.949 --    45 C    1.544    37 C    1.221   124 H    0.964
    82   6 C    3.966 --    46 C    1.336    73 C    1.278    69 C    1.152
    83   6 C    3.962 --    55 C    1.259    44 C    1.248    47 C    1.239
    84   6 C    3.952 --    57 C    1.259    47 C    1.249    49 C    1.233
    85   6 C    3.985 --    48 C    1.331    58 C    1.273    50 C    1.218
    86   6 C    3.965 --    59 C    1.272    49 C    1.240    51 C    1.233
    87   6 C    3.982 --    60 C    1.392    50 C    1.262    52 C    1.136
    88   6 C    3.941 --    54 C    1.291    51 C    1.240    45 C    1.196
    89   6 C    3.971 --    46 C    1.488    52 C    1.345   125 H    0.961
    90   6 C    3.964 --    63 C    1.270    53 C    1.240    55 C    1.233
    91   6 C    3.978 --    56 C    1.302    64 C    1.283    54 C    1.163
    92   6 C    3.963 --    65 C    1.256    55 C    1.249    57 C    1.239
    93   6 C    3.972 --    56 C    1.414    66 C    1.404   126 H    0.967
    94   6 C    3.959 --    67 C    1.276    57 C    1.248    59 C    1.219
    95   6 C    3.983 --    58 C    1.508    60 C    1.382   127 H    0.970
    96   6 C    3.961 --    54 C    1.274    59 C    1.253    62 C    1.212
    97   6 C    3.978 --    70 C    1.266    61 C    1.263    63 C    1.227
    98   6 C    3.962 --    71 C    1.329    62 C    1.290    64 C    1.143
    99   6 C    3.969 --    72 C    1.283    63 C    1.245    65 C    1.219
   100   6 C    3.975 --    66 C    1.471    64 C    1.346   128 H    0.959
   101   6 C    3.959 --    65 C    1.269    67 C    1.245    73 C    1.226
   102   6 C    3.978 --    69 C    1.282    62 C    1.252    67 C    1.219
   103   1 H    0.998 --     1 C    0.961
   104   1 H    0.997 --     2 C    0.961
   105   1 H    0.997 --     4 C    0.959
   106   1 H    0.998 --     7 C    0.962
   107   1 H    0.998 --     8 C    0.961
   108   1 H    0.998 --    10 C    0.959
   109   1 H    0.997 --    13 C    0.967
   110   1 H    0.997 --    17 C    0.963
   111   1 H    0.997 --    18 C    0.969
   112   1 H    0.998 --    28 C    0.970
   113   1 H    0.998 --    38 C    0.969
   114   1 H    0.998 --    40 C    0.966
   115   1 H    0.997 --    43 C    0.966
   116   1 H    0.998 --    46 C    0.961
   117   1 H    0.998 --    48 C    0.966
   118   1 H    0.998 --    58 C    0.969
   119   1 H    0.998 --    60 C    0.962
   120   1 H    0.997 --    66 C    0.969
   121   1 H    0.997 --    68 C    0.966
   122   1 H    0.998 --    71 C    0.958
   123   1 H    0.997 --    76 C    0.961
   124   1 H    0.997 --    81 C    0.964
   125   1 H    0.998 --    89 C    0.961
   126   1 H    0.997 --    93 C    0.967
   127   1 H    0.998 --    95 C    0.970
   128   1 H    0.997 --   100 C    0.959
   129  16 S    2.432 --    56 C    1.060    45 C    1.049
   130  16 S    2.431 --    22 C    1.060    25 C    1.049
 ---------------------------------------------------------------------------

Topologies differ in total number of bonds
Writing topology from bond orders to xtbtopo.mol

molecular dipole:
                 x           y           z       tot (Debye)
 q only:        0.001      -0.003       0.012
   full:        0.003      -0.004       0.018       0.048
molecular quadrupole (traceless):
                xx          xy          yy          xz          yz          zz
 q only:      -15.364      -1.402      34.285       6.465      -2.580     -18.921
  q+dip:       -3.052      -1.290      66.863       9.783      -4.447     -63.811
   full:      -22.025      -1.595      48.127       9.907      -3.598     -26.102


           -------------------------------------------------
          | TOTAL ENERGY             -238.951487991591 Eh   |
          | GRADIENT NORM               0.000346247922 Eh/α |
          | HOMO-LUMO GAP               0.321898251518 eV   |
           -------------------------------------------------

------------------------------------------------------------------------
 * finished run on 2025/12/08 at 00:32:17.171     
------------------------------------------------------------------------
 total:
 * wall-time:     0 d,  0 h,  0 min,  0.376 sec
 *  cpu-time:     0 d,  0 h,  0 min,  4.500 sec
 * ratio c/w:    11.968 speedup
 SCF:
 * wall-time:     0 d,  0 h,  0 min,  0.293 sec
 *  cpu-time:     0 d,  0 h,  0 min,  3.672 sec
 * ratio c/w:    12.532 speedup

normal termination of xtb
