      -----------------------------------------------------------      
     |                   =====================                   |     
     |                           x T B                           |     
     |                   =====================                   |     
     |                         S. Grimme                         |     
     |          Mulliken Center for Theoretical Chemistry        |     
     |                    University of Bonn                     |     
      -----------------------------------------------------------      

   * xtb version 6.7.1pre (5071a88) compiled by 'Marcel@Raven' on 2024-07-23

   xtb is free software: you can redistribute it and/or modify it under
   the terms of the GNU Lesser General Public License as published by
   the Free Software Foundation, either version 3 of the License, or
   (at your option) any later version.
   
   xtb is distributed in the hope that it will be useful,
   but WITHOUT ANY WARRANTY; without even the implied warranty of
   MERCHANTABILITY or FITNESS FOR A PARTICULAR PURPOSE.  See the
   GNU Lesser General Public License for more details.
   
   Cite this work as:
   * C. Bannwarth, E. Caldeweyher, S. Ehlert, A. Hansen, P. Pracht,
     J. Seibert, S. Spicher, S. Grimme, WIREs Comput. Mol. Sci., 2020, 11,
     e01493. DOI: 10.1002/wcms.1493
   
   for GFN2-xTB:
   * C. Bannwarth, S. Ehlert and S. Grimme., J. Chem. Theory Comput., 2019,
     15, 1652-1671. DOI: 10.1021/acs.jctc.8b01176
   for GFN1-xTB:
   * S. Grimme, C. Bannwarth, P. Shushkov, J. Chem. Theory Comput., 2017,
     13, 1989-2009. DOI: 10.1021/acs.jctc.7b00118
   for GFN0-xTB:
   * P. Pracht, E. Caldeweyher, S. Ehlert, S. Grimme, ChemRxiv, 2019, preprint.
     DOI: 10.26434/chemrxiv.8326202.v1
   for GFN-FF:
   * S. Spicher and S. Grimme, Angew. Chem. Int. Ed., 2020, 59, 15665-15673.
     DOI: 10.1002/anie.202004239
   
   for ALPB and GBSA implicit solvation:
   * S. Ehlert, M. Stahn, S. Spicher, S. Grimme, J. Chem. Theory Comput.,
     2021, 17, 4250-4261. DOI: 10.1021/acs.jctc.1c00471
   
   for ddCOSMO and CPCM-X implicit solvation:
   * M. Stahn, S. Ehlert, S. Grimme, J. Phys. Chem. A,
     2023, XX, XXXX-XXXX. DOI: 10.1021/acs.jpca.3c04382
   
   for DFT-D4:
   * E. Caldeweyher, C. Bannwarth and S. Grimme, J. Chem. Phys., 2017,
     147, 034112. DOI: 10.1063/1.4993215
   * E. Caldeweyher, S. Ehlert, A. Hansen, H. Neugebauer, S. Spicher,
     C. Bannwarth and S. Grimme, J. Chem. Phys., 2019, 150, 154122.
     DOI: 10.1063/1.5090222
   * E. Caldeweyher, J.-M. Mewes, S. Ehlert and S. Grimme, Phys. Chem. Chem. Phys.
     2020, 22, 8499-8512. DOI: 10.1039/D0CP00502A
   
   for sTDA-xTB:
   * S. Grimme and C. Bannwarth, J. Chem. Phys., 2016, 145, 054103.
     DOI: 10.1063/1.4959605
   
   in the mass-spec context:
   * V. Asgeirsson, C. Bauer and S. Grimme, Chem. Sci., 2017, 8, 4879.
     DOI: 10.1039/c7sc00601b
   * J. Koopman and S. Grimme, ACS Omega 2019, 4, 12, 15120-15133.
     DOI: 10.1021/acsomega.9b02011
   
   for metadynamics refer to:
   * S. Grimme, J. Chem. Theory Comput., 2019, 155, 2847-2862
     DOI: 10.1021/acs.jctc.9b00143
   
   for SPH calculations refer to:
   * S. Spicher and S. Grimme, J. Chem. Theory Comput., 2021, 17, 1701-1714
     DOI: 10.1021/acs.jctc.0c01306
   
   for ONIOM refer to:
   * C. Plett, A. Katbashev, S. Ehlert, S. Grimme, M. Bursch,
     Phys. Chem. Chem. Phys., 2023, 25, 17860-17868. DOI: 10.1039/D3CP02178E
   
   for DIPRO refer to:
   * J. Kohn, N. Gildemeister, S. Grimme, D. Fazzi, A. Hansen,
     J. Chem. Phys., 2023, just accepted.
   
   for PTB refer to:
   * S. Grimme, M. Mueller, A. Hansen, J. Chem. Phys., 2023, 158, 124111.
     DOI: 10.1063/5.0137838
   
   with help from (in alphabetical order)
   P. Atkinson, C. Bannwarth, F. Bohle, G. Brandenburg, E. Caldeweyher
   M. Checinski, S. Dohm, S. Ehlert, S. Ehrlich, I. Gerasimov, C. Hölzer
   A. Katbashev, J. Kohn, J. Koopman, C. Lavigne, S. Lehtola, F. März, M. Müller,
   F. Musil, H. Neugebauer, J. Pisarek, C. Plett, P. Pracht, F. Pultar,
   J. Seibert, P. Shushkov, S. Spicher, M. Stahn, M. Steiner, T. Strunk,
   J. Stückrath, T. Rose, and J. Unsleber
   
 * started run on 2025/12/08 at 00:32:03.875     
   ID    Z sym.   atoms
    1    6 C      1-102
    2    1 H      103-128
    3   16 S      129, 130

           -------------------------------------------------
          |                Calculation Setup                |
           -------------------------------------------------

          program call               : xtb "C:\Users\LENOVO GAMING\Documents\GitHub\molecular-conductivity-sim\dataset\1.5nm-2Sdoped-1.5percent.xyz" --opt --parallel 4
          coordinate file            : C:\Users\LENOVO GAMING\Documents\GitHub\molecular-conductivity-sim\dataset\1.5nm-2Sdoped-1.5percent.xyz
          omp threads                :                     4


           -------------------------------------------------
          |                 G F N 2 - x T B                 |
           -------------------------------------------------

        Reference                      10.1021/acs.jctc.8b01176
      * Hamiltonian:
        H0-scaling (s, p, d)           1.850000    2.230000    2.230000
        zeta-weighting                 0.500000
      * Dispersion:
        s8                             2.700000
        a1                             0.520000
        a2                             5.000000
        s9                             5.000000
      * Repulsion:
        kExp                           1.500000    1.000000
        rExp                           1.000000
      * Coulomb:
        alpha                          2.000000
        third order                    shell-resolved
        anisotropic                    true
        a3                             3.000000
        a5                             4.000000
        cn-shift                       1.200000
        cn-exp                         4.000000
        max-rad                        5.000000


          ...................................................
          :                      SETUP                      :
          :.................................................:
          :  # basis functions                 454          :
          :  # atomic orbitals                 452          :
          :  # shells                          236          :
          :  # electrons                       446          :
          :  max. iterations                   250          :
          :  Hamiltonian                  GFN2-xTB          :
          :  restarted?                      false          :
          :  GBSA solvation                  false          :
          :  PC potential                    false          :
          :  electronic temp.          300.0000000     K    :
          :  accuracy                    1.0000000          :
          :  -> integral cutoff          0.2500000E+02      :
          :  -> integral neglect         0.1000000E-07      :
          :  -> SCF convergence          0.1000000E-05 Eh   :
          :  -> wf. convergence          0.1000000E-03 e    :
          :  Broyden damping             0.4000000          :
          :  net charge                          0          :
          :  unpaired electrons                  0          :
          ...................................................

 iter      E             dE          RMSdq      gap      omega  full diag
   1   -243.1926330 -0.243193E+03  0.505E+00    0.35       0.0  T
   2   -243.2370225 -0.443894E-01  0.299E+00    0.34       1.0  T
   3   -243.0997521  0.137270E+00  0.101E+00    0.31       1.0  T
   4   -243.2533422 -0.153590E+00  0.249E-01    0.34       1.0  T
   5   -243.2516553  0.168690E-02  0.200E-01    0.34       1.0  T
   6   -243.2361795  0.154758E-01  0.296E-01    0.37       1.0  T
   7   -243.2569264 -0.207469E-01  0.890E-02    0.34       1.0  T
   8   -243.2585889 -0.166251E-02  0.318E-02    0.34       1.0  T
   9   -243.2587611 -0.172213E-03  0.870E-03    0.34       1.0  T
  10   -243.2587634 -0.232040E-05  0.503E-03    0.34       1.7  T
  11   -243.2587649 -0.151164E-05  0.154E-03    0.34       5.7  T
  12   -243.2587652 -0.299153E-06  0.489E-04    0.34      17.9  T
  13   -243.2587653 -0.152899E-07  0.236E-04    0.34      37.2  T

   *** convergence criteria satisfied after 13 iterations ***

         #    Occupation            Energy/Eh            Energy/eV
      -------------------------------------------------------------
         1        2.0000           -0.7224300             -19.6583
       ...           ...                  ...                  ...
       217        2.0000           -0.3824883             -10.4080
       218        2.0000           -0.3777920             -10.2802
       219        2.0000           -0.3725415             -10.1374
       220        2.0000           -0.3612312              -9.8296
       221        2.0000           -0.3562890              -9.6951
       222        2.0000           -0.3498092              -9.5188
       223        1.9972           -0.3329419              -9.0598 (HOMO)
       224        0.0028           -0.3204399              -8.7196 (LUMO)
       225                         -0.2941668              -8.0047
       226                         -0.2890032              -7.8642
       227                         -0.2746904              -7.4747
       228                         -0.2692995              -7.3280
       ...                                ...                  ...
       452                          0.7429165              20.2158
      -------------------------------------------------------------
                  HL-Gap            0.0125021 Eh            0.3402 eV
             Fermi-level           -0.3266909 Eh           -8.8897 eV

 SCC (total)                   0 d,  0 h,  0 min,  1.037 sec
 SCC setup                      ...        0 min,  0.003 sec (  0.289%)
 Dispersion                     ...        0 min,  0.006 sec (  0.579%)
 classical contributions        ...        0 min,  0.001 sec (  0.096%)
 integral evaluation            ...        0 min,  0.047 sec (  4.532%)
 iterations                     ...        0 min,  0.806 sec ( 77.724%)
 molecular gradient             ...        0 min,  0.169 sec ( 16.297%)
 printout                       ...        0 min,  0.005 sec (  0.482%)

         :::::::::::::::::::::::::::::::::::::::::::::::::::::
         ::                     SUMMARY                     ::
         :::::::::::::::::::::::::::::::::::::::::::::::::::::
         :: total energy            -238.934417845988 Eh    ::
         :: gradient norm              0.044312426155 Eh/a0 ::
         :: HOMO-LUMO gap              0.340199012273 eV    ::
         ::.................................................::
         :: SCC energy              -243.266534550776 Eh    ::
         :: -> isotropic ES            0.003330448953 Eh    ::
         :: -> anisotropic ES          0.010810301390 Eh    ::
         :: -> anisotropic XC          0.096241290330 Eh    ::
         :: -> dispersion             -0.289059049340 Eh    ::
         :: repulsion energy           4.332116704788 Eh    ::
         :: add. restraining           0.000000000000 Eh    ::
         :: total charge               0.000000000054 e     ::
         :::::::::::::::::::::::::::::::::::::::::::::::::::::

      ----------------------------------------------------------- 
     |                   =====================                   |
     |                        A N C O P T                        |
     |                   =====================                   |
     |               Approximate Normal Coordinate               |
     |                Rational Function Optimizer                |
      ----------------------------------------------------------- 
      ----------------------------------------------------------- 
     |                   =====================                   |
     |                        A N C O P T                        |
     |                   =====================                   |
     |               Approximate Normal Coordinate               |
     |                Rational Function Optimizer                |
      ----------------------------------------------------------- 

          ...................................................
          :                      SETUP                      :
          :.................................................:
          :   optimization level            normal          :
          :   max. optcycles                   390          :
          :   ANC micro-cycles                  20          :
          :   degrees of freedom               384          :
          :.................................................:
          :   RF solver                   davidson          :
          :   write xtbopt.log                true          :
          :   linear?                        false          :
          :   energy convergence         0.5000000E-05 Eh   :
          :   grad. convergence          0.1000000E-02 Eh/α :
          :   maxmium RF displ.          1.0000000          :
          :   Hlow (freq-cutoff)         0.1000000E-01      :
          :   Hmax (freq-cutoff)         5.0000000          :
          :   S6 in model hess.         20.0000000          :
          ...................................................

generating ANC from exact Hessian ...
Using Lindh-Hessian (1995)
 Shifting diagonal of input Hessian by   9.879492888604959E-003
 Lowest  eigenvalues of input Hessian
    0.000000    0.000000    0.000000    0.000000    0.000000    0.000000
    0.010000    0.010151    0.010209    0.010430    0.010490    0.011337
    0.011358    0.011627    0.011786    0.012081    0.012946    0.013262
 Highest eigenvalues
    2.070636    2.081535    2.090205    2.115260    2.122632    2.136725
 

........................................................................
.............................. CYCLE    1 ..............................
........................................................................

 iter      E             dE          RMSdq      gap      omega  full diag
   1   -243.2587653 -0.243259E+03  0.106E-04    0.34       0.0  T
   2   -243.2587653  0.298712E-09  0.888E-05    0.34      98.8  T
   3   -243.2587653 -0.769376E-09  0.660E-05    0.34     133.0  T
     SCC iter.                  ...        0 min,  0.189 sec
     gradient                   ...        0 min,  0.180 sec
 * total energy  :  -238.9344179 Eh     change       -0.5875762E-08 Eh
   gradient norm :     0.0443126 Eh/α   predicted     0.0000000E+00 (-100.00%)
   displ. norm   :     0.4961896 α      lambda       -0.1546626E-01
   maximum displ.:     0.2418782 α      in ANC's #41, #49, #44, ...

........................................................................
.............................. CYCLE    2 ..............................
........................................................................

 iter      E             dE          RMSdq      gap      omega  full diag
   1   -243.4070229 -0.243407E+03  0.112E-01    0.34       0.0  T
   2   -243.4070149  0.804755E-05  0.697E-02    0.33       1.0  T
   3   -243.4065330  0.481862E-03  0.584E-02    0.34       1.0  T
   4   -243.4069164 -0.383370E-03  0.245E-02    0.33       1.0  T
   5   -243.4069418 -0.253910E-04  0.223E-02    0.33       1.0  T
   6   -243.4070614 -0.119616E-03  0.608E-03    0.34       1.4  T
   7   -243.4070682 -0.676373E-05  0.140E-03    0.33       6.3  T
   8   -243.4070684 -0.232610E-06  0.389E-04    0.33      22.5  T
   9   -243.4070684 -0.475416E-08  0.228E-04    0.33      38.4  T
     SCC iter.                  ...        0 min,  0.535 sec
     gradient                   ...        0 min,  0.165 sec
 * total energy  :  -238.9459851 Eh     change       -0.1156723E-01 Eh
   gradient norm :     0.0204659 Eh/α   predicted    -0.9637174E-02 ( -16.69%)
   displ. norm   :     0.4939077 α      lambda       -0.7295145E-02
   maximum displ.:     0.2513080 α      in ANC's #41, #49, #44, ...

........................................................................
.............................. CYCLE    3 ..............................
........................................................................

 iter      E             dE          RMSdq      gap      omega  full diag
   1   -243.5267759 -0.243527E+03  0.967E-02    0.33       0.0  T
   2   -243.5267607  0.151787E-04  0.599E-02    0.33       1.0  T
   3   -243.5262966  0.464148E-03  0.546E-02    0.33       1.0  T
   4   -243.5267924 -0.495837E-03  0.101E-02    0.33       1.0  T
   5   -243.5267998 -0.736059E-05  0.678E-03    0.33       1.3  T
   6   -243.5267109  0.888472E-04  0.193E-02    0.33       1.0  T
   7   -243.5268090 -0.980948E-04  0.118E-03    0.33       7.4  T
   8   -243.5268093 -0.232980E-06  0.357E-04    0.33      24.6  T
   9   -243.5268093 -0.676403E-08  0.193E-04    0.33      45.5  T
     SCC iter.                  ...        0 min,  0.565 sec
     gradient                   ...        0 min,  0.184 sec
 * total energy  :  -238.9506140 Eh     change       -0.4628867E-02 Eh
   gradient norm :     0.0083030 Eh/α   predicted    -0.4537504E-02 (  -1.97%)
   displ. norm   :     0.2141602 α      lambda       -0.9530121E-03
   maximum displ.:     0.1028168 α      in ANC's #41, #49, #44, ...

........................................................................
.............................. CYCLE    4 ..............................
........................................................................

 iter      E             dE          RMSdq      gap      omega  full diag
   1   -243.5646363 -0.243565E+03  0.436E-02    0.32       0.0  T
   2   -243.5646331  0.322451E-05  0.270E-02    0.32       1.0  T
   3   -243.5645220  0.111144E-03  0.252E-02    0.32       1.0  T
   4   -243.5646393 -0.117369E-03  0.520E-03    0.32       1.7  T
   5   -243.5646179  0.214006E-04  0.100E-02    0.32       1.0  T
   6   -243.5646402 -0.222569E-04  0.403E-03    0.32       2.2  T
   7   -243.5646441 -0.392275E-05  0.527E-04    0.32      16.6  T
   8   -243.5646441 -0.167902E-07  0.240E-04    0.32      36.6  T
   9   -243.5646441 -0.620938E-08  0.122E-04    0.32      71.7  T
     SCC iter.                  ...        0 min,  0.572 sec
     gradient                   ...        0 min,  0.171 sec
 * total energy  :  -238.9511541 Eh     change       -0.5401114E-03 Eh
   gradient norm :     0.0041324 Eh/α   predicted    -0.4983613E-03 (  -7.73%)
   displ. norm   :     0.0603576 α      lambda       -0.7158921E-04
   maximum displ.:     0.0242831 α      in ANC's #6, #49, #19, ...

........................................................................
.............................. CYCLE    5 ..............................
........................................................................

 iter      E             dE          RMSdq      gap      omega  full diag
   1   -243.5672115 -0.243567E+03  0.143E-02    0.32       0.0  T
   2   -243.5672114  0.115840E-06  0.862E-03    0.32       1.0  T
   3   -243.5672013  0.100842E-04  0.778E-03    0.32       1.1  T
   4   -243.5672107 -0.939867E-05  0.275E-03    0.32       3.2  T
   5   -243.5672049  0.576466E-05  0.533E-03    0.32       1.6  T
   6   -243.5672123 -0.741141E-05  0.654E-04    0.32      13.4  T
   7   -243.5672124 -0.798971E-07  0.154E-04    0.32      57.1  T
   8   -243.5672124 -0.614762E-09  0.796E-05    0.32     110.1  T
     SCC iter.                  ...        0 min,  0.500 sec
     gradient                   ...        0 min,  0.171 sec
 * total energy  :  -238.9512064 Eh     change       -0.5232263E-04 Eh
   gradient norm :     0.0022017 Eh/α   predicted    -0.3592968E-04 ( -31.33%)
   displ. norm   :     0.0905352 α      lambda       -0.6006462E-04
   maximum displ.:     0.0467927 α      in ANC's #6, #5, #19, ...

........................................................................
.............................. CYCLE    6 ..............................
........................................................................

 iter      E             dE          RMSdq      gap      omega  full diag
   1   -243.5662753 -0.243566E+03  0.193E-02    0.32       0.0  T
   2   -243.5662752  0.311858E-07  0.113E-02    0.32       1.0  T
   3   -243.5662607  0.145108E-04  0.967E-03    0.32       1.0  T
   4   -243.5662712 -0.105030E-04  0.466E-03    0.32       1.9  T
   5   -243.5662673  0.395341E-05  0.598E-03    0.32       1.5  T
   6   -243.5662765 -0.921221E-05  0.821E-04    0.32      10.7  T
   7   -243.5662766 -0.122114E-06  0.184E-04    0.32      47.7  T
   8   -243.5662766 -0.137825E-08  0.965E-05    0.32      90.8  T
     SCC iter.                  ...        0 min,  0.494 sec
     gradient                   ...        0 min,  0.171 sec
 * total energy  :  -238.9512471 Eh     change       -0.4068733E-04 Eh
   gradient norm :     0.0011142 Eh/α   predicted    -0.3029420E-04 ( -25.54%)
   displ. norm   :     0.1269215 α      lambda       -0.3090523E-04
   maximum displ.:     0.0717308 α      in ANC's #6, #5, #15, ...

........................................................................
.............................. CYCLE    7 ..............................
........................................................................

 iter      E             dE          RMSdq      gap      omega  full diag
   1   -243.5636609 -0.243564E+03  0.237E-02    0.32       0.0  T
   2   -243.5636610 -0.650262E-07  0.138E-02    0.32       1.0  T
   3   -243.5636459  0.151565E-04  0.100E-02    0.32       1.0  T
   4   -243.5636563 -0.104442E-04  0.483E-03    0.32       1.8  T
   5   -243.5636552  0.107605E-05  0.517E-03    0.32       1.7  T
   6   -243.5636620 -0.679140E-05  0.942E-04    0.32       9.3  T
   7   -243.5636622 -0.173819E-06  0.187E-04    0.32      46.8  T
   8   -243.5636622 -0.170391E-08  0.940E-05    0.32      93.3  T
     SCC iter.                  ...        0 min,  0.504 sec
     gradient                   ...        0 min,  0.175 sec
 * total energy  :  -238.9512750 Eh     change       -0.2790716E-04 Eh
   gradient norm :     0.0022519 Eh/α   predicted    -0.1556452E-04 ( -44.23%)
   displ. norm   :     0.0467893 α      lambda       -0.1582719E-04
   maximum displ.:     0.0266007 α      in ANC's #6, #5, #4, ...

........................................................................
.............................. CYCLE    8 ..............................
........................................................................

 iter      E             dE          RMSdq      gap      omega  full diag
   1   -243.5633154 -0.243563E+03  0.745E-03    0.32       0.0  T
   2   -243.5633154 -0.188382E-07  0.436E-03    0.32       2.0  T
   3   -243.5633152  0.202266E-06  0.968E-04    0.32       9.1  T
   4   -243.5633152  0.789503E-07  0.108E-03    0.32       8.1  T
   5   -243.5633154 -0.220865E-06  0.568E-04    0.32      15.5  T
     SCC iter.                  ...        0 min,  0.314 sec
     gradient                   ...        0 min,  0.178 sec
 * total energy  :  -238.9512884 Eh     change       -0.1338659E-04 Eh
   gradient norm :     0.0016005 Eh/α   predicted    -0.7931134E-05 ( -40.75%)
   displ. norm   :     0.1427596 α      lambda       -0.2572582E-04
   maximum displ.:     0.0799657 α      in ANC's #5, #6, #4, ...

........................................................................
.............................. CYCLE    9 ..............................
........................................................................

 iter      E             dE          RMSdq      gap      omega  full diag
   1   -243.5630466 -0.243563E+03  0.211E-02    0.32       0.0  T
   2   -243.5630467 -0.131854E-06  0.123E-02    0.32       1.0  T
   3   -243.5630435  0.323555E-05  0.386E-03    0.32       2.3  T
   4   -243.5630417  0.171469E-05  0.443E-03    0.32       2.0  T
   5   -243.5630459 -0.414311E-05  0.200E-03    0.32       4.4  T
   6   -243.5630468 -0.942016E-06  0.334E-04    0.32      26.3  T
   7   -243.5630468 -0.175737E-07  0.118E-04    0.32      74.6  T
     SCC iter.                  ...        0 min,  0.458 sec
     gradient                   ...        0 min,  0.183 sec
 * total energy  :  -238.9513120 Eh     change       -0.2361327E-04 Eh
   gradient norm :     0.0010863 Eh/α   predicted    -0.1298024E-04 ( -45.03%)
   displ. norm   :     0.0911174 α      lambda       -0.1140666E-04
   maximum displ.:     0.0535127 α      in ANC's #5, #6, #4, ...

........................................................................
.............................. CYCLE   10 ..............................
........................................................................

 iter      E             dE          RMSdq      gap      omega  full diag
   1   -243.5635157 -0.243564E+03  0.121E-02    0.32       0.0  T
   2   -243.5635158 -0.286786E-07  0.704E-03    0.32       1.2  T
   3   -243.5635126  0.320305E-05  0.353E-03    0.32       2.5  T
   4   -243.5635148 -0.227844E-05  0.193E-03    0.32       4.5  T
   5   -243.5635158 -0.922153E-06  0.451E-04    0.32      19.4  T
   6   -243.5635158 -0.281802E-07  0.247E-04    0.32      35.5  T
     SCC iter.                  ...        0 min,  0.387 sec
     gradient                   ...        0 min,  0.173 sec
 * total energy  :  -238.9513278 Eh     change       -0.1583905E-04 Eh
   gradient norm :     0.0012547 Eh/α   predicted    -0.5728817E-05 ( -63.83%)
   displ. norm   :     0.2220452 α      lambda       -0.3266478E-04
   maximum displ.:     0.1266543 α      in ANC's #5, #6, #4, ...

........................................................................
.............................. CYCLE   11 ..............................
........................................................................

 iter      E             dE          RMSdq      gap      omega  full diag
   1   -243.5644227 -0.243564E+03  0.302E-02    0.32       0.0  T
   2   -243.5644230 -0.287776E-06  0.175E-02    0.32       1.0  T
   3   -243.5644216  0.136782E-05  0.300E-03    0.32       2.9  T
   4   -243.5644227 -0.107721E-05  0.160E-03    0.32       5.5  T
   5   -243.5644172  0.546266E-05  0.475E-03    0.32       1.8  T
   6   -243.5644231 -0.584566E-05  0.727E-04    0.32      12.1  T
   7   -243.5644232 -0.106389E-06  0.186E-04    0.32      47.0  T
   8   -243.5644232 -0.542278E-08  0.609E-05    0.32     144.1  T
     SCC iter.                  ...        0 min,  0.506 sec
     gradient                   ...        0 min,  0.175 sec
 * total energy  :  -238.9513700 Eh     change       -0.4214716E-04 Eh
   gradient norm :     0.0012322 Eh/α   predicted    -0.1669134E-04 ( -60.40%)
   displ. norm   :     0.4267730 α      lambda       -0.4976211E-04
   maximum displ.:     0.2423694 α      in ANC's #5, #6, #4, ...

........................................................................
.............................. CYCLE   12 ..............................
........................................................................

 iter      E             dE          RMSdq      gap      omega  full diag
   1   -243.5644248 -0.243564E+03  0.584E-02    0.32       0.0  T
   2   -243.5644258 -0.951786E-06  0.339E-02    0.32       1.0  T
   3   -243.5644200  0.579088E-05  0.566E-03    0.32       1.6  T
   4   -243.5644047  0.153402E-04  0.916E-03    0.32       1.0  T
   5   -243.5644217 -0.170211E-04  0.442E-03    0.32       2.0  T
   6   -243.5644261 -0.442404E-05  0.129E-03    0.32       6.8  T
   7   -243.5644264 -0.290466E-06  0.283E-04    0.32      31.0  T
   8   -243.5644264 -0.105909E-07  0.110E-04    0.32      79.6  T
     SCC iter.                  ...        0 min,  0.500 sec
     gradient                   ...        0 min,  0.180 sec
 * total energy  :  -238.9514264 Eh     change       -0.5643646E-04 Eh
   gradient norm :     0.0015063 Eh/α   predicted    -0.2689610E-04 ( -52.34%)
   displ. norm   :     0.3550778 α      lambda       -0.2970421E-04
   maximum displ.:     0.2019053 α      in ANC's #5, #4, #6, ...

........................................................................
.............................. CYCLE   13 ..............................
........................................................................

 iter      E             dE          RMSdq      gap      omega  full diag
   1   -243.5646900 -0.243565E+03  0.490E-02    0.32       0.0  T
   2   -243.5646905 -0.493375E-06  0.285E-02    0.32       1.0  T
   3   -243.5646766  0.138920E-04  0.756E-03    0.32       1.2  T
   4   -243.5646684  0.826442E-05  0.932E-03    0.32       1.0  T
   5   -243.5646897 -0.212791E-04  0.254E-03    0.32       3.5  T
   6   -243.5646908 -0.118071E-05  0.812E-04    0.32      10.8  T
   7   -243.5646910 -0.113183E-06  0.146E-04    0.32      60.1  T
   8   -243.5646910 -0.159474E-08  0.789E-05    0.32     111.2  T
     SCC iter.                  ...        0 min,  0.619 sec
     gradient                   ...        0 min,  0.182 sec
 * total energy  :  -238.9514581 Eh     change       -0.3173839E-04 Eh
   gradient norm :     0.0013509 Eh/α   predicted    -0.1568561E-04 ( -50.58%)
   displ. norm   :     0.1945969 α      lambda       -0.1622419E-04
   maximum displ.:     0.1096704 α      in ANC's #5, #4, #6, ...

........................................................................
.............................. CYCLE   14 ..............................
........................................................................

 iter      E             dE          RMSdq      gap      omega  full diag
   1   -243.5651872 -0.243565E+03  0.279E-02    0.32       0.0  T
   2   -243.5651874 -0.105790E-06  0.163E-02    0.32       1.0  T
   3   -243.5651783  0.901538E-05  0.611E-03    0.32       1.4  T
   4   -243.5651775  0.852699E-06  0.621E-03    0.32       1.4  T
   5   -243.5651873 -0.979484E-05  0.120E-03    0.32       7.3  T
   6   -243.5651875 -0.217345E-06  0.445E-04    0.32      19.7  T
   7   -243.5651875 -0.400719E-07  0.639E-05    0.32     137.2  T
     SCC iter.                  ...        0 min,  0.443 sec
     gradient                   ...        0 min,  0.192 sec
 * total energy  :  -238.9514758 Eh     change       -0.1763650E-04 Eh
   gradient norm :     0.0006944 Eh/α   predicted    -0.8249249E-05 ( -53.23%)
   displ. norm   :     0.1091962 α      lambda       -0.1005064E-04
   maximum displ.:     0.0593793 α      in ANC's #4, #5, #11, ...

........................................................................
.............................. CYCLE   15 ..............................
........................................................................

 iter      E             dE          RMSdq      gap      omega  full diag
   1   -243.5650870 -0.243565E+03  0.173E-02    0.32       0.0  T
   2   -243.5650871 -0.529014E-07  0.101E-02    0.32       1.0  T
   3   -243.5650852  0.185121E-05  0.295E-03    0.32       3.0  T
   4   -243.5650834  0.180525E-05  0.377E-03    0.32       2.3  T
   5   -243.5650870 -0.358504E-05  0.830E-04    0.32      10.6  T
   6   -243.5650871 -0.116180E-06  0.340E-04    0.32      25.8  T
   7   -243.5650871 -0.231133E-07  0.523E-05    0.32     167.6  T
     SCC iter.                  ...        0 min,  0.427 sec
     gradient                   ...        0 min,  0.172 sec
 * total energy  :  -238.9514854 Eh     change       -0.9641113E-05 Eh
   gradient norm :     0.0003833 Eh/α   predicted    -0.5052691E-05 ( -47.59%)
   displ. norm   :     0.0427881 α      lambda       -0.3071319E-05
   maximum displ.:     0.0200784 α      in ANC's #4, #12, #9, ...

........................................................................
.............................. CYCLE   16 ..............................
........................................................................

 iter      E             dE          RMSdq      gap      omega  full diag
   1   -243.5648086 -0.243565E+03  0.764E-03    0.32       0.0  T
   2   -243.5648086 -0.108563E-07  0.445E-03    0.32       2.0  T
   3   -243.5648085  0.865120E-07  0.737E-04    0.32      11.9  T
   4   -243.5648086 -0.876547E-07  0.255E-04    0.32      34.4  T
     SCC iter.                  ...        0 min,  0.259 sec
     gradient                   ...        0 min,  0.187 sec
 * total energy  :  -238.9514880 Eh     change       -0.2564650E-05 Eh
   gradient norm :     0.0003456 Eh/α   predicted    -0.1539668E-05 ( -39.97%)
   displ. norm   :     0.0193668 α      lambda       -0.9882182E-06
   maximum displ.:     0.0103508 α      in ANC's #6, #12, #9, ...

   *** GEOMETRY OPTIMIZATION CONVERGED AFTER 16 ITERATIONS ***

------------------------------------------------------------------------
 total energy gain   :        -0.0170701 Eh      -10.7117 kcal/mol
 total RMSD          :         0.1920847 a0        0.1016 Å
 total power (kW/mol):        -2.8011025 (step)   -4.0069 (real)
------------------------------------------------------------------------

 ANCopt (total)                0 d,  0 h,  0 min, 11.185 sec
 optimizer setup                ...        0 min,  0.001 sec (  0.009%)
 model hessian                  ...        0 min,  0.115 sec (  1.028%)
 ANC generation                 ...        0 min,  0.032 sec (  0.286%)
 coordinate transformation      ...        0 min,  0.009 sec (  0.080%)
 single point calculation       ...        0 min, 10.981 sec ( 98.176%)
 optimization log               ...        0 min,  0.041 sec (  0.367%)
 hessian update                 ...        0 min,  0.001 sec (  0.009%)
 rational function              ...        0 min,  0.003 sec (  0.027%)

================
 final structure:
================
130
 xtb: 6.7.1pre (5071a88)
C            1.21888566845105        7.73462636590874        0.27757102274388
C           -2.91678443229598        6.84938687749983       -0.32727051370294
C           -0.57727697890060        6.13891515028082        0.02857401435582
C           -7.06680263006411        5.98829544424999       -0.66139952095848
C           -4.72778533103668        5.25365574377872       -0.34946145751737
C           -2.41557693226914        4.49754182793275       -0.10258646187050
C            4.08583522320443        8.33292051708159        0.38080941572070
C           -0.11802482586364        7.45077556598997        0.17416490843153
C            2.18664664206193        6.72948139102640        0.22625993751415
C           -4.24843594323784        6.56403595130482       -0.44709853364736
C           -1.97351304183854        5.83743070672924       -0.13013939788096
C            0.36497143261814        5.08965878299119        0.05207972639239
C           -8.88161677074323        4.52884872513904       -0.19625058498107
C           -6.59181902836898        3.66365765325897       -0.09514827170660
C           -4.25762829954439        2.85776950205780       -0.05237193104684
C           -6.06552144486906        1.23159480406361        0.14812059393622
C           -7.83707205316420       -0.44852331444343        0.31281214500914
C           -8.42157737593402        5.77403313848720       -0.57941779924264
C           -6.14045007690001        4.97333634077959       -0.38628691200834
C           -3.80356212298186        4.20497184056910       -0.16809159897458
C           -1.46439668368195        3.44392461539546       -0.02313658793461
C           -7.98311213282552        3.50116705164525        0.03187159779902
C           -5.64589317777826        2.57641949842750        0.02373946842609
C           -3.29986955389008        1.81184788390803       -0.00069220383570
C           -7.43156097707519        0.84953195400622        0.30097696966774
C           -5.11368769224422        0.17210051978150        0.10260442049371
C           -6.91339423203501       -1.50708075207612        0.19599709652077
C            5.45022634076950        8.60274919357640        0.39755249619770
C            3.59943368564492        7.03262593286007        0.27200306381866
C            5.92361571940187        6.24886901455811        0.19207703157770
C            1.75095899822316        5.38752984492323        0.12472666466911
C            4.08329528919050        4.62436983332069        0.09935280508902
C            6.41565016486304        3.87554836207381       -0.01003934139486
C           -0.07807759465689        3.73974808338804        0.00846994900669
C            2.25630112903749        2.98902046662818        0.02731134548379
C            4.58503528880723        2.23090874913183       -0.04296255016950
C            6.91175636843950        1.51005338008449       -0.20809147201763
C            6.36082422550521        7.58426887077079        0.29952273995579
C            4.52679016020085        5.96617432732410        0.18701956701441
C            6.83613027117354        5.19853627943017        0.08395540660728
C            2.69382577400851        4.32737645788149        0.08626344634578
C            5.01907787760108        3.57422537038191        0.01519902950573
C            7.33283890371673        2.82348827228015       -0.13948738474812
C           -1.90517708189892        2.10454315608428       -0.01098503671619
C            7.42450205979239       -0.84305027429454       -0.38864835072925
C            0.12003909123548       -7.45172746885741       -0.06090380587941
C            0.43378883846952        1.34551148490839       -0.00187725889599
C           -6.83522244602568       -5.20151597786488       -0.00075309961706
C            2.77225394537019        0.58828420487267       -0.03372421831418
C           -4.52573729317988       -5.96992330185266       -0.08970941358571
C            5.11148786660023       -0.16967988667163       -0.13743608305508
C           -2.18536021580576       -6.73295119750458       -0.11917491125884
C           -3.72543240054249        0.46668059882548        0.04109674171603
C            5.64458710281905       -2.57472198368767       -0.10129799272593
C           -1.38490594811455       -0.29301563518332        0.00606235184605
C            7.97694638113384       -3.50222007598130       -0.21230939736694
C            0.95384719795597       -1.05126548452001       -0.00718105262770
C           -6.35913890802843       -7.59139176850933       -0.15955465135773
C            3.29944256333115       -1.81064228703759       -0.02941486019499
C           -4.08404359102505       -8.34045306734647       -0.22941130427460
C           -5.52820800285468       -1.17992532313820        0.12017508200878
C            3.80742994051425       -4.20240086263584        0.14328457183386
C           -3.19966182989906       -1.93220138195411        0.02721357778960
C            6.14975357593510       -4.97750381045503        0.26633035422072
C           -0.86670159171860       -2.69032409482767        0.00587464359854
C            8.43433296149739       -5.79424237419106        0.30448152244670
C            1.46490105921966       -3.44186930872410        0.03333786929127
C           -7.33344509041470       -2.82217740655715        0.16066747556917
C            1.97473047952305       -5.83086671568575        0.19545484689948
C           -5.01903670099845       -3.57467373055919        0.02860316030921
C            4.25285080345664       -6.54999934072571        0.50061714407401
C           -2.69369846792953       -4.32816087976272       -0.02998927347057
C           -0.36470912907670       -5.08851647531451        0.01047942046395
C            0.86638874417509        2.69141914785523        0.01331749562579
C           -6.41536258707649       -3.87640791024259        0.06057675026768
C            2.91772538769704       -6.83502498228338        0.42910201878426
C            3.19904099743996        1.93298971555833       -0.01566953825303
C           -4.08295516311003       -4.62611341973619       -0.03326423782946
C            5.52678801551961        1.18207960016588       -0.13115434066981
C           -1.75062132783365       -5.38864333672532       -0.04909577803891
C            7.83239822089060        0.45413420563136       -0.36775768869829
C            0.57790257762062       -6.13648537739048        0.05446720086764
C           -0.95454630860714        1.05259582594998        0.00015301436128
C            1.38401426793078        0.29428480213960       -0.01210995552223
C           -5.92235148384296       -6.25360892440741       -0.08486537279273
C            3.72409923645238       -0.46521135521603       -0.06655967362996
C           -3.59811008342378       -7.03768974081169       -0.15276184199375
C            6.06169769871404       -1.22835654992907       -0.21631492249136
C           -1.21711770184877       -7.73852652041684       -0.15288738183578
C           -2.77327653200130       -0.58709040896475        0.02671609824222
C            6.59205741824567       -3.66487458359025       -0.02772245306882
C           -0.43448156620662       -1.34419431242536        0.00289514313081
C            8.88146275631219       -4.53800306136410       -0.05588910264729
C            1.90501314576552       -2.10285861495708       -0.00008413095239
C           -5.44827733557942       -8.61145006272752       -0.23582351356386
C            4.25840248218311       -2.85657969359061        0.00354309522474
C           -4.58564625053235       -2.23008179364932        0.05819854981120
C            4.73548375275006       -5.24972074176809        0.31670347652247
C           -2.25658604153581       -2.98863609765940        0.00196870397593
C            7.08473789150694       -6.00474296460147        0.45314104482818
C            0.07830026235870       -3.73804055570955        0.02276619998919
C            2.41776841365826       -4.49345998402420        0.11902584930694
H            1.51008973422945        8.76570302857670        0.39213379285852
H           -2.60688276513768        7.87834751784181       -0.40321294961338
H           -6.72571604681528        6.96750633908707       -0.94999050268515
H            3.40859558957730        9.16788253952217        0.45430139859283
H           -0.81560185377903        8.27056428977416        0.22309396684805
H           -4.92717310120644        7.38706693746389       -0.59239554727938
H           -9.93666162044594        4.33371056032418       -0.07986115831853
H           -8.88709310184072       -0.67663797625568        0.41933338354896
H           -9.11800948008255        6.56941873462335       -0.79553518968335
H            5.78503241313197        9.62626982821476        0.48423777175574
H            7.42191287835961        7.78571556862115        0.30408750398276
H            7.89433940983920        5.41735654493292        0.07332050414846
H            8.38860288096469        3.04689465836679       -0.18691340720591
H            0.81951089188907       -8.27069787141969       -0.09704107493149
H           -7.89331573187993       -5.42045300036431        0.01611021724800
H           -7.42013463957284       -7.79333102279425       -0.15664337795780
H           -3.40646349751183       -9.17651069794000       -0.28501074550912
H            9.13580350854758       -6.60062742543814        0.45331547382240
H           -8.38929100378323       -3.04484836572222        0.20928455283702
H            4.92946629798584       -7.36689493427404        0.68408366101901
H            2.60409104229297       -7.85589983837992        0.57135517539241
H            8.88064104868910        0.68414849065680       -0.48681258722348
H           -1.50816315121428       -8.77187359651254       -0.24520965205223
H            9.93078958612270       -4.34156011085179       -0.21433318581090
H           -5.78268696331798       -9.63692036245857       -0.29727550910964
H            6.75621288381804       -6.99482939672892        0.71726959684308
S            8.70469806447163       -1.99414195172185       -0.70672557573702
S           -8.72465816101436        2.00551465251157        0.54236736462674
 
 Bond Distances (Angstroems)
 ---------------------------
C1-C8=1.3706         C1-C9=1.3962         C1-H103=1.0775       C2-C10=1.3671        C2-C11=1.3974        C2-H104=1.0773       
C3-C8=1.3975         C3-C11=1.4372        C3-C12=1.4104        C4-C18=1.3741        C4-C19=1.4014        C4-H105=1.0763       
C5-C10=1.3987        C5-C19=1.4407        C5-C20=1.4095        C6-C11=1.4112        C6-C20=1.4200        C6-C21=1.4217        
C7-C28=1.3909        C7-C29=1.3925        C7-H106=1.0776       C8-C1=1.3706         C8-C3=1.3975         C8-H107=1.0775       
C9-C1=1.3962         C9-C29=1.4457        C9-C31=1.4146        C10-C2=1.3671        C10-C5=1.3987        C10-H108=1.0767      
C11-C2=1.3974        C11-C3=1.4372        C11-C6=1.4112        C12-C3=1.4104        C12-C31=1.4195       C12-C34=1.4214       
C13-C18=1.3816       C13-C22=1.3840       C13-H109=1.0792      C14-C19=1.4155       C14-C22=1.4065       C14-C23=1.4460       
C15-C20=1.4264       C15-C23=1.4185       C15-C24=1.4191       C16-C23=1.4143       C16-C25=1.4267       C16-C26=1.4250       
C17-C25=1.3600       C17-C27=1.4097       C17-H110=1.0798      C18-C4=1.3741        C18-C13=1.3816       C18-H111=1.0791      
C19-C4=1.4014        C19-C5=1.4407        C19-C14=1.4155       C20-C5=1.4095        C20-C6=1.4200        C20-C15=1.4264       
C21-C6=1.4217        C21-C34=1.4179       C21-C44=1.4101       C22-C13=1.3840       C22-C14=1.4065       C22-S130=1.7457      
C23-C14=1.4460       C23-C15=1.4185       C23-C16=1.4143       C24-C15=1.4191       C24-C44=1.4251       C24-C53=1.4115       
C25-C16=1.4267       C25-C17=1.3600       C25-S130=1.7512      C26-C16=1.4250       C26-C53=1.4205       C26-C61=1.4143       
C27-C17=1.4097       C27-C61=1.4253       C27-C68=1.3810       C28-C7=1.3909        C28-C38=1.3697       C28-H112=1.0804      
C29-C7=1.3925        C29-C9=1.4457        C29-C39=1.4158       C30-C38=1.4093       C30-C39=1.4252       C30-C40=1.3956       
C31-C9=1.4146        C31-C12=1.4195       C31-C41=1.4193       C32-C39=1.4159       C32-C41=1.4209       C32-C42=1.4091       
C33-C40=1.3914       C33-C42=1.4289       C33-C43=1.4017       C34-C12=1.4214       C34-C21=1.4179       C34-C74=1.4110       
C35-C41=1.4093       C35-C74=1.4215       C35-C77=1.4163       C36-C42=1.4129       C36-C77=1.4179       C36-C79=1.4123       
C37-C43=1.3810       C37-C79=1.4254       C37-C81=1.4100       C38-C28=1.3697       C38-C30=1.4093       C38-H113=1.0801      
C39-C29=1.4158       C39-C30=1.4252       C39-C32=1.4159       C40-C30=1.3956       C40-C33=1.3914       C40-H114=1.0806      
C41-C31=1.4193       C41-C32=1.4209       C41-C35=1.4093       C42-C32=1.4091       C42-C33=1.4289       C42-C36=1.4129       
C43-C33=1.4017       C43-C37=1.3810       C43-H115=1.0802      C44-C21=1.4101       C44-C24=1.4251       C44-C83=1.4179       
C45-C81=1.3600       C45-C88=1.4267       C45-S129=1.7507      C46-C82=1.3974       C46-C89=1.3707       C46-H116=1.0776      
C47-C74=1.4138       C47-C83=1.4189       C47-C84=1.4171       C48-C75=1.3914       C48-C85=1.3955       C48-H117=1.0806      
C49-C77=1.4109       C49-C84=1.4192       C49-C86=1.4202       C50-C78=1.4160       C50-C85=1.4251       C50-C87=1.4158       
C51-C79=1.4141       C51-C86=1.4203       C51-C88=1.4248       C52-C80=1.4146       C52-C87=1.4456       C52-C89=1.3964       
C53-C24=1.4115       C53-C26=1.4205       C53-C90=1.4203       C54-C88=1.4142       C54-C91=1.4462       C54-C96=1.4184       
C55-C83=1.4128       C55-C90=1.4193       C55-C92=1.4171       C56-C91=1.4066       C56-C93=1.3840       C56-S129=1.7460      
C57-C84=1.4126       C57-C92=1.4189       C57-C94=1.4180       C58-C85=1.4093       C58-C95=1.3697       C58-H118=1.0800      
C59-C86=1.4113       C59-C94=1.4250       C59-C96=1.4194       C60-C87=1.3926       C60-C95=1.3909       C60-H119=1.0776      
C61-C26=1.4143       C61-C27=1.4253       C61-C97=1.4125       C62-C96=1.4262       C62-C98=1.4100       C62-C102=1.4200      
C63-C90=1.4111       C63-C97=1.4180       C63-C99=1.4164       C64-C91=1.4160       C64-C98=1.4411       C64-C100=1.4015      
C65-C92=1.4138       C65-C99=1.4215       C65-C101=1.4110      C66-C93=1.3813       C66-C100=1.3740      C66-H120=1.0791      
C67-C94=1.4099       C67-C101=1.4179      C67-C102=1.4217      C68-C27=1.3810       C68-C75=1.4015       C68-H121=1.0802      
C69-C76=1.3972       C69-C82=1.4368       C69-C102=1.4110      C70-C75=1.4289       C70-C78=1.4091       C70-C97=1.4130       
C71-C76=1.3671       C71-C98=1.3991       C71-H122=1.0765      C72-C78=1.4209       C72-C80=1.4193       C72-C99=1.4094       
C73-C80=1.4193       C73-C82=1.4102       C73-C101=1.4213      C74-C34=1.4110       C74-C35=1.4215       C74-C47=1.4138       
C75-C48=1.3914       C75-C68=1.4015       C75-C70=1.4289       C76-C69=1.3972       C76-C71=1.3671       C76-H123=1.0774      
C77-C35=1.4163       C77-C36=1.4179       C77-C49=1.4109       C78-C50=1.4160       C78-C70=1.4091       C78-C72=1.4209       
C79-C36=1.4123       C79-C37=1.4254       C79-C51=1.4141       C80-C52=1.4146       C80-C72=1.4193       C80-C73=1.4193       
C81-C37=1.4100       C81-C45=1.3600       C81-H124=1.0798      C82-C46=1.3974       C82-C69=1.4368       C82-C73=1.4102       
C83-C44=1.4179       C83-C47=1.4189       C83-C55=1.4128       C84-C47=1.4171       C84-C49=1.4192       C84-C57=1.4126       
C85-C48=1.3955       C85-C50=1.4251       C85-C58=1.4093       C86-C49=1.4202       C86-C51=1.4203       C86-C59=1.4113       
C87-C50=1.4158       C87-C52=1.4456       C87-C60=1.3926       C88-C45=1.4267       C88-C51=1.4248       C88-C54=1.4142       
C89-C46=1.3707       C89-C52=1.3964       C89-H125=1.0775      C90-C53=1.4203       C90-C55=1.4193       C90-C63=1.4111       
C91-C54=1.4462       C91-C56=1.4066       C91-C64=1.4160       C92-C55=1.4171       C92-C57=1.4189       C92-C65=1.4138       
C93-C56=1.3840       C93-C66=1.3813       C93-H126=1.0793      C94-C57=1.4180       C94-C59=1.4250       C94-C67=1.4099       
C95-C58=1.3697       C95-C60=1.3909       C95-H127=1.0804      C96-C54=1.4184       C96-C59=1.4194       C96-C62=1.4262       
C97-C61=1.4125       C97-C63=1.4180       C97-C70=1.4130       C98-C62=1.4100       C98-C64=1.4411       C98-C71=1.3991       
C99-C63=1.4164       C99-C65=1.4215       C99-C72=1.4094       C100-C64=1.4015      C100-C66=1.3740      C100-H128=1.0761     
C101-C65=1.4110      C101-C67=1.4179      C101-C73=1.4213      C102-C62=1.4200      C102-C67=1.4217      C102-C69=1.4110      
H103-C1=1.0775       H104-C2=1.0773       H105-C4=1.0763       H106-C7=1.0776       H107-C8=1.0775       H108-C10=1.0767      
H109-C13=1.0792      H110-C17=1.0798      H111-C18=1.0791      H112-C28=1.0804      H113-C38=1.0801      H114-C40=1.0806      
H115-C43=1.0802      H116-C46=1.0776      H117-C48=1.0806      H118-C58=1.0800      H119-C60=1.0776      H120-C66=1.0791      
H121-C68=1.0802      H122-C71=1.0765      H123-C76=1.0774      H124-C81=1.0798      H125-C89=1.0775      H126-C93=1.0793      
H127-C95=1.0804      H128-C100=1.0761     S129-C45=1.7507      S129-C56=1.7460      S130-C22=1.7457      S130-C25=1.7512      
 C  H  Rav=1.0786 sigma=0.0015  Rmin=1.0761  Rmax=1.0806    26
 C  C  Rav=1.4103 sigma=0.0175  Rmin=1.3600  Rmax=1.4462   138
 S  C  Rav=1.7484 sigma=0.0026  Rmin=1.7457  Rmax=1.7512     4
 
 selected bond angles (degree)
 --------------------
C9-C1-C8=121.62                H103-C1-C8=118.02              H103-C1-C9=120.36              C11-C2-C10=121.25              
H104-C2-C10=118.25             H104-C2-C11=120.49             C11-C3-C8=121.85               C12-C3-C8=118.49               
C12-C3-C11=119.66              C19-C4-C18=121.81              H105-C4-C18=118.05             H105-C4-C19=120.14             
C19-C5-C10=121.10              C20-C5-C10=118.77              C20-C5-C19=120.10              C20-C6-C11=120.06              
C21-C6-C11=119.68              C21-C6-C20=120.26              C29-C7-C28=121.65              H106-C7-C28=117.73             
H106-C7-C29=120.62             C3-C8-C1=121.52                H107-C8-C1=118.07              H107-C8-C3=120.41              
C29-C9-C1=121.68               C31-C9-C1=118.17               C31-C9-C29=120.15              C5-C10-C2=121.55               
H108-C10-C2=117.80             H108-C10-C5=120.63             
 
 selected dihedral angles (degree)
 ---------------------------------
C3-C8-C1-C9=  0.79            C3-C8-C1-H103=180.25          H107-C8-C1-C9=179.88          H107-C8-C1-H103=359.34        
C1-C8-C3-C11=182.35           C1-C8-C3-C12=  2.94           H107-C8-C3-C11=  3.27         H107-C8-C3-C12=183.87         
C29-C9-C1-C8=177.04           C29-C9-C1-H103=357.59         C31-C9-C1-C8=357.15           C31-C9-C1-H103=177.70         
C5-C10-C2-C11=  1.39          C5-C10-C2-H104=180.50         H108-C10-C2-C11=179.68        H108-C10-C2-H104=358.80       
C2-C10-C5-C19=175.74          C2-C10-C5-C20=357.84          H108-C10-C5-C19=357.49        H108-C10-C5-C20=179.59        
           -------------------------------------------------
          |                Final Singlepoint                |
           -------------------------------------------------

          ...................................................
          :                      SETUP                      :
          :.................................................:
          :  # basis functions                 454          :
          :  # atomic orbitals                 452          :
          :  # shells                          236          :
          :  # electrons                       446          :
          :  max. iterations                   250          :
          :  Hamiltonian                  GFN2-xTB          :
          :  restarted?                      false          :
          :  GBSA solvation                  false          :
          :  PC potential                    false          :
          :  electronic temp.          300.0000000     K    :
          :  accuracy                    1.0000000          :
          :  -> integral cutoff          0.2500000E+02      :
          :  -> integral neglect         0.1000000E-07      :
          :  -> SCF convergence          0.1000000E-05 Eh   :
          :  -> wf. convergence          0.1000000E-03 e    :
          :  Broyden damping             0.4000000          :
          :  net charge                          0          :
          :  unpaired electrons                  0          :
          ...................................................

 iter      E             dE          RMSdq      gap      omega  full diag
   1   -243.5648086 -0.243565E+03  0.268E-04    0.32       0.0  T
   2   -243.5648080  0.539800E-06  0.145E-03    0.32       6.1  T
   3   -243.5648086 -0.552420E-06  0.142E-04    0.32      61.6  T
   4   -243.5648086 -0.456794E-08  0.330E-05    0.32     265.4  T

   *** convergence criteria satisfied after 4 iterations ***

         #    Occupation            Energy/Eh            Energy/eV
      -------------------------------------------------------------
         1        2.0000           -0.7250280             -19.7290
       ...           ...                  ...                  ...
       217        2.0000           -0.3832107             -10.4277
       218        2.0000           -0.3788854             -10.3100
       219        2.0000           -0.3732967             -10.1579
       220        2.0000           -0.3615204              -9.8375
       221        2.0000           -0.3556091              -9.6766
       222        2.0000           -0.3488532              -9.4928
       223        1.9961           -0.3324072              -9.0453 (HOMO)
       224        0.0039           -0.3205776              -8.7234 (LUMO)
       225                         -0.2939983              -8.0001
       226                         -0.2881182              -7.8401
       227                         -0.2735028              -7.4424
       228                         -0.2681997              -7.2981
       ...                                ...                  ...
       452                          0.7780942              21.1730
      -------------------------------------------------------------
                  HL-Gap            0.0118296 Eh            0.3219 eV
             Fermi-level           -0.3264924 Eh           -8.8843 eV

 SCC (total)                   0 d,  0 h,  0 min,  0.531 sec
 SCC setup                      ...        0 min,  0.002 sec (  0.377%)
 Dispersion                     ...        0 min,  0.005 sec (  0.942%)
 classical contributions        ...        0 min,  0.001 sec (  0.188%)
 integral evaluation            ...        0 min,  0.043 sec (  8.098%)
 iterations                     ...        0 min,  0.274 sec ( 51.601%)
 molecular gradient             ...        0 min,  0.201 sec ( 37.853%)
 printout                       ...        0 min,  0.005 sec (  0.942%)

         :::::::::::::::::::::::::::::::::::::::::::::::::::::
         ::                     SUMMARY                     ::
         :::::::::::::::::::::::::::::::::::::::::::::::::::::
         :: total energy            -238.951487991471 Eh    ::
         :: gradient norm              0.000346379292 Eh/a0 ::
         :: HOMO-LUMO gap              0.321899756581 eV    ::
         ::.................................................::
         :: SCC energy              -243.572689222211 Eh    ::
         :: -> isotropic ES            0.003836827835 Eh    ::
         :: -> anisotropic ES          0.010344332850 Eh    ::
         :: -> anisotropic XC          0.090348754631 Eh    ::
         :: -> dispersion             -0.292987424328 Eh    ::
         :: repulsion energy           4.621201230740 Eh    ::
         :: add. restraining           0.000000000000 Eh    ::
         :: total charge               0.000000000120 e     ::
         :::::::::::::::::::::::::::::::::::::::::::::::::::::

           -------------------------------------------------
          |                Property Printout                |
           -------------------------------------------------

    * Orbital Energies and Occupations

         #    Occupation            Energy/Eh            Energy/eV
      -------------------------------------------------------------
         1        2.0000           -0.7250280             -19.7290
       ...           ...                  ...                  ...
       211        2.0000           -0.3985137             -10.8441
       212        2.0000           -0.3957061             -10.7677
       213        2.0000           -0.3900484             -10.6138
       214        2.0000           -0.3886360             -10.5753
       215        2.0000           -0.3885328             -10.5725
       216        2.0000           -0.3869992             -10.5308
       217        2.0000           -0.3832107             -10.4277
       218        2.0000           -0.3788854             -10.3100
       219        2.0000           -0.3732967             -10.1579
       220        2.0000           -0.3615204              -9.8375
       221        2.0000           -0.3556091              -9.6766
       222        2.0000           -0.3488532              -9.4928
       223        1.9961           -0.3324072              -9.0453 (HOMO)
       224        0.0039           -0.3205776              -8.7234 (LUMO)
       225                         -0.2939983              -8.0001
       226                         -0.2881182              -7.8401
       227                         -0.2735028              -7.4424
       228                         -0.2681997              -7.2981
       229                         -0.2650876              -7.2134
       230                         -0.2613028              -7.1104
       231                         -0.2570465              -6.9946
       232                         -0.2520970              -6.8599
       233                         -0.2459211              -6.6919
       234                         -0.2424060              -6.5962
       ...                                ...                  ...
       452                          0.7780942              21.1730
      -------------------------------------------------------------
                  HL-Gap            0.0118296 Eh            0.3219 eV
             Fermi-level           -0.3264924 Eh           -8.8843 eV

     #   Z          covCN         q      C6AA      α(0)
     1   6 C        2.919    -0.037    28.909     8.817
     2   6 C        2.920    -0.037    28.923     8.819
     3   6 C        2.983     0.004    27.918     8.667
     4   6 C        2.925    -0.043    29.059     8.840
     5   6 C        2.983     0.004    27.921     8.668
     6   6 C        2.991     0.001    27.989     8.678
     7   6 C        2.922    -0.036    28.895     8.815
     8   6 C        2.920    -0.037    28.919     8.819
     9   6 C        2.979     0.005    27.912     8.666
    10   6 C        2.921    -0.037    28.929     8.820
    11   6 C        2.983     0.005    27.901     8.665
    12   6 C        2.992     0.001    27.989     8.678
    13   6 C        3.024    -0.043    29.045     8.840
    14   6 C        3.004    -0.000    28.020     8.683
    15   6 C        2.983    -0.002    28.065     8.690
    16   6 C        2.999     0.000    28.008     8.681
    17   6 C        3.036    -0.056    29.353     8.886
    18   6 C        2.916    -0.029    28.720     8.788
    19   6 C        2.986     0.007    27.865     8.659
    20   6 C        2.989     0.002    27.976     8.676
    21   6 C        2.987     0.000    28.012     8.682
    22   6 C        2.973     0.047    26.934     8.513
    23   6 C        2.971     0.004    27.938     8.670
    24   6 C        2.985     0.001    28.009     8.681
    25   6 C        2.963     0.044    27.010     8.525
    26   6 C        2.988    -0.000    28.022     8.683
    27   6 C        2.982     0.012    27.735     8.639
    28   6 C        2.912    -0.030    28.738     8.790
    29   6 C        2.976     0.006    27.871     8.660
    30   6 C        2.981     0.013    27.724     8.637
    31   6 C        2.990     0.001    27.985     8.678
    32   6 C        2.987     0.001    27.992     8.679
    33   6 C        2.978     0.012    27.737     8.639
    34   6 C        2.987    -0.001    28.038     8.686
    35   6 C        2.988    -0.001    28.038     8.686
    36   6 C        2.989     0.001    27.986     8.678
    37   6 C        2.982     0.012    27.735     8.639
    38   6 C        2.921    -0.036    28.901     8.816
    39   6 C        2.995     0.001    27.990     8.679
    40   6 C        2.926    -0.044    29.105     8.847
    41   6 C        2.988     0.000    28.014     8.682
    42   6 C        2.994    -0.001    28.034     8.685
    43   6 C        2.926    -0.047    29.178     8.858
    44   6 C        2.986    -0.001    28.038     8.686
    45   6 C        2.964     0.044    27.009     8.524
    46   6 C        2.920    -0.037    28.919     8.819
    47   6 C        2.987    -0.001    28.033     8.685
    48   6 C        2.926    -0.044    29.105     8.847
    49   6 C        2.987    -0.001    28.034     8.685
    50   6 C        2.995     0.001    27.990     8.679
    51   6 C        2.989    -0.000    28.022     8.683
    52   6 C        2.979     0.005    27.912     8.666
    53   6 C        2.987     0.000    28.020     8.683
    54   6 C        2.971     0.004    27.938     8.670
    55   6 C        2.988    -0.000    28.024     8.684
    56   6 C        2.973     0.047    26.934     8.513
    57   6 C        2.988    -0.000    28.029     8.684
    58   6 C        2.921    -0.036    28.901     8.816
    59   6 C        2.985     0.000    28.010     8.681
    60   6 C        2.922    -0.036    28.895     8.815
    61   6 C        2.993    -0.001    28.049     8.688
    62   6 C        2.989     0.002    27.976     8.676
    63   6 C        2.989    -0.000    28.025     8.684
    64   6 C        2.985     0.007    27.865     8.659
    65   6 C        2.989     0.000    28.014     8.682
    66   6 C        2.916    -0.029    28.721     8.788
    67   6 C        2.987     0.000    28.012     8.682
    68   6 C        2.927    -0.047    29.178     8.858
    69   6 C        2.984     0.005    27.900     8.664
    70   6 C        2.994    -0.001    28.034     8.685
    71   6 C        2.921    -0.037    28.928     8.820
    72   6 C        2.988     0.000    28.014     8.682
    73   6 C        2.992     0.001    27.989     8.678
    74   6 C        2.989     0.000    28.015     8.682
    75   6 C        2.978     0.012    27.737     8.639
    76   6 C        2.920    -0.037    28.924     8.819
    77   6 C        2.990    -0.000    28.025     8.684
    78   6 C        2.987     0.001    27.992     8.679
    79   6 C        2.993    -0.001    28.050     8.688
    80   6 C        2.990     0.001    27.985     8.678
    81   6 C        3.034    -0.056    29.356     8.887
    82   6 C        2.983     0.004    27.919     8.667
    83   6 C        2.988    -0.000    28.029     8.684
    84   6 C        2.988    -0.000    28.024     8.684
    85   6 C        2.981     0.013    27.724     8.637
    86   6 C        2.987     0.000    28.020     8.683
    87   6 C        2.976     0.007    27.871     8.660
    88   6 C        2.999     0.000    28.009     8.681
    89   6 C        2.920    -0.037    28.908     8.817
    90   6 C        2.987    -0.001    28.034     8.685
    91   6 C        3.004    -0.000    28.021     8.683
    92   6 C        2.987    -0.000    28.033     8.685
    93   6 C        3.026    -0.043    29.041     8.840
    94   6 C        2.986    -0.001    28.038     8.686
    95   6 C        2.912    -0.030    28.738     8.790
    96   6 C        2.983    -0.002    28.063     8.690
    97   6 C        2.989     0.001    27.986     8.678
    98   6 C        2.982     0.004    27.920     8.668
    99   6 C        2.987    -0.001    28.039     8.686
   100   6 C        2.925    -0.043    29.059     8.840
   101   6 C        2.987    -0.001    28.039     8.686
   102   6 C        2.991     0.001    27.990     8.679
   103   1 H        0.926     0.034     2.534     2.489
   104   1 H        0.926     0.035     2.520     2.482
   105   1 H        0.926     0.038     2.470     2.458
   106   1 H        0.926     0.033     2.545     2.495
   107   1 H        0.926     0.034     2.531     2.488
   108   1 H        0.926     0.035     2.515     2.480
   109   1 H        0.926     0.042     2.420     2.433
   110   1 H        0.926     0.040     2.454     2.450
   111   1 H        0.926     0.037     2.491     2.468
   112   1 H        0.926     0.030     2.582     2.513
   113   1 H        0.926     0.032     2.556     2.500
   114   1 H        0.926     0.033     2.543     2.494
   115   1 H        0.926     0.033     2.538     2.491
   116   1 H        0.926     0.034     2.531     2.488
   117   1 H        0.926     0.033     2.543     2.494
   118   1 H        0.926     0.032     2.556     2.500
   119   1 H        0.926     0.033     2.545     2.495
   120   1 H        0.926     0.037     2.491     2.468
   121   1 H        0.926     0.033     2.538     2.491
   122   1 H        0.926     0.035     2.516     2.481
   123   1 H        0.926     0.035     2.519     2.482
   124   1 H        0.926     0.040     2.454     2.450
   125   1 H        0.926     0.034     2.534     2.489
   126   1 H        0.926     0.042     2.420     2.433
   127   1 H        0.926     0.030     2.582     2.513
   128   1 H        0.926     0.038     2.471     2.458
   129  16 S        2.227    -0.112   145.736    20.318
   130  16 S        2.227    -0.112   145.734    20.318

 Mol. C6AA /au·bohr⁶  :     368200.662457
 Mol. C8AA /au·bohr⁸  :   10394530.117110
 Mol. α(0) /au        :        993.338884


Wiberg/Mayer (AO) data.
largest (>0.10) Wiberg bond orders for each atom

 ---------------------------------------------------------------------------
     #   Z sym  total        # sym  WBO       # sym  WBO       # sym  WBO
 ---------------------------------------------------------------------------
     1   6 C    3.971 --     8 C    1.488     9 C    1.345   103 H    0.961
     2   6 C    3.961 --    10 C    1.501    11 C    1.329   104 H    0.961
     3   6 C    3.966 --     8 C    1.336    12 C    1.278    11 C    1.152
     4   6 C    3.976 --    18 C    1.471    19 C    1.346   105 H    0.959
     5   6 C    3.962 --    10 C    1.329    20 C    1.291    19 C    1.142
     6   6 C    3.978 --    11 C    1.283    20 C    1.251    21 C    1.219
     7   6 C    3.901 --    29 C    1.392    28 C    1.382   106 H    0.962
     8   6 C    3.953 --     1 C    1.488     3 C    1.336   107 H    0.961
     9   6 C    3.950 --     1 C    1.345    31 C    1.278    29 C    1.135
    10   6 C    3.961 --     2 C    1.501     5 C    1.329   108 H    0.959
    11   6 C    3.961 --     2 C    1.329     6 C    1.283     3 C    1.152
    12   6 C    3.976 --     3 C    1.278    31 C    1.249    34 C    1.226
    13   6 C    3.972 --    22 C    1.415    18 C    1.403   109 H    0.967
    14   6 C    3.978 --    22 C    1.301    19 C    1.283    23 C    1.163
    15   6 C    3.961 --    23 C    1.274    24 C    1.254    20 C    1.211
    16   6 C    3.941 --    23 C    1.291    26 C    1.240    25 C    1.196
    17   6 C    3.949 --    25 C    1.543    27 C    1.222   110 H    0.963
    18   6 C    3.977 --     4 C    1.471    13 C    1.403   111 H    0.969
    19   6 C    3.974 --     4 C    1.346    14 C    1.283     5 C    1.142
    20   6 C    3.979 --     5 C    1.291     6 C    1.251    15 C    1.211
    21   6 C    3.953 --    44 C    1.276    34 C    1.246     6 C    1.219
    22   6 C    3.954 --    13 C    1.415    14 C    1.301   130 S    1.060
    23   6 C    3.944 --    16 C    1.291    15 C    1.274    14 C    1.163
    24   6 C    3.967 --    53 C    1.271    15 C    1.254    44 C    1.219
    25   6 C    3.944 --    17 C    1.543    16 C    1.196   130 S    1.049
    26   6 C    3.970 --    61 C    1.271    16 C    1.240    53 C    1.233
    27   6 C    3.978 --    68 C    1.404    17 C    1.222    61 C    1.192
    28   6 C    3.983 --    38 C    1.507     7 C    1.382   112 H    0.970
    29   6 C    3.982 --     7 C    1.392    39 C    1.262     9 C    1.135
    30   6 C    3.985 --    40 C    1.331    38 C    1.273    39 C    1.218
    31   6 C    3.981 --     9 C    1.278    12 C    1.249    41 C    1.229
    32   6 C    3.980 --    42 C    1.280    39 C    1.254    41 C    1.221
    33   6 C    3.985 --    40 C    1.352    43 C    1.287    42 C    1.186
    34   6 C    3.959 --    74 C    1.269    21 C    1.246    12 C    1.226
    35   6 C    3.969 --    41 C    1.283    77 C    1.245    74 C    1.219
    36   6 C    3.978 --    42 C    1.266    79 C    1.264    77 C    1.227
    37   6 C    3.978 --    43 C    1.404    81 C    1.221    79 C    1.192
    38   6 C    3.906 --    28 C    1.507    30 C    1.273   113 H    0.969
    39   6 C    3.955 --    29 C    1.262    32 C    1.254    30 C    1.218
    40   6 C    3.825 --    33 C    1.352    30 C    1.331   114 H    0.966
    41   6 C    3.940 --    35 C    1.283    31 C    1.229    32 C    1.221
    42   6 C    3.958 --    32 C    1.280    36 C    1.266    33 C    1.186
    43   6 C    3.858 --    37 C    1.404    33 C    1.287   115 H    0.966
    44   6 C    3.959 --    21 C    1.276    83 C    1.248    24 C    1.219
    45   6 C    3.944 --    81 C    1.544    88 C    1.196   129 S    1.049
    46   6 C    3.953 --    89 C    1.488    82 C    1.336   116 H    0.961
    47   6 C    3.963 --    74 C    1.257    84 C    1.249    83 C    1.239
    48   6 C    3.824 --    75 C    1.352    85 C    1.331   117 H    0.966
    49   6 C    3.964 --    77 C    1.270    86 C    1.240    84 C    1.233
    50   6 C    3.954 --    87 C    1.262    78 C    1.254    85 C    1.218
    51   6 C    3.970 --    79 C    1.271    88 C    1.240    86 C    1.233
    52   6 C    3.950 --    89 C    1.345    80 C    1.278    87 C    1.136
    53   6 C    3.965 --    24 C    1.271    90 C    1.240    26 C    1.233
    54   6 C    3.945 --    88 C    1.291    96 C    1.274    91 C    1.163
    55   6 C    3.952 --    83 C    1.259    92 C    1.249    90 C    1.233
    56   6 C    3.954 --    93 C    1.414    91 C    1.302   129 S    1.060
    57   6 C    3.962 --    84 C    1.259    94 C    1.248    92 C    1.239
    58   6 C    3.906 --    95 C    1.508    85 C    1.273   118 H    0.969
    59   6 C    3.967 --    86 C    1.272    96 C    1.253    94 C    1.219
    60   6 C    3.901 --    87 C    1.392    95 C    1.382   119 H    0.962
    61   6 C    3.941 --    26 C    1.271    97 C    1.263    27 C    1.192
    62   6 C    3.979 --    98 C    1.290   102 C    1.252    96 C    1.212
    63   6 C    3.955 --    90 C    1.270    99 C    1.245    97 C    1.227
    64   6 C    3.975 --   100 C    1.346    91 C    1.283    98 C    1.143
    65   6 C    3.960 --   101 C    1.269    92 C    1.256    99 C    1.219
    66   6 C    3.977 --   100 C    1.471    93 C    1.404   120 H    0.969
    67   6 C    3.953 --    94 C    1.276   101 C    1.245   102 C    1.219
    68   6 C    3.857 --    27 C    1.404    75 C    1.288   121 H    0.966
    69   6 C    3.961 --    76 C    1.329   102 C    1.282    82 C    1.152
    70   6 C    3.958 --    78 C    1.280    97 C    1.266    75 C    1.186
    71   6 C    3.961 --    76 C    1.502    98 C    1.329   122 H    0.958
    72   6 C    3.940 --    99 C    1.283    80 C    1.229    78 C    1.221
    73   6 C    3.976 --    82 C    1.278    80 C    1.249   101 C    1.226
    74   6 C    3.960 --    34 C    1.269    47 C    1.257    35 C    1.219
    75   6 C    3.985 --    48 C    1.352    68 C    1.288    70 C    1.186
    76   6 C    3.961 --    71 C    1.502    69 C    1.329   123 H    0.961
    77   6 C    3.955 --    49 C    1.270    35 C    1.245    36 C    1.227
    78   6 C    3.980 --    70 C    1.280    50 C    1.254    72 C    1.221
    79   6 C    3.941 --    51 C    1.271    36 C    1.264    37 C    1.192
    80   6 C    3.981 --    52 C    1.278    73 C    1.249    72 C    1.229
    81   6 C    3.949 --    45 C    1.544    37 C    1.221   124 H    0.964
    82   6 C    3.966 --    46 C    1.336    73 C    1.278    69 C    1.152
    83   6 C    3.962 --    55 C    1.259    44 C    1.248    47 C    1.239
    84   6 C    3.952 --    57 C    1.259    47 C    1.249    49 C    1.233
    85   6 C    3.985 --    48 C    1.331    58 C    1.273    50 C    1.218
    86   6 C    3.965 --    59 C    1.272    49 C    1.240    51 C    1.233
    87   6 C    3.982 --    60 C    1.392    50 C    1.262    52 C    1.136
    88   6 C    3.941 --    54 C    1.291    51 C    1.240    45 C    1.196
    89   6 C    3.971 --    46 C    1.488    52 C    1.345   125 H    0.961
    90   6 C    3.964 --    63 C    1.270    53 C    1.240    55 C    1.233
    91   6 C    3.978 --    56 C    1.302    64 C    1.283    54 C    1.163
    92   6 C    3.963 --    65 C    1.256    55 C    1.249    57 C    1.239
    93   6 C    3.972 --    56 C    1.414    66 C    1.404   126 H    0.967
    94   6 C    3.959 --    67 C    1.276    57 C    1.248    59 C    1.219
    95   6 C    3.983 --    58 C    1.508    60 C    1.382   127 H    0.970
    96   6 C    3.961 --    54 C    1.274    59 C    1.253    62 C    1.212
    97   6 C    3.978 --    70 C    1.266    61 C    1.263    63 C    1.227
    98   6 C    3.962 --    71 C    1.329    62 C    1.290    64 C    1.143
    99   6 C    3.969 --    72 C    1.283    63 C    1.245    65 C    1.219
   100   6 C    3.975 --    66 C    1.471    64 C    1.346   128 H    0.959
   101   6 C    3.959 --    65 C    1.269    67 C    1.245    73 C    1.226
   102   6 C    3.978 --    69 C    1.282    62 C    1.252    67 C    1.219
   103   1 H    0.998 --     1 C    0.961
   104   1 H    0.997 --     2 C    0.961
   105   1 H    0.997 --     4 C    0.959
   106   1 H    0.998 --     7 C    0.962
   107   1 H    0.998 --     8 C    0.961
   108   1 H    0.998 --    10 C    0.959
   109   1 H    0.997 --    13 C    0.967
   110   1 H    0.997 --    17 C    0.963
   111   1 H    0.997 --    18 C    0.969
   112   1 H    0.998 --    28 C    0.970
   113   1 H    0.998 --    38 C    0.969
   114   1 H    0.998 --    40 C    0.966
   115   1 H    0.997 --    43 C    0.966
   116   1 H    0.998 --    46 C    0.961
   117   1 H    0.998 --    48 C    0.966
   118   1 H    0.998 --    58 C    0.969
   119   1 H    0.998 --    60 C    0.962
   120   1 H    0.997 --    66 C    0.969
   121   1 H    0.997 --    68 C    0.966
   122   1 H    0.998 --    71 C    0.958
   123   1 H    0.997 --    76 C    0.961
   124   1 H    0.997 --    81 C    0.964
   125   1 H    0.998 --    89 C    0.961
   126   1 H    0.997 --    93 C    0.967
   127   1 H    0.998 --    95 C    0.970
   128   1 H    0.997 --   100 C    0.959
   129  16 S    2.432 --    56 C    1.060    45 C    1.049
   130  16 S    2.431 --    22 C    1.060    25 C    1.049
 ---------------------------------------------------------------------------

Topologies differ in total number of bonds
Writing topology from bond orders to xtbtopo.mol

molecular dipole:
                 x           y           z       tot (Debye)
 q only:        0.001      -0.003       0.012
   full:        0.003      -0.004       0.018       0.048
molecular quadrupole (traceless):
                xx          xy          yy          xz          yz          zz
 q only:      -15.364      -1.402      34.285       6.465      -2.580     -18.921
  q+dip:       -3.052      -1.290      66.864       9.783      -4.447     -63.811
   full:      -22.025      -1.595      48.127       9.907      -3.598     -26.102

           -------------------------------------------------
          |                Geometry Summary                 |
           -------------------------------------------------

      molecular mass/u    :     1315.4310961
   center of mass at/Å    :       -0.0000570       0.0001209      -0.0009130
  moments of inertia/u·Å² :        0.2793035E+05   0.3397587E+05   0.6174386E+05
rotational constants/cm⁻¹ :        0.6035597E-03   0.4961649E-03   0.2730252E-03

 * 160 selected distances

     #   Z          #   Z                                           value/Å
     1   6 C        8   6 C                                       1.3706182
     3   6 C        8   6 C                                       1.3975290
     1   6 C        9   6 C                                       1.3962489
     2   6 C       10   6 C                                       1.3671430
     5   6 C       10   6 C                                       1.3987157
     2   6 C       11   6 C                                       1.3973823
     6   6 C       11   6 C                                       1.4111989
     3   6 C       12   6 C                                       1.4104339
     4   6 C       18   6 C                                       1.3740612
    13   6 C       18   6 C                                       1.3816432
     4   6 C       19   6 C                                       1.4014130
    14   6 C       19   6 C                                       1.4155403
     5   6 C       20   6 C                                       1.4095467
     6   6 C       20   6 C                                       1.4199970
    15   6 C       20   6 C                                       1.4263666
     6   6 C       21   6 C                                       1.4216771
    13   6 C       22   6 C                                       1.3840088
    14   6 C       22   6 C                                       1.4064971
    15   6 C       23   6 C                                       1.4185311
    16   6 C       23   6 C                                       1.4142533
    15   6 C       24   6 C                                       1.4191283
    16   6 C       25   6 C                                       1.4266750
    17   6 C       25   6 C                                       1.3599732
    16   6 C       26   6 C                                       1.4249869
    17   6 C       27   6 C                                       1.4097414
     7   6 C       28   6 C                                       1.3909174
     7   6 C       29   6 C                                       1.3925486
     9   6 C       31   6 C                                       1.4145554
    12   6 C       31   6 C                                       1.4194952
    12   6 C       34   6 C                                       1.4214266
    21   6 C       34   6 C                                       1.4178827
    28   6 C       38   6 C                                       1.3697083
    30   6 C       38   6 C                                       1.4092512
    29   6 C       39   6 C                                       1.4158148
    30   6 C       39   6 C                                       1.4251540
    32   6 C       39   6 C                                       1.4159141
    30   6 C       40   6 C                                       1.3955545
    33   6 C       40   6 C                                       1.3913791
    31   6 C       41   6 C                                       1.4192966
    32   6 C       41   6 C                                       1.4209160
    35   6 C       41   6 C                                       1.4092907
    32   6 C       42   6 C                                       1.4091042
    33   6 C       42   6 C                                       1.4289321
    36   6 C       42   6 C                                       1.4128962
    33   6 C       43   6 C                                       1.4017214
    37   6 C       43   6 C                                       1.3809883
    21   6 C       44   6 C                                       1.4100986
    24   6 C       44   6 C                                       1.4251119
    24   6 C       53   6 C                                       1.4114976
    26   6 C       53   6 C                                       1.4204977
    26   6 C       61   6 C                                       1.4142525
    27   6 C       61   6 C                                       1.4253143
    27   6 C       68   6 C                                       1.3810034
    34   6 C       74   6 C                                       1.4110401
    35   6 C       74   6 C                                       1.4214849
    47   6 C       74   6 C                                       1.4138039
    48   6 C       75   6 C                                       1.3913861
    68   6 C       75   6 C                                       1.4015334
    70   6 C       75   6 C                                       1.4289129
    69   6 C       76   6 C                                       1.3971988
    71   6 C       76   6 C                                       1.3670824
    35   6 C       77   6 C                                       1.4162652
    36   6 C       77   6 C                                       1.4179144
    49   6 C       77   6 C                                       1.4109240
    50   6 C       78   6 C                                       1.4160040
    70   6 C       78   6 C                                       1.4091139
    72   6 C       78   6 C                                       1.4208522
    36   6 C       79   6 C                                       1.4123452
    37   6 C       79   6 C                                       1.4253504
    51   6 C       79   6 C                                       1.4141314
    52   6 C       80   6 C                                       1.4145929
    72   6 C       80   6 C                                       1.4192896
    73   6 C       80   6 C                                       1.4192880
    37   6 C       81   6 C                                       1.4099789
    45   6 C       81   6 C                                       1.3599646
    46   6 C       82   6 C                                       1.3974303
    73   6 C       82   6 C                                       1.4102095
    44   6 C       83   6 C                                       1.4178916
    47   6 C       83   6 C                                       1.4189005
    55   6 C       83   6 C                                       1.4127685
    47   6 C       84   6 C                                       1.4170783
    49   6 C       84   6 C                                       1.4191943
    57   6 C       84   6 C                                       1.4126478
    48   6 C       85   6 C                                       1.3954599
    50   6 C       85   6 C                                       1.4251430
    58   6 C       85   6 C                                       1.4092640
    49   6 C       86   6 C                                       1.4201904
    51   6 C       86   6 C                                       1.4202851
    59   6 C       86   6 C                                       1.4113461
    50   6 C       87   6 C                                       1.4158366
    60   6 C       87   6 C                                       1.3925513
    45   6 C       88   6 C                                       1.4266730
    51   6 C       88   6 C                                       1.4247516
    54   6 C       88   6 C                                       1.4141819
    46   6 C       89   6 C                                       1.3706580
    52   6 C       89   6 C                                       1.3963568
    53   6 C       90   6 C                                       1.4202962
    55   6 C       90   6 C                                       1.4193237
    63   6 C       90   6 C                                       1.4110736
    56   6 C       91   6 C                                       1.4065727
    64   6 C       91   6 C                                       1.4160140
    55   6 C       92   6 C                                       1.4171427
    57   6 C       92   6 C                                       1.4189313
    65   6 C       92   6 C                                       1.4138206
    56   6 C       93   6 C                                       1.3840029
    66   6 C       93   6 C                                       1.3812783
    57   6 C       94   6 C                                       1.4179617
    59   6 C       94   6 C                                       1.4250209
    67   6 C       94   6 C                                       1.4098814
    58   6 C       95   6 C                                       1.3696733
    60   6 C       95   6 C                                       1.3909042
    54   6 C       96   6 C                                       1.4184300
    59   6 C       96   6 C                                       1.4193928
    62   6 C       96   6 C                                       1.4262324
    61   6 C       97   6 C                                       1.4124775
    63   6 C       97   6 C                                       1.4179725
    70   6 C       97   6 C                                       1.4130219
    62   6 C       98   6 C                                       1.4100487
    71   6 C       98   6 C                                       1.3991010
    63   6 C       99   6 C                                       1.4163629
    65   6 C       99   6 C                                       1.4215430
    72   6 C       99   6 C                                       1.4094026
    64   6 C      100   6 C                                       1.4015401
    66   6 C      100   6 C                                       1.3739787
    65   6 C      101   6 C                                       1.4110365
    67   6 C      101   6 C                                       1.4179179
    73   6 C      101   6 C                                       1.4213352
    62   6 C      102   6 C                                       1.4200223
    67   6 C      102   6 C                                       1.4216687
    69   6 C      102   6 C                                       1.4109504
     1   6 C      103   1 H                                       1.0775174
     2   6 C      104   1 H                                       1.0772959
     4   6 C      105   1 H                                       1.0763266
     7   6 C      106   1 H                                       1.0775975
     8   6 C      107   1 H                                       1.0775257
    10   6 C      108   1 H                                       1.0766502
    13   6 C      109   1 H                                       1.0792336
    17   6 C      110   1 H                                       1.0797812
    18   6 C      111   1 H                                       1.0790565
    28   6 C      112   1 H                                       1.0803722
    38   6 C      113   1 H                                       1.0800514
    40   6 C      114   1 H                                       1.0806490
    43   6 C      115   1 H                                       1.0801840
    46   6 C      116   1 H                                       1.0776268
    48   6 C      117   1 H                                       1.0806384
    58   6 C      118   1 H                                       1.0800463
    60   6 C      119   1 H                                       1.0775893
    66   6 C      120   1 H                                       1.0791059
    68   6 C      121   1 H                                       1.0801652
    71   6 C      122   1 H                                       1.0764697
    76   6 C      123   1 H                                       1.0773988
    81   6 C      124   1 H                                       1.0797657
    89   6 C      125   1 H                                       1.0775144
    93   6 C      126   1 H                                       1.0792504
    95   6 C      127   1 H                                       1.0803683
   100   6 C      128   1 H                                       1.0760873 (min)
    45   6 C      129  16 S                                       1.7507391
    56   6 C      129  16 S                                       1.7459582
    22   6 C      130  16 S                                       1.7457013
    25   6 C      130  16 S                                       1.7511899 (max)

 * 3 distinct bonds (by element types)

   Z      Z             #   av. dist./Å        max./Å        min./Å
   1 H    6 C          26     1.0786257     1.0806490     1.0760873
   6 C    6 C         130     1.4083496     1.4289321     1.3599646
   6 C   16 S           4     1.7483972     1.7511899     1.7457013


optimized geometry written to: xtbopt.xyz


           -------------------------------------------------
          | TOTAL ENERGY             -238.951487991471 Eh   |
          | GRADIENT NORM               0.000346379292 Eh/α |
          | HOMO-LUMO GAP               0.321899756581 eV   |
           -------------------------------------------------

------------------------------------------------------------------------
 * finished run on 2025/12/08 at 00:32:16.759     
------------------------------------------------------------------------
 total:
 * wall-time:     0 d,  0 h,  0 min, 12.882 sec
 *  cpu-time:     0 d,  0 h,  0 min, 49.203 sec
 * ratio c/w:     3.820 speedup
 SCF:
 * wall-time:     0 d,  0 h,  0 min,  1.039 sec
 *  cpu-time:     0 d,  0 h,  0 min,  4.031 sec
 * ratio c/w:     3.880 speedup
 ANC optimizer:
 * wall-time:     0 d,  0 h,  0 min, 11.724 sec
 *  cpu-time:     0 d,  0 h,  0 min, 44.812 sec
 * ratio c/w:     3.822 speedup

normal termination of xtb
