130
 energy: -238.951487991471 gnorm: 0.000346379292 xtb: 6.7.1pre (5071a88)
C            1.21888566845105        7.73462636590874        0.27757102274388
C           -2.91678443229598        6.84938687749983       -0.32727051370294
C           -0.57727697890060        6.13891515028082        0.02857401435582
C           -7.06680263006411        5.98829544424999       -0.66139952095848
C           -4.72778533103668        5.25365574377872       -0.34946145751737
C           -2.41557693226914        4.49754182793275       -0.10258646187050
C            4.08583522320443        8.33292051708159        0.38080941572070
C           -0.11802482586364        7.45077556598997        0.17416490843153
C            2.18664664206193        6.72948139102640        0.22625993751415
C           -4.24843594323784        6.56403595130482       -0.44709853364736
C           -1.97351304183854        5.83743070672924       -0.13013939788096
C            0.36497143261814        5.08965878299119        0.05207972639239
C           -8.88161677074323        4.52884872513904       -0.19625058498107
C           -6.59181902836898        3.66365765325897       -0.09514827170660
C           -4.25762829954439        2.85776950205780       -0.05237193104684
C           -6.06552144486906        1.23159480406361        0.14812059393622
C           -7.83707205316420       -0.44852331444343        0.31281214500914
C           -8.42157737593402        5.77403313848720       -0.57941779924264
C           -6.14045007690001        4.97333634077959       -0.38628691200834
C           -3.80356212298186        4.20497184056910       -0.16809159897458
C           -1.46439668368195        3.44392461539546       -0.02313658793461
C           -7.98311213282552        3.50116705164525        0.03187159779902
C           -5.64589317777826        2.57641949842750        0.02373946842609
C           -3.29986955389008        1.81184788390803       -0.00069220383570
C           -7.43156097707519        0.84953195400622        0.30097696966774
C           -5.11368769224422        0.17210051978150        0.10260442049371
C           -6.91339423203501       -1.50708075207612        0.19599709652077
C            5.45022634076950        8.60274919357640        0.39755249619770
C            3.59943368564492        7.03262593286007        0.27200306381866
C            5.92361571940187        6.24886901455811        0.19207703157770
C            1.75095899822316        5.38752984492323        0.12472666466911
C            4.08329528919050        4.62436983332069        0.09935280508902
C            6.41565016486304        3.87554836207381       -0.01003934139486
C           -0.07807759465689        3.73974808338804        0.00846994900669
C            2.25630112903749        2.98902046662818        0.02731134548379
C            4.58503528880723        2.23090874913183       -0.04296255016950
C            6.91175636843950        1.51005338008449       -0.20809147201763
C            6.36082422550521        7.58426887077079        0.29952273995579
C            4.52679016020085        5.96617432732410        0.18701956701441
C            6.83613027117354        5.19853627943017        0.08395540660728
C            2.69382577400851        4.32737645788149        0.08626344634578
C            5.01907787760108        3.57422537038191        0.01519902950573
C            7.33283890371673        2.82348827228015       -0.13948738474812
C           -1.90517708189892        2.10454315608428       -0.01098503671619
C            7.42450205979239       -0.84305027429454       -0.38864835072925
C            0.12003909123548       -7.45172746885741       -0.06090380587941
C            0.43378883846952        1.34551148490839       -0.00187725889599
C           -6.83522244602568       -5.20151597786488       -0.00075309961706
C            2.77225394537019        0.58828420487267       -0.03372421831418
C           -4.52573729317988       -5.96992330185266       -0.08970941358571
C            5.11148786660023       -0.16967988667163       -0.13743608305508
C           -2.18536021580576       -6.73295119750458       -0.11917491125884
C           -3.72543240054249        0.46668059882548        0.04109674171603
C            5.64458710281905       -2.57472198368767       -0.10129799272593
C           -1.38490594811455       -0.29301563518332        0.00606235184605
C            7.97694638113384       -3.50222007598130       -0.21230939736694
C            0.95384719795597       -1.05126548452001       -0.00718105262770
C           -6.35913890802843       -7.59139176850933       -0.15955465135773
C            3.29944256333115       -1.81064228703759       -0.02941486019499
C           -4.08404359102505       -8.34045306734647       -0.22941130427460
C           -5.52820800285468       -1.17992532313820        0.12017508200878
C            3.80742994051425       -4.20240086263584        0.14328457183386
C           -3.19966182989906       -1.93220138195411        0.02721357778960
C            6.14975357593510       -4.97750381045503        0.26633035422072
C           -0.86670159171860       -2.69032409482767        0.00587464359854
C            8.43433296149739       -5.79424237419106        0.30448152244670
C            1.46490105921966       -3.44186930872410        0.03333786929127
C           -7.33344509041470       -2.82217740655715        0.16066747556917
C            1.97473047952305       -5.83086671568575        0.19545484689948
C           -5.01903670099845       -3.57467373055919        0.02860316030921
C            4.25285080345664       -6.54999934072571        0.50061714407401
C           -2.69369846792953       -4.32816087976272       -0.02998927347057
C           -0.36470912907670       -5.08851647531451        0.01047942046395
C            0.86638874417509        2.69141914785523        0.01331749562579
C           -6.41536258707649       -3.87640791024259        0.06057675026768
C            2.91772538769704       -6.83502498228338        0.42910201878426
C            3.19904099743996        1.93298971555833       -0.01566953825303
C           -4.08295516311003       -4.62611341973619       -0.03326423782946
C            5.52678801551961        1.18207960016588       -0.13115434066981
C           -1.75062132783365       -5.38864333672532       -0.04909577803891
C            7.83239822089060        0.45413420563136       -0.36775768869829
C            0.57790257762062       -6.13648537739048        0.05446720086764
C           -0.95454630860714        1.05259582594998        0.00015301436128
C            1.38401426793078        0.29428480213960       -0.01210995552223
C           -5.92235148384296       -6.25360892440741       -0.08486537279273
C            3.72409923645238       -0.46521135521603       -0.06655967362996
C           -3.59811008342378       -7.03768974081169       -0.15276184199375
C            6.06169769871404       -1.22835654992907       -0.21631492249136
C           -1.21711770184877       -7.73852652041684       -0.15288738183578
C           -2.77327653200130       -0.58709040896475        0.02671609824222
C            6.59205741824567       -3.66487458359025       -0.02772245306882
C           -0.43448156620662       -1.34419431242536        0.00289514313081
C            8.88146275631219       -4.53800306136410       -0.05588910264729
C            1.90501314576552       -2.10285861495708       -0.00008413095239
C           -5.44827733557942       -8.61145006272752       -0.23582351356386
C            4.25840248218311       -2.85657969359061        0.00354309522474
C           -4.58564625053235       -2.23008179364932        0.05819854981120
C            4.73548375275006       -5.24972074176809        0.31670347652247
C           -2.25658604153581       -2.98863609765940        0.00196870397593
C            7.08473789150694       -6.00474296460147        0.45314104482818
C            0.07830026235870       -3.73804055570955        0.02276619998919
C            2.41776841365826       -4.49345998402420        0.11902584930694
H            1.51008973422945        8.76570302857670        0.39213379285852
H           -2.60688276513768        7.87834751784181       -0.40321294961338
H           -6.72571604681528        6.96750633908707       -0.94999050268515
H            3.40859558957730        9.16788253952217        0.45430139859283
H           -0.81560185377903        8.27056428977416        0.22309396684805
H           -4.92717310120644        7.38706693746389       -0.59239554727938
H           -9.93666162044594        4.33371056032418       -0.07986115831853
H           -8.88709310184072       -0.67663797625568        0.41933338354896
H           -9.11800948008255        6.56941873462335       -0.79553518968335
H            5.78503241313197        9.62626982821476        0.48423777175574
H            7.42191287835961        7.78571556862115        0.30408750398276
H            7.89433940983920        5.41735654493292        0.07332050414846
H            8.38860288096469        3.04689465836679       -0.18691340720591
H            0.81951089188907       -8.27069787141969       -0.09704107493149
H           -7.89331573187993       -5.42045300036431        0.01611021724800
H           -7.42013463957284       -7.79333102279425       -0.15664337795780
H           -3.40646349751183       -9.17651069794000       -0.28501074550912
H            9.13580350854758       -6.60062742543814        0.45331547382240
H           -8.38929100378323       -3.04484836572222        0.20928455283702
H            4.92946629798584       -7.36689493427404        0.68408366101901
H            2.60409104229297       -7.85589983837992        0.57135517539241
H            8.88064104868910        0.68414849065680       -0.48681258722348
H           -1.50816315121428       -8.77187359651254       -0.24520965205223
H            9.93078958612270       -4.34156011085179       -0.21433318581090
H           -5.78268696331798       -9.63692036245857       -0.29727550910964
H            6.75621288381804       -6.99482939672892        0.71726959684308
S            8.70469806447163       -1.99414195172185       -0.70672557573702
S           -8.72465816101436        2.00551465251157        0.54236736462674
