130
 energy: -238.934417851864 gnorm: 0.044312569524 xtb: 6.7.1pre (5071a88)
C            1.23552000000000        7.79434000000000        0.11974000000000
C           -2.94792700000000        6.89723600000000       -0.28712300000000
C           -0.57884700000000        6.18255200000000       -0.03219700000000
C           -7.12985600000000        6.05227800000000       -0.54502300000000
C           -4.77138900000000        5.29406700000000       -0.28403900000000
C           -2.43737800000000        4.52837200000000       -0.09804800000000
C            4.11944800000000        8.39585500000000        0.30413200000000
C           -0.11056200000000        7.50642000000000        0.03235800000000
C            2.20576000000000        6.78045300000000        0.13871800000000
C           -4.29122200000000        6.61280500000000       -0.36562200000000
C           -1.99268300000000        5.87775500000000       -0.14019000000000
C            0.36759600000000        5.12568300000000        0.01439200000000
C           -8.96198000000000        4.55500100000000       -0.15777700000000
C           -6.65610900000000        3.69387600000000       -0.05206500000000
C           -4.29633000000000        2.87476300000000       -0.02869600000000
C           -6.11714000000000        1.23291800000000        0.13554400000000
C           -7.91166800000000       -0.45360700000000        0.18421200000000
C           -8.49120900000000        5.82770100000000       -0.48225200000000
C           -6.19839100000000        5.01596300000000       -0.31022700000000
C           -3.83920200000000        4.23459300000000       -0.13652500000000
C           -1.47844100000000        3.46566600000000       -0.02680600000000
C           -8.06106000000000        3.51903200000000        0.06207100000000
C           -5.69807000000000        2.58811400000000        0.04698700000000
C           -3.32961900000000        1.82255700000000        0.00638900000000
C           -7.50692500000000        0.84597400000000        0.24675000000000
C           -5.15463100000000        0.16829500000000        0.07669600000000
C           -6.97423600000000       -1.51910300000000        0.08607000000000
C            5.49598000000000        8.66645500000000        0.35188200000000
C            3.63169600000000        7.08659200000000        0.21062700000000
C            5.97547600000000        6.29167400000000        0.21289700000000
C            1.76556800000000        5.42626600000000        0.07995600000000
C            4.11700300000000        4.65735900000000        0.10440600000000
C            6.46916400000000        3.90102300000000        0.06748000000000
C           -0.07914100000000        3.76395800000000       -0.00426200000000
C            2.27438000000000        3.01176300000000        0.02921200000000
C            4.62177300000000        2.24677800000000       -0.00410500000000
C            6.97288100000000        1.52010100000000       -0.10392800000000
C            6.41412400000000        7.63834500000000        0.30282800000000
C            4.56577900000000        6.00889500000000        0.17569200000000
C            6.89202800000000        5.22929100000000        0.15262300000000
C            2.71516300000000        4.35749900000000        0.07547500000000
C            5.05917900000000        3.60048500000000        0.05715000000000
C            7.39327700000000        2.83582500000000       -0.02142900000000
C           -1.92142900000000        2.11903500000000       -0.01044600000000
C            7.50110800000000       -0.84095200000000       -0.32660400000000
C            0.11157400000000       -7.50638000000000        0.06191200000000
C            0.43658300000000        1.35422100000000       -0.00079200000000
C           -6.89200300000000       -5.23289200000000       -0.08105400000000
C            2.79456100000000        0.59451900000000       -0.02107500000000
C           -4.56580400000000       -6.01233200000000       -0.08255800000000
C            5.15262400000000       -0.16672700000000       -0.10660700000000
C           -2.20565000000000       -6.78258900000000       -0.03655900000000
C           -3.75575800000000        0.46691700000000        0.03259700000000
C            5.69658300000000       -2.58624800000000       -0.11557100000000
C           -1.39483500000000       -0.29636200000000        0.00477600000000
C            8.05754200000000       -3.51654200000000       -0.20882400000000
C            0.96220300000000       -1.05818700000000       -0.00351000000000
C           -6.41412400000000       -7.64475900000000       -0.16952800000000
C            3.32916400000000       -1.82209300000000       -0.02818100000000
C           -4.11952200000000       -8.40179100000000       -0.15306600000000
C           -5.57329200000000       -1.19277000000000        0.06315800000000
C            3.84246300000000       -4.23371800000000        0.10668700000000
C           -3.22553500000000       -1.94685800000000        0.01174000000000
C            6.20609100000000       -5.01729700000000        0.20691200000000
C           -0.87185500000000       -2.71143000000000        0.00956200000000
C            8.50276400000000       -5.83459700000000        0.27941500000000
C            1.47917200000000       -3.46529400000000        0.03715100000000
C           -7.39391800000000       -2.83645100000000        0.03082600000000
C            1.99565800000000       -5.87532400000000        0.17371400000000
C           -5.05939100000000       -3.60183900000000       -0.01738000000000
C            4.29846300000000       -6.60869900000000        0.35681000000000
C           -2.71523400000000       -4.35881400000000       -0.01921300000000
C           -0.36694500000000       -5.12567100000000        0.04025900000000
C            0.87170700000000        2.71115200000000        0.01417500000000
C           -6.46927100000000       -3.90300000000000       -0.02662700000000
C            2.95342800000000       -6.89263000000000        0.31896800000000
C            3.22498300000000        1.94661600000000        0.00395900000000
C           -4.11708200000000       -4.65943700000000       -0.04085800000000
C            5.57203700000000        1.19368400000000       -0.07439400000000
C           -1.76540100000000       -5.42742800000000       -0.00780000000000
C            7.90826400000000        0.45653600000000       -0.24023700000000
C            0.58027100000000       -6.18152100000000        0.09477000000000
C           -0.96274100000000        1.05817200000000        0.00637700000000
C            1.39414200000000        0.29632300000000       -0.00098200000000
C           -5.97543100000000       -6.29627700000000       -0.11327100000000
C            3.75458700000000       -0.46627900000000       -0.05049700000000
C           -3.63178400000000       -7.09050100000000       -0.09374900000000
C            6.11361900000000       -1.23002300000000       -0.19621200000000
C           -1.23519500000000       -7.79591300000000       -0.00548900000000
C           -2.79546600000000       -0.59431500000000        0.02182000000000
C            6.65668700000000       -3.69277300000000       -0.05285800000000
C           -0.43709400000000       -1.35427900000000        0.01071400000000
C            8.96410400000000       -4.55656700000000       -0.03678700000000
C            1.92137700000000       -2.11876500000000        0.00687600000000
C           -5.49601700000000       -8.67376500000000       -0.19236000000000
C            4.29674800000000       -2.87404900000000       -0.01360100000000
C           -4.62239400000000       -2.24699200000000        0.01928300000000
C            4.77823500000000       -5.29273900000000        0.23632200000000
C           -2.27464700000000       -3.01230800000000        0.00343000000000
C            7.14420900000000       -6.05844600000000        0.38806200000000
C            0.07960800000000       -3.76380100000000        0.03406800000000
C            2.43976500000000       -4.52704500000000        0.10323700000000
H            1.52994700000000        8.83568900000000        0.16600300000000
H           -2.64316700000000        7.93398600000000       -0.34913800000000
H           -6.78553100000000        7.04787200000000       -0.79039300000000
H            3.43558800000000        9.23500000000000        0.34324900000000
H           -0.80547100000000        8.33636500000000        0.02582900000000
H           -4.97682800000000        7.44354300000000       -0.46491200000000
H          -10.02850600000000        4.36539200000000       -0.07999900000000
H           -8.96896900000000       -0.69859800000000        0.23668500000000
H           -9.19026700000000        6.63556400000000       -0.67573900000000
H            5.83211100000000        9.69673400000000        0.42477300000000
H            7.48096300000000        7.84186900000000        0.33298300000000
H            7.95699400000000        5.44663200000000        0.16836700000000
H            8.45663500000000        3.06007500000000       -0.03623600000000
H            0.80653500000000       -8.33612700000000        0.07681100000000
H           -7.95695600000000       -5.45044200000000       -0.09460300000000
H           -7.48098400000000       -7.84891000000000       -0.19461300000000
H           -3.43565500000000       -9.24161700000000       -0.17136500000000
H            9.20657400000000       -6.64725100000000        0.43112500000000
H           -8.45738300000000       -3.06038300000000        0.04202800000000
H            4.98440000000000       -7.43872400000000        0.45848000000000
H            2.64969900000000       -7.92753900000000        0.40980800000000
H            8.96473000000000        0.70201500000000       -0.30534700000000
H           -1.52979700000000       -8.83795800000000       -0.02889800000000
H           10.02763900000000       -4.36613700000000       -0.14671500000000
H           -5.83206700000000       -9.70561300000000       -0.23847000000000
H            6.80860000000000       -7.05929700000000        0.62329500000000
S            8.76005900000000       -1.99647100000000       -0.75191300000000
S           -8.77821900000000        2.00874800000000        0.61240100000000
130
 energy: -238.945985085411 gnorm: 0.020465903828 xtb: 6.7.1pre (5071a88)
C            1.23559687320630        7.76950905668224        0.11941942086955
C           -2.94120581147006        6.87461163961590       -0.28386299032835
C           -0.57608912131037        6.16460972400277       -0.03261609972701
C           -7.11371043192392        6.02962779525183       -0.54281452691618
C           -4.75977370581935        5.27807713528950       -0.28116847180583
C           -2.43096222915892        4.51627524505572       -0.09668536139436
C            4.11306489159217        8.37090285619124        0.30199134028013
C           -0.10548288097284        7.48286881248279        0.03241092612017
C            2.20386466937377        6.76063148910203        0.13752123161073
C           -4.27951800418136        6.59154201418102       -0.36190206957664
C           -1.98598641842021        5.86056697328848       -0.13816921518918
C            0.36890146774924        5.11208455964418        0.01392627478792
C           -8.93286174620859        4.54336964238966       -0.15476503593289
C           -6.63330251173006        3.68331315126651       -0.05216547809355
C           -4.28383209843533        2.86921594301962       -0.03048448124919
C           -6.09665411834889        1.23285811253117        0.13166740498948
C           -7.88132761714252       -0.45191186157424        0.18666974186870
C           -8.46933558988862        5.80700955495920       -0.48394357582327
C           -6.18115568782733        5.00160458967318       -0.30773412659144
C           -3.82821118574632        4.22355709570788       -0.13485619712052
C           -1.47363270786543        3.45815603845919       -0.02708072503562
C           -8.03118416716341        3.51479299803406        0.06399114014034
C           -5.68002326246397        2.58475406927286        0.04295882893709
C           -3.32015467884607        1.81964275364641        0.00512038598509
C           -7.47465736373026        0.84418240160476        0.25024111430480
C           -5.14000771431181        0.17029632921747        0.07307690823016
C           -6.94996040509630       -1.51472705972296        0.08165109948214
C            5.48092711659974        8.64002101709048        0.35006760259338
C            3.62359908428043        7.06705667448899        0.20832491448504
C            5.95485471293697        6.27593349376139        0.21134710133459
C            1.76267922435860        5.41200108812090        0.07897044946107
C            4.10582288934559        4.64600945029171        0.10351459407598
C            6.44717021052260        3.89153643565985        0.06682592405349
C           -0.07828586872017        3.75552083461720       -0.00329519170552
C            2.26884230911967        3.00373831570333        0.02961972498057
C            4.60905643065214        2.24079780954137       -0.00352124932283
C            6.94867670757467        1.51565118860795       -0.09929817187982
C            6.39275830518521        7.61686511816563        0.30091124529048
C            4.55274136064721        5.99335159421878        0.17411505812932
C            6.86811157651035        5.21751450341881        0.15146719335632
C            2.70906043500371        4.34680301336119        0.07424162573930
C            5.04430663721257        3.59071543254310        0.05648557771778
C            7.36780341676373        2.83018712699287       -0.01967228774650
C           -1.91652205011284        2.11437947776550       -0.00862348718537
C            7.46886377430535       -0.83900129172787       -0.32941882811968
C            0.10651174977700       -7.48284206842601        0.06114864221807
C            0.43578405695667        1.35119403173329        0.00166239905889
C           -6.86809806506267       -5.22107333409743       -0.08012766575140
C            2.78744757219213        0.59175580132317       -0.01891315633418
C           -4.55276391283018       -5.99673628083410       -0.08142498900587
C            5.13808442728083       -0.16880942723424       -0.10278593489329
C           -2.20375349117055       -6.76274536062223       -0.03598920067632
C           -3.74544623260761        0.46745416481810        0.03248250227642
C            5.67863148526610       -2.58299169697538       -0.11116915859984
C           -1.39172031388259       -0.29527621437516        0.00722036752842
C            8.02753063593461       -3.51233417609735       -0.20999067132689
C            0.95974023270478       -1.05662846926623       -0.00066488455237
C           -6.39276627828858       -7.62322592230156       -0.16816505956466
C            3.31971863699334       -1.81923458596128       -0.02682704625252
C           -4.11315292437756       -8.37679439020037       -0.15167366533132
C           -5.55634389115620       -1.18751699409097        0.06020861051097
C            3.83143967746402       -4.22274954404619        0.10504904590138
C           -3.21683519683147       -1.94175013131338        0.01299139657035
C            6.18875463666968       -5.00295454667036        0.20497203383264
C           -0.87069942893022       -2.70461873181446        0.01141706162953
C            8.48102261512070       -5.81398054642150        0.28174927461204
C            1.47436476002059       -3.45781137263880        0.03730692062690
C           -7.36843651298406       -2.83081607622260        0.02912708501784
C            1.98889316981504       -5.85817502477125        0.17119214874563
C           -5.04450029723901       -3.59203970593096       -0.01683368998846
C            4.28660325696738       -6.58749025433895        0.35312718726773
C           -2.70912433237510       -4.34809003850824       -0.01827319184968
C           -0.36826178586512       -5.11206941793219        0.04025844871473
C            0.87056141272175        2.70434663378782        0.01223911944339
C           -6.44725717426144       -3.89348602983366       -0.02609208982023
C            2.94655003251401       -6.87005143976981        0.31554525457414
C            3.21630662417399        1.94151168048660        0.00275156765815
C           -4.10589306205589       -4.64805759216780       -0.04026994857235
C            5.55516321182365        1.18836634692717       -0.07123555342185
C           -1.76251415186050       -5.41313938843320       -0.00736497431014
C            7.87785979906848        0.45500192467216       -0.24238694459261
C            0.57750203054058       -6.16356771829051        0.09450483580881
C           -0.96027187146997        1.05659001876200        0.00351040092229
C            1.39101788363242        0.29522410032252       -0.00333712226578
C           -5.95480535427753       -6.28049695120547       -0.11206930870079
C            3.74429493055580       -0.46686639482677       -0.05008878545958
C           -3.62368652139404       -7.07091368713280       -0.09211912090963
C            6.09328949183938       -1.23007421751853       -0.19184351810003
C           -1.23527246378805       -7.77109172806763       -0.00588307826414
C           -2.78833303179804       -0.59159636463632        0.01961490453395
C            6.63386039719370       -3.68232147806967       -0.05210852823329
C           -0.43631202199024       -1.35128133866425        0.00822209843260
C            8.93494582714815       -4.54480623062236       -0.03867461584200
C            1.91644234180612       -2.11413652776466        0.00509313584582
C           -5.48098214869925       -8.64729552980209       -0.19120330609959
C            4.28429508405797       -2.86855973834447       -0.01153742446424
C           -4.60964613605836       -2.24101754442740        0.01867051951731
C            4.76656712731160       -5.27682008212450        0.23331534511385
C           -2.26909991421620       -3.00428908140363        0.00272798679836
C            7.12805040291492       -6.03580807397205        0.38629444155991
C            0.07874434877333       -3.75537793410599        0.03287671626495
C            2.43334372061461       -4.51496953255715        0.10162847121971
H            1.52783045729724        8.80829472308374        0.16654261266510
H           -2.64064463051483        7.90924140290760       -0.34646167249597
H           -6.77680802918566        7.02457404168874       -0.78529805515007
H            3.43692444350305        9.21158460365633        0.34192530074236
H           -0.79565570096652        8.31286833389827        0.02587593949286
H           -4.96169328410454        7.42114314057604       -0.46429279275968
H           -9.99433578043023        4.35228286211470       -0.06892690651276
H           -8.93603201990596       -0.69041848859261        0.24645123646195
H           -9.16844865170919        6.61104924347698       -0.67352247937016
H            5.81710860879228        9.66702062725165        0.42296017123312
H            7.45547564183730        7.82187479519855        0.33109389032425
H            7.92930561930170        5.43602981399815        0.16806494425493
H            8.42749823027172        3.05452180216042       -0.03436756647502
H            0.79674797144054       -8.31263617445427        0.07665017311269
H           -7.92927635309017       -5.43981767346791       -0.09439507118061
H           -7.45549863677374       -7.82884488910969       -0.19324881005473
H           -3.43703439020678       -9.21820444321843       -0.17061049529669
H            9.18477693607117       -6.62263873610283        0.43004125856978
H           -8.42823316482414       -3.05485303244581        0.04040608902509
H            4.96910651134254       -7.41636225916252        0.45806115045757
H            2.64697142087156       -7.90279465352640        0.40712547761974
H            8.93155321943294        0.69432533991127       -0.31496050957608
H           -1.52768902129447       -8.81059919268687       -0.02971767040366
H            9.99319617444614       -4.35267114535831       -0.15613122894839
H           -5.81708820638631       -9.67586476974423       -0.23736715455586
H            6.79986290273876       -7.03585982533327        0.61893583076089
S            8.73797877255802       -1.99082854950314       -0.72028549749960
S           -8.75514982094039        2.00240597288932        0.58149628845730
130
 energy: -238.950613951939 gnorm: 0.008302985816 xtb: 6.7.1pre (5071a88)
C            1.23263900319169        7.74858702600677        0.11956449200625
C           -2.93120173141306        6.85717794607626       -0.28114754299506
C           -0.57443146500483        6.14760481186926       -0.03206268698378
C           -7.09041360844369        6.01076158058443       -0.54099303760211
C           -4.74485005314875        5.26346132906624       -0.27995148357839
C           -2.42255946001577        4.50417445061260       -0.09546801385294
C            4.09926175727388        8.34768065400245        0.30019261403890
C           -0.10549817029574        7.46294433107352        0.03250071774826
C            2.19800452596283        6.74099525653213        0.13671779599405
C           -4.26664922468736        6.57457422759906       -0.36036699427277
C           -1.97857238990015        5.84473355272233       -0.13627523628873
C            0.36839173788512        5.09765658365458        0.01383555394329
C           -8.90426836375417        4.53030226590881       -0.14811557451371
C           -6.60932198360834        3.66974491874815       -0.05385365502964
C           -4.26844817858449        2.86244044512412       -0.03186222587447
C           -6.07628440931232        1.23106496606201        0.12840760555475
C           -7.85402702955534       -0.45127589118512        0.19184778824216
C           -8.44457039691972        5.79029400274410       -0.47980040747238
C           -6.16025426794700        4.98709227623622       -0.30638435109056
C           -3.81468797609551        4.21222620872751       -0.13429031932680
C           -1.46796690166839        3.44945556108169       -0.02686574893321
C           -8.00215297534208        3.50354527203070        0.06241119676134
C           -5.65937511820680        2.57964753315878        0.04087309268570
C           -3.30793004322134        1.81526701862113        0.00357380016981
C           -7.44553295827320        0.84328664138654        0.24812493186352
C           -5.12324082616182        0.17144166538008        0.07052432743678
C           -6.92656652528690       -1.50981424629104        0.08325796219896
C            5.46307829552795        8.61626599190405        0.34817284897302
C            3.61138716068664        7.04643435868872        0.20682601836091
C            5.93507215077027        6.25804918766143        0.20991050367888
C            1.75744605717280        5.39651160463878        0.07829203471145
C            4.09231369144718        4.63233738664801        0.10275446059538
C            6.42616438384329        3.87957946744771        0.06758156148928
C           -0.07782024557996        3.74569541128407       -0.00266140683715
C            2.26125309216798        2.99400162507893        0.02982574141011
C            4.59397083963628        2.23364941631841       -0.00163152948242
C            6.92528739182501        1.51080515531154       -0.10065537170920
C            6.37302937923770        7.59492568007748        0.29900127355946
C            4.53794853494272        5.97611140081103        0.17266970010931
C            6.84698739112539        5.20329888067582        0.15126300026854
C            2.70060973805739        4.33423466497464        0.07329727868298
C            5.02834916024827        3.57907315752843        0.05674446403634
C            7.34506284647829        2.82355406893102       -0.01975072628268
C           -1.90986987876158        2.10843903533856       -0.00801824577985
C            7.43988105747930       -0.83809283164090       -0.32682926490621
C            0.10650952873658       -7.46294882954707        0.06059642820671
C            0.43450103673673        1.34738605257745        0.00272955252758
C           -6.84697938742865       -5.20681760918955       -0.08013777951829
C            2.77791148856626        0.58882959405946       -0.01726455665230
C           -4.53797419228255       -5.97943996618464       -0.08044525834809
C            5.12141860938779       -0.17000948715869       -0.09996906686107
C           -2.19790064972602       -6.74309531839653       -0.03579576496060
C           -3.73265740831715        0.46710371444581        0.03106216703753
C            5.65804696811803       -2.57794653655043       -0.10883392935304
C           -1.38729500172121       -0.29410798753356        0.00791312301838
C            7.99851544176417       -3.50112526108303       -0.20754205856950
C            0.95641516499851       -1.05429797127486        0.00034934684592
C           -6.37304911180673       -7.60121283411931       -0.16681689772076
C            3.30753430091478       -1.81491133774596       -0.02526839378004
C           -4.09936425157214       -8.35352376239264       -0.15051675248363
C           -5.53845200060300       -1.18239070115990        0.05830927086886
C            3.81790500709705       -4.21147975897700        0.10442127117856
C           -3.20588453502086       -1.93570502247901        0.01280529022789
C            6.16775816403304       -4.98848020243836        0.20394599235628
C           -0.86837593247758       -2.69631126499876        0.01197131123647
C            8.45608131889049       -5.79723332713202        0.27840610168874
C            1.46870679962770       -3.44916195045405        0.03681901631060
C           -7.34570310938485       -2.82413407494813        0.02935776500658
C            1.98143067467286       -5.84240597996327        0.16900364491360
C           -5.02852537790139       -3.58038317834124       -0.01718850880153
C            4.27371384458247       -6.57054713568894        0.35175043240366
C           -2.70066307365487       -4.33550452410397       -0.01768388461584
C           -0.36775897193070       -5.09766244654184        0.03981464261499
C            0.86826188965005        2.69602062529906        0.01148618852382
C           -6.42622695820735       -3.88152401102936       -0.02691363038368
C            2.93646639001384       -6.85266340458296        0.31298088431523
C            3.20539457175157        1.93544625098240        0.00295623138453
C           -4.09237557436068       -4.63435576781012       -0.03983701825380
C            5.53732723027265        1.18320162157954       -0.06906960817707
C           -1.75728199727912       -5.39763928420394       -0.00726613824944
C            7.85048439325265        0.45456880872193       -0.24721975020127
C            0.57581913380902       -6.14659379611141        0.09342728001914
C           -0.95691951880672        1.05422809809095        0.00241233010754
C            1.38661952492029        0.29402697881360       -0.00405986508249
C           -5.93502122130583       -6.26255663650423       -0.11105143901252
C            3.73157041862601       -0.46657185435935       -0.04848385231239
C           -3.61148493219925       -7.05025341587155       -0.09123014474315
C            6.07308263561953       -1.22838507722096       -0.18824290781630
C           -1.23234992798737       -7.75019302786179       -0.00648661723581
C           -2.77875164753576       -0.58871235060383        0.01797859402524
C            6.60991766056824       -3.66887505605093       -0.04992681581466
C           -0.43501208517754       -1.34750062392422        0.00706250213716
C            8.90614264767078       -4.53159579219048       -0.04429944977137
C            1.90980076710495       -2.10823087911821        0.00437420941750
C           -5.46315403345614       -8.62348316198048       -0.18992120616145
C            4.26895340100681       -2.86183760012919       -0.01008934430313
C           -4.59452625575052       -2.23389669194986        0.01684733589784
C            4.75162679805631       -5.26223930098015        0.23212730668677
C           -2.26148823889123       -2.99456079640793        0.00226908874723
C            7.10464416242638       -6.01695777265358        0.38514730050323
C            0.07828833112514       -3.74557864394315        0.03190308955236
C            2.42493912521911       -4.50291319836508        0.10013622508482
H            1.52580321299557        8.78495369700923        0.16794232144652
H           -2.63078341650458        7.89006259734350       -0.34198942624382
H           -6.75532761386531        7.00454016816152       -0.78364981873043
H            3.42555479344273        9.18803090286826        0.33980974963660
H           -0.79458838393122        8.29155900083422        0.02503200717797
H           -4.94857855265040        7.40181654467735       -0.46471455046777
H           -9.96158685394849        4.33364417734173       -0.05575653291675
H           -8.90694180943898       -0.68326618864918        0.25915227859681
H           -9.14313204909796        6.59025207550577       -0.67403298228936
H            5.79882295629959        9.64105426865759        0.42137683658629
H            7.43360401915266        7.79863414017012        0.32909778021053
H            7.90559288901083        5.42199494172543        0.16774227966864
H            8.40223297630364        3.04718596498558       -0.03355583892711
H            0.79568118549244       -8.29133325709773        0.07714952157227
H           -7.90556775116842       -5.42573689283847       -0.09421891751142
H           -7.43363789036980       -7.80551017434039       -0.19183054385684
H           -3.42568582787647       -9.19460420587716       -0.16920183127742
H            9.15945689635220       -6.60191318640435        0.43143536798280
H           -8.40296011476681       -3.04750476495685        0.03979589873009