      -----------------------------------------------------------      
     |                   =====================                   |     
     |                           x T B                           |     
     |                   =====================                   |     
     |                         S. Grimme                         |     
     |          Mulliken Center for Theoretical Chemistry        |     
     |                    University of Bonn                     |     
      -----------------------------------------------------------      

   * xtb version 6.7.1pre (5071a88) compiled by 'Marcel@Raven' on 2024-07-23

   xtb is free software: you can redistribute it and/or modify it under
   the terms of the GNU Lesser General Public License as published by
   the Free Software Foundation, either version 3 of the License, or
   (at your option) any later version.
   
   xtb is distributed in the hope that it will be useful,
   but WITHOUT ANY WARRANTY; without even the implied warranty of
   MERCHANTABILITY or FITNESS FOR A PARTICULAR PURPOSE.  See the
   GNU Lesser General Public License for more details.
   
   Cite this work as:
   * C. Bannwarth, E. Caldeweyher, S. Ehlert, A. Hansen, P. Pracht,
     J. Seibert, S. Spicher, S. Grimme, WIREs Comput. Mol. Sci., 2020, 11,
     e01493. DOI: 10.1002/wcms.1493
   
   for GFN2-xTB:
   * C. Bannwarth, S. Ehlert and S. Grimme., J. Chem. Theory Comput., 2019,
     15, 1652-1671. DOI: 10.1021/acs.jctc.8b01176
   for GFN1-xTB:
   * S. Grimme, C. Bannwarth, P. Shushkov, J. Chem. Theory Comput., 2017,
     13, 1989-2009. DOI: 10.1021/acs.jctc.7b00118
   for GFN0-xTB:
   * P. Pracht, E. Caldeweyher, S. Ehlert, S. Grimme, ChemRxiv, 2019, preprint.
     DOI: 10.26434/chemrxiv.8326202.v1
   for GFN-FF:
   * S. Spicher and S. Grimme, Angew. Chem. Int. Ed., 2020, 59, 15665-15673.
     DOI: 10.1002/anie.202004239
   
   for ALPB and GBSA implicit solvation:
   * S. Ehlert, M. Stahn, S. Spicher, S. Grimme, J. Chem. Theory Comput.,
     2021, 17, 4250-4261. DOI: 10.1021/acs.jctc.1c00471
   
   for ddCOSMO and CPCM-X implicit solvation:
   * M. Stahn, S. Ehlert, S. Grimme, J. Phys. Chem. A,
     2023, XX, XXXX-XXXX. DOI: 10.1021/acs.jpca.3c04382
   
   for DFT-D4:
   * E. Caldeweyher, C. Bannwarth and S. Grimme, J. Chem. Phys., 2017,
     147, 034112. DOI: 10.1063/1.4993215
   * E. Caldeweyher, S. Ehlert, A. Hansen, H. Neugebauer, S. Spicher,
     C. Bannwarth and S. Grimme, J. Chem. Phys., 2019, 150, 154122.
     DOI: 10.1063/1.5090222
   * E. Caldeweyher, J.-M. Mewes, S. Ehlert and S. Grimme, Phys. Chem. Chem. Phys.
     2020, 22, 8499-8512. DOI: 10.1039/D0CP00502A
   
   for sTDA-xTB:
   * S. Grimme and C. Bannwarth, J. Chem. Phys., 2016, 145, 054103.
     DOI: 10.1063/1.4959605
   
   in the mass-spec context:
   * V. Asgeirsson, C. Bauer and S. Grimme, Chem. Sci., 2017, 8, 4879.
     DOI: 10.1039/c7sc00601b
   * J. Koopman and S. Grimme, ACS Omega 2019, 4, 12, 15120-15133.
     DOI: 10.1021/acsomega.9b02011
   
   for metadynamics refer to:
   * S. Grimme, J. Chem. Theory Comput., 2019, 155, 2847-2862
     DOI: 10.1021/acs.jctc.9b00143
   
   for SPH calculations refer to:
   * S. Spicher and S. Grimme, J. Chem. Theory Comput., 2021, 17, 1701-1714
     DOI: 10.1021/acs.jctc.0c01306
   
   for ONIOM refer to:
   * C. Plett, A. Katbashev, S. Ehlert, S. Grimme, M. Bursch,
     Phys. Chem. Chem. Phys., 2023, 25, 17860-17868. DOI: 10.1039/D3CP02178E
   
   for DIPRO refer to:
   * J. Kohn, N. Gildemeister, S. Grimme, D. Fazzi, A. Hansen,
     J. Chem. Phys., 2023, just accepted.
   
   for PTB refer to:
   * S. Grimme, M. Mueller, A. Hansen, J. Chem. Phys., 2023, 158, 124111.
     DOI: 10.1063/5.0137838
   
   with help from (in alphabetical order)
   P. Atkinson, C. Bannwarth, F. Bohle, G. Brandenburg, E. Caldeweyher
   M. Checinski, S. Dohm, S. Ehlert, S. Ehrlich, I. Gerasimov, C. Hölzer
   A. Katbashev, J. Kohn, J. Koopman, C. Lavigne, S. Lehtola, F. März, M. Müller,
   F. Musil, H. Neugebauer, J. Pisarek, C. Plett, P. Pracht, F. Pultar,
   J. Seibert, P. Shushkov, S. Spicher, M. Stahn, M. Steiner, T. Strunk,
   J. Stückrath, T. Rose, and J. Unsleber
   
 * started run on 2025/12/08 at 00:32:03.477     
   ID    Z sym.   atoms
    1    6 C      1-102
    2    1 H      103-130
    3   15 P      131, 132

           -------------------------------------------------
          |                Calculation Setup                |
           -------------------------------------------------

          program call               : xtb "C:\Users\LENOVO GAMING\Documents\GitHub\molecular-conductivity-sim\results\1.5nm-2Pdoped-1.5percent\xtbopt.xyz" --sp
          coordinate file            : C:\Users\LENOVO GAMING\Documents\GitHub\molecular-conductivity-sim\results\1.5nm-2Pdoped-1.5percent\xtbopt.xyz
          omp threads                :                    16


           -------------------------------------------------
          |                 G F N 2 - x T B                 |
           -------------------------------------------------

        Reference                      10.1021/acs.jctc.8b01176
      * Hamiltonian:
        H0-scaling (s, p, d)           1.850000    2.230000    2.230000
        zeta-weighting                 0.500000
      * Dispersion:
        s8                             2.700000
        a1                             0.520000
        a2                             5.000000
        s9                             5.000000
      * Repulsion:
        kExp                           1.500000    1.000000
        rExp                           1.000000
      * Coulomb:
        alpha                          2.000000
        third order                    shell-resolved
        anisotropic                    true
        a3                             3.000000
        a5                             4.000000
        cn-shift                       1.200000
        cn-exp                         4.000000
        max-rad                        5.000000

q/qsh data taken from xtbrestart
CAMM data taken from xtbrestart

          ...................................................
          :                      SETUP                      :
          :.................................................:
          :  # basis functions                 456          :
          :  # atomic orbitals                 454          :
          :  # shells                          238          :
          :  # electrons                       446          :
          :  max. iterations                   250          :
          :  Hamiltonian                  GFN2-xTB          :
          :  restarted?                       true          :
          :  GBSA solvation                  false          :
          :  PC potential                    false          :
          :  electronic temp.          300.0000000     K    :
          :  accuracy                    1.0000000          :
          :  -> integral cutoff          0.2500000E+02      :
          :  -> integral neglect         0.1000000E-07      :
          :  -> SCF convergence          0.1000000E-05 Eh   :
          :  -> wf. convergence          0.1000000E-03 e    :
          :  Broyden damping             0.4000000          :
          :  net charge                          0          :
          :  unpaired electrons                  0          :
          ...................................................

 iter      E             dE          RMSdq      gap      omega  full diag
   1   -243.1193209 -0.243119E+03  0.201E-05    0.33       0.0  T
   2   -243.1193209  0.896222E-09  0.596E-05    0.33     146.1  T
   3   -243.1193209 -0.860439E-09  0.190E-05    0.33     458.0  T

   *** convergence criteria satisfied after 3 iterations ***

         #    Occupation            Energy/Eh            Energy/eV
      -------------------------------------------------------------
         1        2.0000           -0.6720148             -18.2865
       ...           ...                  ...                  ...
       217        2.0000           -0.3815115             -10.3815
       218        2.0000           -0.3773628             -10.2686
       219        2.0000           -0.3770272             -10.2594
       220        2.0000           -0.3656352              -9.9494
       221        2.0000           -0.3605068              -9.8099
       222        2.0000           -0.3544049              -9.6438
       223        1.9964           -0.3318082              -9.0290 (HOMO)
       224        0.0036           -0.3198205              -8.7028 (LUMO)
       225                         -0.2934002              -7.9838
       226                         -0.2874493              -7.8219
       227                         -0.2749392              -7.4815
       228                         -0.2678921              -7.2897
       ...                                ...                  ...
       454                          0.8970934              24.4112
      -------------------------------------------------------------
                  HL-Gap            0.0119877 Eh            0.3262 eV
             Fermi-level           -0.3258143 Eh           -8.8659 eV

 SCC (total)                   0 d,  0 h,  0 min,  0.274 sec
 SCC setup                      ...        0 min,  0.001 sec (  0.365%)
 Dispersion                     ...        0 min,  0.008 sec (  2.920%)
 classical contributions        ...        0 min,  0.001 sec (  0.365%)
 integral evaluation            ...        0 min,  0.026 sec (  9.489%)
 iterations                     ...        0 min,  0.161 sec ( 58.759%)
 molecular gradient             ...        0 min,  0.073 sec ( 26.642%)
 printout                       ...        0 min,  0.004 sec (  1.460%)

         :::::::::::::::::::::::::::::::::::::::::::::::::::::
         ::                     SUMMARY                     ::
         :::::::::::::::::::::::::::::::::::::::::::::::::::::
         :: total energy            -238.489374079480 Eh    ::
         :: gradient norm              0.000211074574 Eh/a0 ::
         :: HOMO-LUMO gap              0.326201174754 eV    ::
         ::.................................................::
         :: SCC energy              -243.126962375706 Eh    ::
         :: -> isotropic ES            0.002971263580 Eh    ::
         :: -> anisotropic ES          0.011121787946 Eh    ::
         :: -> anisotropic XC          0.089787329165 Eh    ::
         :: -> dispersion             -0.295540781017 Eh    ::
         :: repulsion energy           4.637588296227 Eh    ::
         :: add. restraining           0.000000000000 Eh    ::
         :: total charge               0.000000000000 e     ::
         :::::::::::::::::::::::::::::::::::::::::::::::::::::

           -------------------------------------------------
          |                Property Printout                |
           -------------------------------------------------

    * Orbital Energies and Occupations

         #    Occupation            Energy/Eh            Energy/eV
      -------------------------------------------------------------
         1        2.0000           -0.6720148             -18.2865
       ...           ...                  ...                  ...
       211        2.0000           -0.3949783             -10.7479
       212        2.0000           -0.3928814             -10.6908
       213        2.0000           -0.3874156             -10.5421
       214        2.0000           -0.3867359             -10.5236
       215        2.0000           -0.3856348             -10.4937
       216        2.0000           -0.3845302             -10.4636
       217        2.0000           -0.3815115             -10.3815
       218        2.0000           -0.3773628             -10.2686
       219        2.0000           -0.3770272             -10.2594
       220        2.0000           -0.3656352              -9.9494
       221        2.0000           -0.3605068              -9.8099
       222        2.0000           -0.3544049              -9.6438
       223        1.9964           -0.3318082              -9.0290 (HOMO)
       224        0.0036           -0.3198205              -8.7028 (LUMO)
       225                         -0.2934002              -7.9838
       226                         -0.2874493              -7.8219
       227                         -0.2749392              -7.4815
       228                         -0.2678921              -7.2897
       229                         -0.2623362              -7.1385
       230                         -0.2609623              -7.1011
       231                         -0.2563372              -6.9753
       232                         -0.2533985              -6.8953
       233                         -0.2437083              -6.6316
       234                         -0.2406342              -6.5480
       ...                                ...                  ...
       454                          0.8970934              24.4112
      -------------------------------------------------------------
                  HL-Gap            0.0119877 Eh            0.3262 eV
             Fermi-level           -0.3258143 Eh           -8.8659 eV

     #   Z          covCN         q      C6AA      α(0)
     1   6 C        2.919    -0.037    28.909     8.817
     2   6 C        2.920    -0.037    28.916     8.818
     3   6 C        2.981     0.005    27.913     8.666
     4   6 C        2.925    -0.037    28.928     8.820
     5   6 C        2.983     0.004    27.917     8.667
     6   6 C        2.991     0.001    27.989     8.678
     7   6 C        2.922    -0.036    28.897     8.815
     8   6 C        2.919    -0.037    28.918     8.818
     9   6 C        2.979     0.004    27.922     8.668
    10   6 C        2.920    -0.037    28.924     8.819
    11   6 C        2.982     0.005    27.913     8.666
    12   6 C        2.991     0.001    27.993     8.679
    13   6 C        3.038    -0.034    28.820     8.805
    14   6 C        3.046     0.005    27.878     8.660
    15   6 C        2.985    -0.001    28.039     8.686
    16   6 C        3.033     0.003    27.920     8.667
    17   6 C        3.053    -0.043    29.006     8.833
    18   6 C        2.915    -0.030    28.757     8.794
    19   6 C        2.985     0.006    27.874     8.660
    20   6 C        2.990     0.001    27.985     8.678
    21   6 C        2.987     0.000    28.015     8.682
    22   6 C        2.922     0.005    27.906     8.663
    23   6 C        2.973     0.002    27.979     8.676
    24   6 C        2.987    -0.000    28.021     8.683
    25   6 C        2.913     0.004    27.939     8.667
    26   6 C        2.988     0.000    28.014     8.682
    27   6 C        2.979     0.011    27.763     8.643
    28   6 C        2.912    -0.030    28.740     8.791
    29   6 C        2.975     0.006    27.872     8.660
    30   6 C        2.980     0.013    27.728     8.638
    31   6 C        2.990     0.001    27.986     8.678
    32   6 C        2.986     0.001    27.995     8.679
    33   6 C        2.977     0.012    27.750     8.641
    34   6 C        2.987    -0.001    28.033     8.685
    35   6 C        2.988    -0.001    28.036     8.686
    36   6 C        2.989     0.001    27.997     8.679
    37   6 C        2.979     0.011    27.763     8.643
    38   6 C        2.921    -0.037    28.911     8.817
    39   6 C        2.994     0.002    27.981     8.677
    40   6 C        2.925    -0.044    29.103     8.847
    41   6 C        2.987    -0.000    28.023     8.684
    42   6 C        2.993    -0.000    28.026     8.684
    43   6 C        2.925    -0.045    29.115     8.849
    44   6 C        2.987    -0.001    28.034     8.685
    45   6 C        2.913     0.004    27.939     8.667
    46   6 C        2.919    -0.037    28.918     8.818
    47   6 C        2.988    -0.001    28.034     8.685
    48   6 C        2.925    -0.044    29.103     8.847
    49   6 C        2.988    -0.000    28.029     8.684
    50   6 C        2.994     0.002    27.981     8.677
    51   6 C        2.988     0.000    28.014     8.682
    52   6 C        2.979     0.004    27.922     8.668
    53   6 C        2.989    -0.000    28.030     8.685
    54   6 C        2.973     0.002    27.979     8.676
    55   6 C        2.989    -0.000    28.023     8.684
    56   6 C        2.922     0.005    27.906     8.663
    57   6 C        2.989    -0.000    28.032     8.685
    58   6 C        2.921    -0.037    28.911     8.817
    59   6 C        2.987    -0.000    28.021     8.683
    60   6 C        2.922    -0.036    28.897     8.815
    61   6 C        2.993    -0.000    28.019     8.683
    62   6 C        2.990     0.001    27.985     8.678
    63   6 C        2.990    -0.001    28.033     8.685
    64   6 C        2.985     0.006    27.874     8.660
    65   6 C        2.989    -0.000    28.024     8.684
    66   6 C        2.915    -0.030    28.757     8.794
    67   6 C        2.987     0.000    28.015     8.682
    68   6 C        2.925    -0.045    29.115     8.849
    69   6 C        2.982     0.005    27.913     8.666
    70   6 C        2.993    -0.000    28.026     8.684
    71   6 C        2.920    -0.037    28.924     8.819
    72   6 C        2.987    -0.000    28.023     8.684
    73   6 C        2.991     0.001    27.993     8.679
    74   6 C        2.989    -0.000    28.024     8.684
    75   6 C        2.977     0.012    27.750     8.641
    76   6 C        2.920    -0.037    28.916     8.818
    77   6 C        2.990    -0.001    28.033     8.685
    78   6 C        2.986     0.001    27.995     8.679
    79   6 C        2.993    -0.000    28.019     8.683
    80   6 C        2.990     0.001    27.986     8.678
    81   6 C        3.053    -0.043    29.006     8.833
    82   6 C        2.981     0.005    27.913     8.666
    83   6 C        2.989    -0.000    28.032     8.685
    84   6 C        2.989    -0.000    28.023     8.684
    85   6 C        2.980     0.013    27.728     8.638
    86   6 C        2.989    -0.000    28.030     8.685
    87   6 C        2.975     0.006    27.872     8.660
    88   6 C        3.033     0.003    27.920     8.667
    89   6 C        2.919    -0.037    28.909     8.817
    90   6 C        2.988    -0.000    28.029     8.684
    91   6 C        3.046     0.005    27.878     8.660
    92   6 C        2.988    -0.001    28.034     8.685
    93   6 C        3.038    -0.034    28.820     8.805
    94   6 C        2.987    -0.001    28.034     8.685
    95   6 C        2.912    -0.030    28.740     8.791
    96   6 C        2.985    -0.001    28.039     8.686
    97   6 C        2.989     0.001    27.997     8.679
    98   6 C        2.983     0.004    27.917     8.667
    99   6 C        2.988    -0.001    28.036     8.686
   100   6 C        2.925    -0.037    28.928     8.820
   101   6 C        2.987    -0.001    28.033     8.685
   102   6 C        2.991     0.001    27.989     8.678
   103   1 H        0.926     0.033     2.540     2.492
   104   1 H        0.926     0.034     2.531     2.488
   105   1 H        0.926     0.036     2.503     2.474
   106   1 H        0.926     0.033     2.547     2.496
   107   1 H        0.926     0.034     2.537     2.491
   108   1 H        0.926     0.034     2.528     2.487
   109   1 H        0.925     0.035     2.514     2.480
   110   1 H        0.925     0.035     2.521     2.483
   111   1 H        0.926     0.033     2.549     2.497
   112   1 H        0.926     0.030     2.586     2.515
   113   1 H        0.926     0.032     2.564     2.504
   114   1 H        0.926     0.032     2.553     2.499
   115   1 H        0.926     0.032     2.554     2.499
   116   1 H        0.926     0.034     2.537     2.491
   117   1 H        0.926     0.032     2.553     2.499
   118   1 H        0.926     0.032     2.564     2.504
   119   1 H        0.926     0.033     2.547     2.496
   120   1 H        0.926     0.033     2.549     2.497
   121   1 H        0.926     0.032     2.554     2.499
   122   1 H        0.926     0.034     2.528     2.487
   123   1 H        0.926     0.034     2.531     2.488
   124   1 H        0.925     0.035     2.521     2.483
   125   1 H        0.926     0.033     2.540     2.492
   126   1 H        0.925     0.035     2.514     2.480
   127   1 H        0.926     0.030     2.586     2.515
   128   1 H        0.926     0.036     2.503     2.474
   129   1 H        0.977     0.048     2.340     2.390
   130   1 H        0.977     0.048     2.340     2.390
   131  15 P        3.215    -0.085   164.070    23.009
   132  15 P        3.215    -0.085   164.070    23.009

 Mol. C6AA /au·bohr⁶  :     374039.767803
 Mol. C8AA /au·bohr⁸  :   10608540.327973
 Mol. α(0) /au        :       1004.140376


Wiberg/Mayer (AO) data.
largest (>0.10) Wiberg bond orders for each atom

 ---------------------------------------------------------------------------
     #   Z sym  total        # sym  WBO       # sym  WBO       # sym  WBO
 ---------------------------------------------------------------------------
     1   6 C    3.971 --     8 C    1.488     9 C    1.345   103 H    0.961
     2   6 C    3.962 --    10 C    1.499    11 C    1.331   104 H    0.961
     3   6 C    3.966 --     8 C    1.337    12 C    1.278    11 C    1.151
     4   6 C    3.983 --    18 C    1.482    19 C    1.343   105 H    0.961
     5   6 C    3.962 --    10 C    1.331    20 C    1.293    19 C    1.138
     6   6 C    3.978 --    11 C    1.282    20 C    1.253    21 C    1.218
     7   6 C    3.902 --    29 C    1.393    28 C    1.381   106 H    0.962
     8   6 C    3.954 --     1 C    1.488     3 C    1.337   107 H    0.961
     9   6 C    3.950 --     1 C    1.345    31 C    1.278    29 C    1.135
    10   6 C    3.961 --     2 C    1.499     5 C    1.331   108 H    0.961
    11   6 C    3.961 --     2 C    1.331     6 C    1.282     3 C    1.151
    12   6 C    3.975 --     3 C    1.278    31 C    1.249    34 C    1.226
    13   6 C    3.978 --    22 C    1.438    18 C    1.391   109 H    0.962
    14   6 C    3.979 --    22 C    1.296    19 C    1.294    23 C    1.153
    15   6 C    3.961 --    23 C    1.285    24 C    1.251    20 C    1.206
    16   6 C    3.941 --    23 C    1.284    26 C    1.249    25 C    1.185
    17   6 C    3.953 --    25 C    1.568    27 C    1.213   110 H    0.958
    18   6 C    3.976 --     4 C    1.482    13 C    1.391   111 H    0.969
    19   6 C    3.975 --     4 C    1.343    14 C    1.294     5 C    1.138
    20   6 C    3.979 --     5 C    1.293     6 C    1.253    15 C    1.206
    21   6 C    3.952 --    44 C    1.274    34 C    1.247     6 C    1.218
    22   6 C    3.970 --    13 C    1.438    14 C    1.296   132 P    1.039
    23   6 C    3.941 --    15 C    1.285    16 C    1.284    14 C    1.153
    24   6 C    3.967 --    53 C    1.273    15 C    1.251    44 C    1.220
    25   6 C    3.964 --    17 C    1.568    16 C    1.185   132 P    1.037
    26   6 C    3.971 --    61 C    1.270    16 C    1.249    53 C    1.231
    27   6 C    3.978 --    68 C    1.411    17 C    1.213    61 C    1.194
    28   6 C    3.983 --    38 C    1.508     7 C    1.381   112 H    0.970
    29   6 C    3.982 --     7 C    1.393    39 C    1.261     9 C    1.135
    30   6 C    3.985 --    40 C    1.330    38 C    1.273    39 C    1.219
    31   6 C    3.981 --     9 C    1.278    12 C    1.249    41 C    1.228
    32   6 C    3.980 --    42 C    1.278    39 C    1.255    41 C    1.221
    33   6 C    3.985 --    40 C    1.354    43 C    1.284    42 C    1.187
    34   6 C    3.960 --    74 C    1.269    21 C    1.247    12 C    1.226
    35   6 C    3.969 --    41 C    1.283    77 C    1.245    74 C    1.219
    36   6 C    3.978 --    42 C    1.268    79 C    1.262    77 C    1.227
    37   6 C    3.978 --    43 C    1.411    81 C    1.213    79 C    1.194
    38   6 C    3.907 --    28 C    1.508    30 C    1.273   113 H    0.969
    39   6 C    3.955 --    29 C    1.261    32 C    1.255    30 C    1.219
    40   6 C    3.826 --    33 C    1.354    30 C    1.330   114 H    0.966
    41   6 C    3.939 --    35 C    1.283    31 C    1.228    32 C    1.221
    42   6 C    3.960 --    32 C    1.278    36 C    1.268    33 C    1.187
    43   6 C    3.855 --    37 C    1.411    33 C    1.284   115 H    0.966
    44   6 C    3.959 --    21 C    1.274    83 C    1.249    24 C    1.220
    45   6 C    3.964 --    81 C    1.568    88 C    1.185   131 P    1.037
    46   6 C    3.954 --    89 C    1.488    82 C    1.337   116 H    0.961
    47   6 C    3.963 --    74 C    1.256    84 C    1.249    83 C    1.240
    48   6 C    3.826 --    75 C    1.354    85 C    1.330   117 H    0.966
    49   6 C    3.964 --    77 C    1.270    86 C    1.240    84 C    1.234
    50   6 C    3.955 --    87 C    1.261    78 C    1.255    85 C    1.219
    51   6 C    3.971 --    79 C    1.270    88 C    1.249    86 C    1.231
    52   6 C    3.950 --    89 C    1.345    80 C    1.278    87 C    1.135
    53   6 C    3.965 --    24 C    1.273    90 C    1.240    26 C    1.231
    54   6 C    3.941 --    96 C    1.285    88 C    1.284    91 C    1.153
    55   6 C    3.953 --    83 C    1.258    92 C    1.249    90 C    1.234
    56   6 C    3.970 --    93 C    1.438    91 C    1.296   131 P    1.039
    57   6 C    3.962 --    84 C    1.258    94 C    1.249    92 C    1.240
    58   6 C    3.907 --    95 C    1.508    85 C    1.273   118 H    0.969
    59   6 C    3.967 --    86 C    1.273    96 C    1.251    94 C    1.220
    60   6 C    3.902 --    87 C    1.393    95 C    1.381   119 H    0.962
    61   6 C    3.942 --    26 C    1.270    97 C    1.262    27 C    1.194
    62   6 C    3.979 --    98 C    1.293   102 C    1.253    96 C    1.206
    63   6 C    3.954 --    90 C    1.270    99 C    1.245    97 C    1.227
    64   6 C    3.975 --   100 C    1.343    91 C    1.294    98 C    1.138
    65   6 C    3.960 --   101 C    1.269    92 C    1.256    99 C    1.219
    66   6 C    3.976 --   100 C    1.482    93 C    1.391   120 H    0.969
    67   6 C    3.952 --    94 C    1.274   101 C    1.247   102 C    1.218
    68   6 C    3.855 --    27 C    1.411    75 C    1.284   121 H    0.966
    69   6 C    3.961 --    76 C    1.331   102 C    1.282    82 C    1.151
    70   6 C    3.960 --    78 C    1.278    97 C    1.268    75 C    1.187
    71   6 C    3.961 --    76 C    1.499    98 C    1.331   122 H    0.961
    72   6 C    3.939 --    99 C    1.283    80 C    1.228    78 C    1.221
    73   6 C    3.975 --    82 C    1.278    80 C    1.249   101 C    1.226
    74   6 C    3.960 --    34 C    1.269    47 C    1.256    35 C    1.219
    75   6 C    3.985 --    48 C    1.354    68 C    1.284    70 C    1.187
    76   6 C    3.962 --    71 C    1.499    69 C    1.331   123 H    0.961
    77   6 C    3.954 --    49 C    1.270    35 C    1.245    36 C    1.227
    78   6 C    3.980 --    70 C    1.278    50 C    1.255    72 C    1.221
    79   6 C    3.942 --    51 C    1.270    36 C    1.262    37 C    1.194
    80   6 C    3.981 --    52 C    1.278    73 C    1.249    72 C    1.228
    81   6 C    3.953 --    45 C    1.568    37 C    1.213   124 H    0.958
    82   6 C    3.966 --    46 C    1.337    73 C    1.278    69 C    1.151
    83   6 C    3.962 --    55 C    1.258    44 C    1.249    47 C    1.240
    84   6 C    3.953 --    57 C    1.258    47 C    1.249    49 C    1.234
    85   6 C    3.985 --    48 C    1.330    58 C    1.273    50 C    1.219
    86   6 C    3.965 --    59 C    1.273    49 C    1.240    51 C    1.231
    87   6 C    3.982 --    60 C    1.393    50 C    1.261    52 C    1.135
    88   6 C    3.941 --    54 C    1.284    51 C    1.249    45 C    1.185
    89   6 C    3.971 --    46 C    1.488    52 C    1.345   125 H    0.961
    90   6 C    3.964 --    63 C    1.270    53 C    1.240    55 C    1.234
    91   6 C    3.979 --    56 C    1.296    64 C    1.294    54 C    1.153
    92   6 C    3.963 --    65 C    1.256    55 C    1.249    57 C    1.240
    93   6 C    3.978 --    56 C    1.438    66 C    1.391   126 H    0.962
    94   6 C    3.959 --    67 C    1.274    57 C    1.249    59 C    1.220
    95   6 C    3.983 --    58 C    1.508    60 C    1.381   127 H    0.970
    96   6 C    3.961 --    54 C    1.285    59 C    1.251    62 C    1.206
    97   6 C    3.978 --    70 C    1.268    61 C    1.262    63 C    1.227
    98   6 C    3.962 --    71 C    1.331    62 C    1.293    64 C    1.138
    99   6 C    3.969 --    72 C    1.283    63 C    1.245    65 C    1.219
   100   6 C    3.983 --    66 C    1.482    64 C    1.343   128 H    0.961
   101   6 C    3.960 --    65 C    1.269    67 C    1.247    73 C    1.226
   102   6 C    3.978 --    69 C    1.282    62 C    1.253    67 C    1.218
   103   1 H    0.998 --     1 C    0.961
   104   1 H    0.998 --     2 C    0.961
   105   1 H    0.998 --     4 C    0.961
   106   1 H    0.998 --     7 C    0.962
   107   1 H    0.998 --     8 C    0.961
   108   1 H    0.998 --    10 C    0.961
   109   1 H    0.998 --    13 C    0.962
   110   1 H    0.997 --    17 C    0.958
   111   1 H    0.998 --    18 C    0.969
   112   1 H    0.998 --    28 C    0.970
   113   1 H    0.998 --    38 C    0.969
   114   1 H    0.998 --    40 C    0.966
   115   1 H    0.998 --    43 C    0.966
   116   1 H    0.998 --    46 C    0.961
   117   1 H    0.998 --    48 C    0.966
   118   1 H    0.998 --    58 C    0.969
   119   1 H    0.998 --    60 C    0.962
   120   1 H    0.998 --    66 C    0.969
   121   1 H    0.998 --    68 C    0.966
   122   1 H    0.998 --    71 C    0.961
   123   1 H    0.998 --    76 C    0.961
   124   1 H    0.997 --    81 C    0.958
   125   1 H    0.998 --    89 C    0.961
   126   1 H    0.998 --    93 C    0.962
   127   1 H    0.998 --    95 C    0.970
   128   1 H    0.998 --   100 C    0.961
   129   1 H    0.994 --   132 P    0.942
   130   1 H    0.994 --   131 P    0.942
   131  15 P    3.306 --    56 C    1.039    45 C    1.037   130 H    0.942
   132  15 P    3.306 --    22 C    1.039    25 C    1.037   129 H    0.942
 ---------------------------------------------------------------------------

Topologies differ in total number of bonds
Writing topology from bond orders to xtbtopo.mol

molecular dipole:
                 x           y           z       tot (Debye)
 q only:       -0.000       0.000       0.000
   full:       -0.000       0.000       0.000       0.000
molecular quadrupole (traceless):
                xx          xy          yy          xz          yz          zz
 q only:        1.211       1.181      22.142      -9.640       3.862     -23.353
  q+dip:       21.050       2.938      52.372     -21.912       9.124     -73.422
   full:        2.888       2.863      33.783     -22.461       7.816     -36.671


           -------------------------------------------------
          | TOTAL ENERGY             -238.489374079480 Eh   |
          | GRADIENT NORM               0.000211074574 Eh/α |
          | HOMO-LUMO GAP               0.326201174754 eV   |
           -------------------------------------------------

------------------------------------------------------------------------
 * finished run on 2025/12/08 at 00:32:03.830     
------------------------------------------------------------------------
 total:
 * wall-time:     0 d,  0 h,  0 min,  0.350 sec
 *  cpu-time:     0 d,  0 h,  0 min,  4.984 sec
 * ratio c/w:    14.241 speedup
 SCF:
 * wall-time:     0 d,  0 h,  0 min,  0.277 sec
 *  cpu-time:     0 d,  0 h,  0 min,  4.078 sec
 * ratio c/w:    14.722 speedup

normal termination of xtb
