      -----------------------------------------------------------      
     |                   =====================                   |     
     |                           x T B                           |     
     |                   =====================                   |     
     |                         S. Grimme                         |     
     |          Mulliken Center for Theoretical Chemistry        |     
     |                    University of Bonn                     |     
      -----------------------------------------------------------      

   * xtb version 6.7.1pre (5071a88) compiled by 'Marcel@Raven' on 2024-07-23

   xtb is free software: you can redistribute it and/or modify it under
   the terms of the GNU Lesser General Public License as published by
   the Free Software Foundation, either version 3 of the License, or
   (at your option) any later version.
   
   xtb is distributed in the hope that it will be useful,
   but WITHOUT ANY WARRANTY; without even the implied warranty of
   MERCHANTABILITY or FITNESS FOR A PARTICULAR PURPOSE.  See the
   GNU Lesser General Public License for more details.
   
   Cite this work as:
   * C. Bannwarth, E. Caldeweyher, S. Ehlert, A. Hansen, P. Pracht,
     J. Seibert, S. Spicher, S. Grimme, WIREs Comput. Mol. Sci., 2020, 11,
     e01493. DOI: 10.1002/wcms.1493
   
   for GFN2-xTB:
   * C. Bannwarth, S. Ehlert and S. Grimme., J. Chem. Theory Comput., 2019,
     15, 1652-1671. DOI: 10.1021/acs.jctc.8b01176
   for GFN1-xTB:
   * S. Grimme, C. Bannwarth, P. Shushkov, J. Chem. Theory Comput., 2017,
     13, 1989-2009. DOI: 10.1021/acs.jctc.7b00118
   for GFN0-xTB:
   * P. Pracht, E. Caldeweyher, S. Ehlert, S. Grimme, ChemRxiv, 2019, preprint.
     DOI: 10.26434/chemrxiv.8326202.v1
   for GFN-FF:
   * S. Spicher and S. Grimme, Angew. Chem. Int. Ed., 2020, 59, 15665-15673.
     DOI: 10.1002/anie.202004239
   
   for ALPB and GBSA implicit solvation:
   * S. Ehlert, M. Stahn, S. Spicher, S. Grimme, J. Chem. Theory Comput.,
     2021, 17, 4250-4261. DOI: 10.1021/acs.jctc.1c00471
   
   for ddCOSMO and CPCM-X implicit solvation:
   * M. Stahn, S. Ehlert, S. Grimme, J. Phys. Chem. A,
     2023, XX, XXXX-XXXX. DOI: 10.1021/acs.jpca.3c04382
   
   for DFT-D4:
   * E. Caldeweyher, C. Bannwarth and S. Grimme, J. Chem. Phys., 2017,
     147, 034112. DOI: 10.1063/1.4993215
   * E. Caldeweyher, S. Ehlert, A. Hansen, H. Neugebauer, S. Spicher,
     C. Bannwarth and S. Grimme, J. Chem. Phys., 2019, 150, 154122.
     DOI: 10.1063/1.5090222
   * E. Caldeweyher, J.-M. Mewes, S. Ehlert and S. Grimme, Phys. Chem. Chem. Phys.
     2020, 22, 8499-8512. DOI: 10.1039/D0CP00502A
   
   for sTDA-xTB:
   * S. Grimme and C. Bannwarth, J. Chem. Phys., 2016, 145, 054103.
     DOI: 10.1063/1.4959605
   
   in the mass-spec context:
   * V. Asgeirsson, C. Bauer and S. Grimme, Chem. Sci., 2017, 8, 4879.
     DOI: 10.1039/c7sc00601b
   * J. Koopman and S. Grimme, ACS Omega 2019, 4, 12, 15120-15133.
     DOI: 10.1021/acsomega.9b02011
   
   for metadynamics refer to:
   * S. Grimme, J. Chem. Theory Comput., 2019, 155, 2847-2862
     DOI: 10.1021/acs.jctc.9b00143
   
   for SPH calculations refer to:
   * S. Spicher and S. Grimme, J. Chem. Theory Comput., 2021, 17, 1701-1714
     DOI: 10.1021/acs.jctc.0c01306
   
   for ONIOM refer to:
   * C. Plett, A. Katbashev, S. Ehlert, S. Grimme, M. Bursch,
     Phys. Chem. Chem. Phys., 2023, 25, 17860-17868. DOI: 10.1039/D3CP02178E
   
   for DIPRO refer to:
   * J. Kohn, N. Gildemeister, S. Grimme, D. Fazzi, A. Hansen,
     J. Chem. Phys., 2023, just accepted.
   
   for PTB refer to:
   * S. Grimme, M. Mueller, A. Hansen, J. Chem. Phys., 2023, 158, 124111.
     DOI: 10.1063/5.0137838
   
   with help from (in alphabetical order)
   P. Atkinson, C. Bannwarth, F. Bohle, G. Brandenburg, E. Caldeweyher
   M. Checinski, S. Dohm, S. Ehlert, S. Ehrlich, I. Gerasimov, C. Hölzer
   A. Katbashev, J. Kohn, J. Koopman, C. Lavigne, S. Lehtola, F. März, M. Müller,
   F. Musil, H. Neugebauer, J. Pisarek, C. Plett, P. Pracht, F. Pultar,
   J. Seibert, P. Shushkov, S. Spicher, M. Stahn, M. Steiner, T. Strunk,
   J. Stückrath, T. Rose, and J. Unsleber
   
 * started run on 2025/12/08 at 00:31:47.938     
   ID    Z sym.   atoms
    1    6 C      1-102
    2    1 H      103-130
    3   15 P      131, 132

           -------------------------------------------------
          |                Calculation Setup                |
           -------------------------------------------------

          program call               : xtb "C:\Users\LENOVO GAMING\Documents\GitHub\molecular-conductivity-sim\dataset\1.5nm-2Pdoped-1.5percent.xyz" --opt --parallel 4
          coordinate file            : C:\Users\LENOVO GAMING\Documents\GitHub\molecular-conductivity-sim\dataset\1.5nm-2Pdoped-1.5percent.xyz
          omp threads                :                     4


           -------------------------------------------------
          |                 G F N 2 - x T B                 |
           -------------------------------------------------

        Reference                      10.1021/acs.jctc.8b01176
      * Hamiltonian:
        H0-scaling (s, p, d)           1.850000    2.230000    2.230000
        zeta-weighting                 0.500000
      * Dispersion:
        s8                             2.700000
        a1                             0.520000
        a2                             5.000000
        s9                             5.000000
      * Repulsion:
        kExp                           1.500000    1.000000
        rExp                           1.000000
      * Coulomb:
        alpha                          2.000000
        third order                    shell-resolved
        anisotropic                    true
        a3                             3.000000
        a5                             4.000000
        cn-shift                       1.200000
        cn-exp                         4.000000
        max-rad                        5.000000


          ...................................................
          :                      SETUP                      :
          :.................................................:
          :  # basis functions                 456          :
          :  # atomic orbitals                 454          :
          :  # shells                          238          :
          :  # electrons                       446          :
          :  max. iterations                   250          :
          :  Hamiltonian                  GFN2-xTB          :
          :  restarted?                      false          :
          :  GBSA solvation                  false          :
          :  PC potential                    false          :
          :  electronic temp.          300.0000000     K    :
          :  accuracy                    1.0000000          :
          :  -> integral cutoff          0.2500000E+02      :
          :  -> integral neglect         0.1000000E-07      :
          :  -> SCF convergence          0.1000000E-05 Eh   :
          :  -> wf. convergence          0.1000000E-03 e    :
          :  Broyden damping             0.4000000          :
          :  net charge                          0          :
          :  unpaired electrons                  0          :
          ...................................................

 iter      E             dE          RMSdq      gap      omega  full diag
   1   -242.7453187 -0.242745E+03  0.503E+00    0.34       0.0  T
   2   -242.7854657 -0.401471E-01  0.298E+00    0.34       1.0  T
   3   -242.5658006  0.219665E+00  0.104E+00    0.37       1.0  T
   4   -242.7627175 -0.196917E+00  0.477E-01    0.37       1.0  T
   5   -242.8018197 -0.391022E-01  0.182E-01    0.34       1.0  T
   6   -242.8065610 -0.474131E-02  0.451E-02    0.34       1.0  T
   7   -242.8065816 -0.206610E-04  0.299E-02    0.34       1.0  T
   8   -242.8066287 -0.470204E-04  0.165E-02    0.34       1.0  T
   9   -242.8063816  0.247059E-03  0.340E-02    0.34       1.0  T
  10   -242.8066838 -0.302246E-03  0.455E-03    0.34       1.9  T
  11   -242.8066866 -0.276589E-05  0.164E-03    0.34       5.3  T
  12   -242.8066871 -0.464964E-06  0.395E-04    0.34      22.0  T
  13   -242.8066871 -0.464473E-08  0.225E-04    0.34      38.7  T

   *** convergence criteria satisfied after 13 iterations ***

         #    Occupation            Energy/Eh            Energy/eV
      -------------------------------------------------------------
         1        2.0000           -0.6689104             -18.2020
       ...           ...                  ...                  ...
       217        2.0000           -0.3806093             -10.3569
       218        2.0000           -0.3758820             -10.2283
       219        2.0000           -0.3754274             -10.2159
       220        2.0000           -0.3642162              -9.9108
       221        2.0000           -0.3598841              -9.7929
       222        2.0000           -0.3539379              -9.6311
       223        1.9972           -0.3319748              -9.0335 (HOMO)
       224        0.0028           -0.3194673              -8.6931 (LUMO)
       225                         -0.2933804              -7.9833
       226                         -0.2880673              -7.8387
       227                         -0.2753797              -7.4935
       228                         -0.2690814              -7.3221
       ...                                ...                  ...
       454                          0.8617290              23.4488
      -------------------------------------------------------------
                  HL-Gap            0.0125075 Eh            0.3403 eV
             Fermi-level           -0.3257210 Eh           -8.8633 eV

 SCC (total)                   0 d,  0 h,  0 min,  1.107 sec
 SCC setup                      ...        0 min,  0.002 sec (  0.181%)
 Dispersion                     ...        0 min,  0.007 sec (  0.632%)
 classical contributions        ...        0 min,  0.000 sec (  0.000%)
 integral evaluation            ...        0 min,  0.043 sec (  3.884%)
 iterations                     ...        0 min,  0.861 sec ( 77.778%)
 molecular gradient             ...        0 min,  0.188 sec ( 16.983%)
 printout                       ...        0 min,  0.006 sec (  0.542%)

         :::::::::::::::::::::::::::::::::::::::::::::::::::::
         ::                     SUMMARY                     ::
         :::::::::::::::::::::::::::::::::::::::::::::::::::::
         :: total energy            -238.471026349467 Eh    ::
         :: gradient norm              0.043457862924 Eh/a0 ::
         :: HOMO-LUMO gap              0.340345184450 eV    ::
         ::.................................................::
         :: SCC energy              -242.814298176428 Eh    ::
         :: -> isotropic ES            0.002386757096 Eh    ::
         :: -> anisotropic ES          0.011871786762 Eh    ::
         :: -> anisotropic XC          0.096028539742 Eh    ::
         :: -> dispersion             -0.291413779923 Eh    ::
         :: repulsion energy           4.343271826961 Eh    ::
         :: add. restraining           0.000000000000 Eh    ::
         :: total charge               0.000000000000 e     ::
         :::::::::::::::::::::::::::::::::::::::::::::::::::::

      ----------------------------------------------------------- 
     |                   =====================                   |
     |                        A N C O P T                        |
     |                   =====================                   |
     |               Approximate Normal Coordinate               |
     |                Rational Function Optimizer                |
      ----------------------------------------------------------- 
      ----------------------------------------------------------- 
     |                   =====================                   |
     |                        A N C O P T                        |
     |                   =====================                   |
     |               Approximate Normal Coordinate               |
     |                Rational Function Optimizer                |
      ----------------------------------------------------------- 

          ...................................................
          :                      SETUP                      :
          :.................................................:
          :   optimization level            normal          :
          :   max. optcycles                   396          :
          :   ANC micro-cycles                  20          :
          :   degrees of freedom               390          :
          :.................................................:
          :   RF solver                   davidson          :
          :   write xtbopt.log                true          :
          :   linear?                        false          :
          :   energy convergence         0.5000000E-05 Eh   :
          :   grad. convergence          0.1000000E-02 Eh/α :
          :   maxmium RF displ.          1.0000000          :
          :   Hlow (freq-cutoff)         0.1000000E-01      :
          :   Hmax (freq-cutoff)         5.0000000          :
          :   S6 in model hess.         20.0000000          :
          ...................................................

generating ANC from exact Hessian ...
Using Lindh-Hessian (1995)
 Shifting diagonal of input Hessian by   9.886864899457318E-003
 Lowest  eigenvalues of input Hessian
    0.000000    0.000000    0.000000    0.000000    0.000000    0.000000
    0.010000    0.010138    0.010208    0.010395    0.010481    0.011230
    0.011296    0.011513    0.011620    0.011846    0.012601    0.012954
 Highest eigenvalues
    2.067739    2.080828    2.089577    2.115900    2.120081    2.135853
 

........................................................................
.............................. CYCLE    1 ..............................
........................................................................

 iter      E             dE          RMSdq      gap      omega  full diag
   1   -242.8066871 -0.242807E+03  0.962E-05    0.34       0.0  T
   2   -242.8066871 -0.468106E-10  0.754E-05    0.34     115.4  T
   3   -242.8066871 -0.535664E-09  0.386E-05    0.34     225.7  T
     SCC iter.                  ...        0 min,  0.201 sec
     gradient                   ...        0 min,  0.183 sec
 * total energy  :  -238.4710264 Eh     change       -0.3650968E-08 Eh
   gradient norm :     0.0434581 Eh/α   predicted     0.0000000E+00 (-100.00%)
   displ. norm   :     0.5252256 α      lambda       -0.1614358E-01
   maximum displ.:     0.3148604 α      in ANC's #45, #47, #49, ...

........................................................................
.............................. CYCLE    2 ..............................
........................................................................

 iter      E             dE          RMSdq      gap      omega  full diag
   1   -242.9510256 -0.242951E+03  0.132E-01    0.34       0.0  T
   2   -242.9510353 -0.974501E-05  0.784E-02    0.34       1.0  T
   3   -242.9508327  0.202588E-03  0.348E-02    0.34       1.0  T
   4   -242.9509250 -0.923232E-04  0.224E-02    0.34       1.0  T
   5   -242.9508336  0.914851E-04  0.287E-02    0.34       1.0  T
   6   -242.9510432 -0.209653E-03  0.521E-03    0.34       1.7  T
   7   -242.9510499 -0.670155E-05  0.119E-03    0.34       7.3  T
   8   -242.9510500 -0.137610E-06  0.516E-04    0.34      16.9  T
   9   -242.9510500 -0.337508E-09  0.222E-04    0.34      39.3  T
     SCC iter.                  ...        0 min,  0.582 sec
     gradient                   ...        0 min,  0.198 sec
 * total energy  :  -238.4831243 Eh     change       -0.1209793E-01 Eh
   gradient norm :     0.0203625 Eh/α   predicted    -0.1029858E-01 ( -14.87%)
   displ. norm   :     0.5217614 α      lambda       -0.7931359E-02
   maximum displ.:     0.3125727 α      in ANC's #45, #47, #49, ...

........................................................................
.............................. CYCLE    3 ..............................
........................................................................

 iter      E             dE          RMSdq      gap      omega  full diag
   1   -243.0756404 -0.243076E+03  0.943E-02    0.33       0.0  T
   2   -243.0756373  0.311025E-05  0.584E-02    0.33       1.0  T
   3   -243.0753093  0.328005E-03  0.434E-02    0.33       1.0  T
   4   -243.0756510 -0.341686E-03  0.690E-03    0.33       1.3  T
   5   -243.0756583 -0.726396E-05  0.342E-03    0.33       2.5  T
   6   -243.0756602 -0.191225E-05  0.150E-03    0.33       5.8  T
   7   -243.0756578  0.241969E-05  0.328E-03    0.33       2.7  T
   8   -243.0756605 -0.277963E-05  0.618E-04    0.33      14.1  T
   9   -243.0756606 -0.499378E-07  0.176E-04    0.33      49.4  T
  10   -243.0756606 -0.453096E-08  0.540E-05    0.33     161.1  T
     SCC iter.                  ...        0 min,  0.653 sec
     gradient                   ...        0 min,  0.189 sec
 * total energy  :  -238.4882231 Eh     change       -0.5098778E-02 Eh
   gradient norm :     0.0077499 Eh/α   predicted    -0.5045276E-02 (  -1.05%)
   displ. norm   :     0.2699856 α      lambda       -0.1334508E-02
   maximum displ.:     0.1498283 α      in ANC's #45, #47, #31, ...

........................................................................
.............................. CYCLE    4 ..............................
........................................................................

 iter      E             dE          RMSdq      gap      omega  full diag
   1   -243.1169823 -0.243117E+03  0.559E-02    0.33       0.0  T
   2   -243.1169839 -0.159393E-05  0.330E-02    0.33       1.0  T
   3   -243.1169125  0.714334E-04  0.178E-02    0.33       1.0  T
   4   -243.1169837 -0.712485E-04  0.577E-03    0.33       1.5  T
   5   -243.1169880 -0.431078E-05  0.220E-03    0.33       4.0  T
   6   -243.1169887 -0.661029E-06  0.705E-04    0.33      12.3  T
   7   -243.1169882  0.491729E-06  0.146E-03    0.33       6.0  T
   8   -243.1169887 -0.517231E-06  0.450E-04    0.33      19.4  T
     SCC iter.                  ...        0 min,  0.500 sec
     gradient                   ...        0 min,  0.189 sec
 * total energy  :  -238.4889788 Eh     change       -0.7557619E-03 Eh
   gradient norm :     0.0032393 Eh/α   predicted    -0.7158936E-03 (  -5.28%)
   displ. norm   :     0.0916227 α      lambda       -0.1258678E-03
   maximum displ.:     0.0477219 α      in ANC's #9, #5, #22, ...

........................................................................
.............................. CYCLE    5 ..............................
........................................................................

 iter      E             dE          RMSdq      gap      omega  full diag
   1   -243.1219302 -0.243122E+03  0.231E-02    0.33       0.0  T
   2   -243.1219304 -0.267305E-06  0.134E-02    0.33       1.0  T
   3   -243.1219251  0.535177E-05  0.507E-03    0.33       1.7  T
   4   -243.1219295 -0.444640E-05  0.237E-03    0.33       3.7  T
   5   -243.1219230  0.653226E-05  0.538E-03    0.33       1.6  T
   6   -243.1219306 -0.764478E-05  0.815E-04    0.33      10.7  T
   7   -243.1219308 -0.145837E-06  0.169E-04    0.33      51.6  T
   8   -243.1219308 -0.201612E-08  0.809E-05    0.33     107.6  T
     SCC iter.                  ...        0 min,  0.536 sec
     gradient                   ...        0 min,  0.195 sec
 * total energy  :  -238.4890649 Eh     change       -0.8611061E-04 Eh
   gradient norm :     0.0016566 Eh/α   predicted    -0.6346951E-04 ( -26.29%)
   displ. norm   :     0.1708027 α      lambda       -0.7948605E-04
   maximum displ.:     0.1060415 α      in ANC's #9, #5, #19, ...

........................................................................
.............................. CYCLE    6 ..............................
........................................................................

 iter      E             dE          RMSdq      gap      omega  full diag
   1   -243.1198889 -0.243120E+03  0.367E-02    0.32       0.0  T
   2   -243.1198892 -0.270358E-06  0.215E-02    0.32       1.0  T
   3   -243.1198869  0.225321E-05  0.325E-03    0.32       2.7  T
   4   -243.1198875 -0.529903E-06  0.276E-03    0.32       3.2  T
   5   -243.1198877 -0.244136E-06  0.255E-03    0.32       3.4  T
   6   -243.1198894 -0.165969E-05  0.549E-04    0.32      15.8  T
   7   -243.1198894 -0.513595E-07  0.180E-04    0.32      48.2  T
   8   -243.1198894 -0.199037E-08  0.896E-05    0.32      97.2  T
     SCC iter.                  ...        0 min,  0.541 sec
     gradient                   ...        0 min,  0.191 sec
 * total energy  :  -238.4891319 Eh     change       -0.6700874E-04 Eh
   gradient norm :     0.0019028 Eh/α   predicted    -0.4026081E-04 ( -39.92%)
   displ. norm   :     0.0979001 α      lambda       -0.3542774E-04
   maximum displ.:     0.0585278 α      in ANC's #9, #5, #4, ...

........................................................................
.............................. CYCLE    7 ..............................
........................................................................

 iter      E             dE          RMSdq      gap      omega  full diag
   1   -243.1176354 -0.243118E+03  0.192E-02    0.32       0.0  T
   2   -243.1176355 -0.125626E-06  0.113E-02    0.32       1.0  T
   3   -243.1176346  0.876596E-06  0.191E-03    0.32       4.6  T
   4   -243.1176353 -0.738094E-06  0.103E-03    0.32       8.5  T
   5   -243.1176349  0.441886E-06  0.159E-03    0.32       5.5  T
   6   -243.1176354 -0.519524E-06  0.761E-04    0.32      11.4  T
   7   -243.1176356 -0.146470E-06  0.106E-04    0.32      82.0  T
     SCC iter.                  ...        0 min,  0.467 sec
     gradient                   ...        0 min,  0.193 sec
 * total energy  :  -238.4891747 Eh     change       -0.4279093E-04 Eh
   gradient norm :     0.0014940 Eh/α   predicted    -0.1778996E-04 ( -58.43%)
   displ. norm   :     0.1786609 α      lambda       -0.4859406E-04
   maximum displ.:     0.1007875 α      in ANC's #9, #5, #4, ...

........................................................................
.............................. CYCLE    8 ..............................
........................................................................

 iter      E             dE          RMSdq      gap      omega  full diag
   1   -243.1167647 -0.243117E+03  0.330E-02    0.33       0.0  T
   2   -243.1167650 -0.242358E-06  0.194E-02    0.33       1.0  T
   3   -243.1167638  0.118056E-05  0.249E-03    0.33       3.5  T
   4   -243.1167650 -0.119432E-05  0.968E-04    0.33       9.0  T
   5   -243.1167647  0.291757E-06  0.129E-03    0.33       6.7  T
   6   -243.1167650 -0.264301E-06  0.824E-04    0.33      10.6  T
   7   -243.1167651 -0.169928E-06  0.167E-04    0.33      52.2  T
     SCC iter.                  ...        0 min,  0.471 sec
     gradient                   ...        0 min,  0.194 sec
 * total energy  :  -238.4892279 Eh     change       -0.5318306E-04 Eh
   gradient norm :     0.0012425 Eh/α   predicted    -0.2464271E-04 ( -53.66%)
   displ. norm   :     0.1937996 α      lambda       -0.3388831E-04
   maximum displ.:     0.1121396 α      in ANC's #5, #9, #4, ...

........................................................................
.............................. CYCLE    9 ..............................
........................................................................

 iter      E             dE          RMSdq      gap      omega  full diag
   1   -243.1174034 -0.243117E+03  0.325E-02    0.33       0.0  T
   2   -243.1174038 -0.323127E-06  0.189E-02    0.33       1.0  T
   3   -243.1173980  0.576059E-05  0.572E-03    0.33       1.5  T
   4   -243.1174035 -0.547370E-05  0.197E-03    0.33       4.4  T
   5   -243.1174025  0.931537E-06  0.250E-03    0.33       3.5  T
   6   -243.1174032 -0.661745E-06  0.192E-03    0.33       4.5  T
   7   -243.1174042 -0.968116E-06  0.173E-04    0.33      50.4  T
   8   -243.1174042 -0.151309E-08  0.974E-05    0.33      89.4  T
     SCC iter.                  ...        0 min,  0.536 sec
     gradient                   ...        0 min,  0.188 sec
 * total energy  :  -238.4892650 Eh     change       -0.3708449E-04 Eh
   gradient norm :     0.0013829 Eh/α   predicted    -0.1722734E-04 ( -53.55%)
   displ. norm   :     0.1708539 α      lambda       -0.2408174E-04
   maximum displ.:     0.1031415 α      in ANC's #5, #9, #4, ...

........................................................................
.............................. CYCLE   10 ..............................
........................................................................

 iter      E             dE          RMSdq      gap      omega  full diag
   1   -243.1181088 -0.243118E+03  0.273E-02    0.33       0.0  T
   2   -243.1181089 -0.945907E-07  0.161E-02    0.33       1.0  T
   3   -243.1181032  0.565616E-05  0.554E-03    0.33       1.6  T
   4   -243.1181087 -0.543938E-05  0.162E-03    0.33       5.4  T
   5   -243.1181058  0.285710E-05  0.356E-03    0.33       2.4  T
   6   -243.1181090 -0.321908E-05  0.895E-04    0.33       9.7  T
   7   -243.1181092 -0.184177E-06  0.163E-04    0.33      53.5  T
   8   -243.1181092 -0.680359E-09  0.920E-05    0.33      94.6  T
     SCC iter.                  ...        0 min,  0.556 sec
     gradient                   ...        0 min,  0.188 sec
 * total energy  :  -238.4892920 Eh     change       -0.2695323E-04 Eh
   gradient norm :     0.0008670 Eh/α   predicted    -0.1219958E-04 ( -54.74%)
   displ. norm   :     0.1359862 α      lambda       -0.1757713E-04
   maximum displ.:     0.0855780 α      in ANC's #5, #4, #9, ...

........................................................................
.............................. CYCLE   11 ..............................
........................................................................

 iter      E             dE          RMSdq      gap      omega  full diag
   1   -243.1194659 -0.243119E+03  0.204E-02    0.33       0.0  T
   2   -243.1194660 -0.908869E-07  0.119E-02    0.33       1.0  T
   3   -243.1194611  0.492874E-05  0.537E-03    0.33       1.6  T
   4   -243.1194660 -0.495824E-05  0.130E-03    0.33       6.7  T
   5   -243.1194662 -0.175447E-06  0.796E-04    0.33      10.9  T
   6   -243.1194657  0.488801E-06  0.152E-03    0.33       5.7  T
   7   -243.1194663 -0.620415E-06  0.156E-04    0.33      55.9  T
     SCC iter.                  ...        0 min,  0.472 sec
     gradient                   ...        0 min,  0.209 sec
 * total energy  :  -238.4893118 Eh     change       -0.1984912E-04 Eh
   gradient norm :     0.0005144 Eh/α   predicted    -0.8861316E-05 ( -55.36%)
   displ. norm   :     0.1051447 α      lambda       -0.1201736E-04
   maximum displ.:     0.0678858 α      in ANC's #5, #4, #19, ...

........................................................................
.............................. CYCLE   12 ..............................
........................................................................

 iter      E             dE          RMSdq      gap      omega  full diag
   1   -243.1196513 -0.243120E+03  0.164E-02    0.33       0.0  T
   2   -243.1196514 -0.601652E-07  0.965E-03    0.33       1.0  T
   3   -243.1196494  0.195768E-05  0.341E-03    0.33       2.6  T
   4   -243.1196512 -0.180221E-05  0.113E-03    0.33       7.7  T
   5   -243.1196502  0.103056E-05  0.221E-03    0.33       3.9  T
   6   -243.1196515 -0.125545E-05  0.528E-04    0.33      16.5  T
   7   -243.1196515 -0.642730E-07  0.915E-05    0.33      95.1  T
   8   -243.1196515 -0.329464E-09  0.505E-05    0.33     172.3  T
     SCC iter.                  ...        0 min,  0.529 sec
     gradient                   ...        0 min,  0.179 sec
 * total energy  :  -238.4893253 Eh     change       -0.1346198E-04 Eh
   gradient norm :     0.0004972 Eh/α   predicted    -0.6038740E-05 ( -55.14%)
   displ. norm   :     0.0800796 α      lambda       -0.7681675E-05
   maximum displ.:     0.0511208 α      in ANC's #5, #4, #19, ...

........................................................................
.............................. CYCLE   13 ..............................
........................................................................

 iter      E             dE          RMSdq      gap      omega  full diag
   1   -243.1197481 -0.243120E+03  0.128E-02    0.33       0.0  T
   2   -243.1197481 -0.462241E-07  0.752E-03    0.33       1.2  T
   3   -243.1197477  0.438472E-06  0.162E-03    0.33       5.4  T
   4   -243.1197475  0.197102E-06  0.160E-03    0.33       5.5  T
   5   -243.1197478 -0.306280E-06  0.118E-03    0.33       7.4  T
   6   -243.1197482 -0.356755E-06  0.246E-04    0.33      35.4  T
   7   -243.1197482 -0.118332E-07  0.542E-05    0.33     160.6  T
     SCC iter.                  ...        0 min,  0.464 sec
     gradient                   ...        0 min,  0.194 sec
 * total energy  :  -238.4893341 Eh     change       -0.8819909E-05 Eh
   gradient norm :     0.0004808 Eh/α   predicted    -0.3853608E-05 ( -56.31%)
   displ. norm   :     0.0737495 α      lambda       -0.6199461E-05
   maximum displ.:     0.0461514 α      in ANC's #5, #4, #17, ...

........................................................................
.............................. CYCLE   14 ..............................
........................................................................

 iter      E             dE          RMSdq      gap      omega  full diag
   1   -243.1193946 -0.243119E+03  0.117E-02    0.33       0.0  T
   2   -243.1193946 -0.249030E-07  0.686E-03    0.33       1.3  T
   3   -243.1193946  0.505836E-07  0.549E-04    0.33      15.9  T
   4   -243.1193946 -0.505387E-07  0.258E-04    0.33      33.7  T
     SCC iter.                  ...        0 min,  0.275 sec
     gradient                   ...        0 min,  0.189 sec
 * total energy  :  -238.4893415 Eh     change       -0.7421035E-05 Eh
   gradient norm :     0.0004331 Eh/α   predicted    -0.3107772E-05 ( -58.12%)
   displ. norm   :     0.0850754 α      lambda       -0.6637619E-05
   maximum displ.:     0.0525915 α      in ANC's #5, #4, #11, ...

........................................................................
.............................. CYCLE   15 ..............................
........................................................................

 iter      E             dE          RMSdq      gap      omega  full diag
   1   -243.1190887 -0.243119E+03  0.127E-02    0.33       0.0  T
   2   -243.1190835  0.518842E-05  0.868E-03    0.33       1.0  T
   3   -243.1187144  0.369056E-03  0.373E-02    0.33       1.0  T
   4   -243.1190888 -0.374337E-03  0.804E-04    0.33      10.8  T
   5   -243.1190889 -0.920910E-07  0.251E-04    0.33      34.7  T
   6   -243.1190889 -0.513060E-08  0.156E-04    0.33      55.7  T
     SCC iter.                  ...        0 min,  0.414 sec
     gradient                   ...        0 min,  0.202 sec
 * total energy  :  -238.4893496 Eh     change       -0.8090434E-05 Eh
   gradient norm :     0.0003607 Eh/α   predicted    -0.3330328E-05 ( -58.84%)
   displ. norm   :     0.1076395 α      lambda       -0.7695105E-05
   maximum displ.:     0.0662250 α      in ANC's #5, #4, #11, ...

........................................................................
.............................. CYCLE   16 ..............................
........................................................................

 iter      E             dE          RMSdq      gap      omega  full diag
   1   -243.1188630 -0.243119E+03  0.154E-02    0.33       0.0  T
   2   -243.1188630 -0.500272E-07  0.904E-03    0.33       1.0  T
   3   -243.1188622  0.871474E-06  0.204E-03    0.33       4.3  T
   4   -243.1188597  0.243366E-05  0.352E-03    0.33       2.5  T
   5   -243.1188630 -0.330620E-05  0.447E-04    0.33      19.5  T
   6   -243.1188631 -0.427694E-07  0.114E-04    0.33      76.1  T
   7   -243.1188631 -0.141688E-08  0.606E-05    0.33     143.7  T
     SCC iter.                  ...        0 min,  0.489 sec
     gradient                   ...        0 min,  0.175 sec
 * total energy  :  -238.4893586 Eh     change       -0.9010894E-05 Eh
   gradient norm :     0.0003753 Eh/α   predicted    -0.3868542E-05 ( -57.07%)
   displ. norm   :     0.1212954 α      lambda       -0.7238298E-05
   maximum displ.:     0.0750002 α      in ANC's #5, #4, #7, ...

........................................................................
.............................. CYCLE   17 ..............................
........................................................................

 iter      E             dE          RMSdq      gap      omega  full diag
   1   -243.1188048 -0.243119E+03  0.166E-02    0.33       0.0  T
   2   -243.1188049 -0.652279E-07  0.973E-03    0.33       1.0  T
   3   -243.1188046  0.324217E-06  0.150E-03    0.33       5.8  T
   4   -243.1188046 -0.428937E-07  0.112E-03    0.33       7.8  T
   5   -243.1188043  0.295127E-06  0.152E-03    0.33       5.7  T
   6   -243.1188050 -0.620716E-06  0.119E-04    0.33      73.0  T
   7   -243.1188050 -0.160802E-08  0.534E-05    0.33     162.9  T
     SCC iter.                  ...        0 min,  0.433 sec
     gradient                   ...        0 min,  0.176 sec
 * total energy  :  -238.4893666 Eh     change       -0.7970504E-05 Eh
   gradient norm :     0.0004081 Eh/α   predicted    -0.3644525E-05 ( -54.27%)
   displ. norm   :     0.1044098 α      lambda       -0.4850585E-05
   maximum displ.:     0.0650986 α      in ANC's #5, #4, #7, ...

........................................................................
.............................. CYCLE   18 ..............................
........................................................................

 iter      E             dE          RMSdq      gap      omega  full diag
   1   -243.1190314 -0.243119E+03  0.139E-02    0.33       0.0  T
   2   -243.1190315 -0.403808E-07  0.815E-03    0.33       1.1  T
   3   -243.1190310  0.428840E-06  0.138E-03    0.33       6.3  T
   4   -243.1190299  0.112943E-05  0.243E-03    0.33       3.6  T
   5   -243.1190313 -0.144714E-05  0.743E-04    0.33      11.7  T
   6   -243.1190315 -0.135136E-06  0.182E-04    0.33      47.9  T
   7   -243.1190315 -0.485568E-08  0.546E-05    0.33     159.5  T
     SCC iter.                  ...        0 min,  0.474 sec
     gradient                   ...        0 min,  0.178 sec
 * total energy  :  -238.4893716 Eh     change       -0.5035686E-05 Eh
   gradient norm :     0.0003115 Eh/α   predicted    -0.2441819E-05 ( -51.51%)
   displ. norm   :     0.0678982 α      lambda       -0.2502255E-05
   maximum displ.:     0.0424722 α      in ANC's #5, #4, #7, ...

........................................................................
.............................. CYCLE   19 ..............................
........................................................................

 iter      E             dE          RMSdq      gap      omega  full diag
   1   -243.1193209 -0.243119E+03  0.914E-03    0.33       0.0  T
   2   -243.1193209 -0.764663E-08  0.537E-03    0.33       1.6  T
   3   -243.1193205  0.367592E-06  0.131E-03    0.33       6.7  T
   4   -243.1193207 -0.148981E-06  0.940E-04    0.33       9.3  T
   5   -243.1193209 -0.187685E-06  0.439E-04    0.33      19.8  T
     SCC iter.                  ...        0 min,  0.326 sec
     gradient                   ...        0 min,  0.201 sec
 * total energy  :  -238.4893740 Eh     change       -0.2412520E-05 Eh
   gradient norm :     0.0002107 Eh/α   predicted    -0.1254031E-05 ( -48.02%)
   displ. norm   :     0.0380752 α      lambda       -0.1170698E-05
   maximum displ.:     0.0231078 α      in ANC's #5, #4, #7, ...

   *** GEOMETRY OPTIMIZATION CONVERGED AFTER 19 ITERATIONS ***

------------------------------------------------------------------------
 total energy gain   :        -0.0183477 Eh      -11.5133 kcal/mol
 total RMSD          :         0.1785837 a0        0.0945 Å
 total power (kW/mol):        -2.5353594 (step)   -3.4907 (real)
------------------------------------------------------------------------

 ANCopt (total)                0 d,  0 h,  0 min, 13.800 sec
 optimizer setup                ...        0 min,  0.001 sec (  0.007%)
 model hessian                  ...        0 min,  0.119 sec (  0.862%)
 ANC generation                 ...        0 min,  0.033 sec (  0.239%)
 coordinate transformation      ...        0 min,  0.007 sec (  0.051%)
 single point calculation       ...        0 min, 13.598 sec ( 98.536%)
 optimization log               ...        0 min,  0.029 sec (  0.210%)
 hessian update                 ...        0 min,  0.004 sec (  0.029%)
 rational function              ...        0 min,  0.005 sec (  0.036%)

================
 final structure:
================
132
 xtb: 6.7.1pre (5071a88)
C            1.21940295414542        7.73751207262527       -0.21017911393493
C           -2.93235520875359        6.83650160534214        0.35894641103779
C           -0.58118667427683        6.13930455391985        0.00435675195809
C           -7.06874690860270        5.88325579291789        0.85135950485987
C           -4.73035265518127        5.22686831850982        0.37418974988899
C           -2.41614586165789        4.49297640055337        0.09251744625859
C            4.08890200821488        8.32947039779567       -0.36931667476024
C           -0.11799242417988        7.45351854327673       -0.10493533573539
C            2.18701905593778        6.73059339625720       -0.19353970935312
C           -4.26245090063750        6.53968824705180        0.48749632590754
C           -1.97988085493605        5.83413956818356        0.15016966661617
C            0.36295160884288        5.09101943402601       -0.03915862011164
C           -8.87333596302041        4.47552340311150        0.20819286420986
C           -6.58699913538707        3.65141746240512        0.01013030863695
C           -4.25418085601915        2.84994422647504       -0.01757551850494
C           -6.05119475075957        1.22528463976873       -0.30194052534661
C           -7.82151283303174       -0.44314470960877       -0.46690344532735
C           -8.42147666483187        5.65650007385238        0.77425949927219
C           -6.13801159862916        4.92353671313042        0.43061988800813
C           -3.80205733862845        4.19315616578166        0.14610471100028
C           -1.46295121615704        3.44243784039670        0.00196919273586
C           -7.97758472657105        3.48721202353490       -0.15631576610465
C           -5.63594821348679        2.57072657154435       -0.15141151852040
C           -3.29383139249249        1.80720042800191       -0.05910582359076
C           -7.41785478296909        0.85529465802465       -0.51268148038657
C           -5.10478868287351        0.17067059611137       -0.18682415559347
C           -6.91003091492496       -1.50159544743624       -0.24595103653900
C            5.45386111710595        8.59607400406446       -0.39902046736305
C            3.60058940949250        7.03061402093143       -0.25421142170127
C            5.92571982478659        6.24149738122545       -0.19681702626159
C            1.74987177956720        5.38814922578227       -0.10854578633242
C            4.08352690921602        4.62152524982895       -0.09275915525117
C            6.41689553659541        3.86746645622489        0.01157681990061
C           -0.07774205408577        3.73985657836888       -0.01516644216567
C            2.25613919950729        2.98918339909850       -0.02336632749012
C            4.58435541283694        2.22849641191010        0.05933752825151
C            6.91003320199391        1.50159104518011        0.24595099609456
C            6.36389566199699        7.57627161844189       -0.30814349866810
C            4.52806285492851        5.96250218511656       -0.18080198348933
C            6.83802301973335        5.18952166280664       -0.09274323105491
C            2.69326716674620        4.32741634440128       -0.07923848232710
C            5.01931823380543        3.57030272254163       -0.00843597890129
C            7.33257256398943        2.81322796342709        0.15400766752739
C           -1.90180589719505        2.10269918739766       -0.02365894375450
C            7.41786081017210       -0.85530310483631        0.51264097819714
C            0.11799234084348       -7.45351727535648        0.10497566608540
C            0.43430660923130        1.34578967124837       -0.00525784870369
C           -6.83802249720748       -5.18952032294300        0.09279342615356
C            2.76922282391431        0.58977386056494        0.05135355833091
C           -4.52806271530130       -5.96249965640347        0.18085916874302
C            5.10479051639225       -0.17067394845619        0.18681179224715
C           -2.18701910707637       -6.73059121325439        0.19359385209440
C           -3.71848260694843        0.46333502156764       -0.09915538287480
C            5.63594887033554       -2.57072878934020        0.15137384151044
C           -1.38261651786980       -0.29441947925620       -0.01898146341515
C            7.97758653623311       -3.48721009999365        0.15623523855800
C            0.95244727853981       -1.05113864740232        0.02058350604467
C           -6.36389465606573       -7.57626628169270        0.30822924146214
C            3.29383122855392       -1.80720131471787        0.05909582969248
C           -4.08890182742675       -8.32946456424830        0.36940687253154
C           -5.52410640528899       -1.17919218060452       -0.16492862651414
C            3.80205429601499       -4.19315617571074       -0.14612593252633
C           -3.19792682626264       -1.93326983143293       -0.02828754104606
C            6.13800472832991       -4.92353499989614       -0.43067379489964
C           -0.86664797871475       -2.69158559583114        0.01846056302097
C            8.42146434169658       -5.65649713995874       -0.77434440043813
C            1.46295013491767       -3.44243782346099       -0.00196487736869
C           -7.33257129264869       -2.81323069807548       -0.15399200687238
C            1.97987796577988       -5.83413973927946       -0.15016651955599
C           -5.01931799878077       -3.57030331632272        0.00846571996552
C            4.26244376331173       -6.53968756299637       -0.48752456651486
C           -2.69326754705385       -4.32741571907398        0.07927202628225
C           -0.36295258093570       -5.09101907564224        0.03918424169601
C            0.86664744576464        2.69158566583836       -0.01844581138933
C           -6.41689481522514       -3.86746719149092       -0.01154466315086
C            2.93234995867873       -6.83650138885540       -0.35895623221420
C            3.19792688563606        1.93326900973852        0.02830052234860
C           -4.08352706624780       -4.62152449866546        0.09279931959300
C            5.52410792898030        1.17918908109375        0.16492952911852
C           -1.74987220656313       -5.38814810387422        0.10858444388899
C            7.82151710745980        0.44313752714731        0.46688186407969
C            0.58118543649963       -6.13930439638839       -0.00433377539059
C           -0.95244757129911        1.05113854685504       -0.02057860932093
C            1.38261640633665        0.29441926648594        0.01898762035869
C           -5.92571912029165       -6.24149398415448        0.19688145550074
C            3.71848333889966       -0.46333648197993        0.09914966551720
C           -3.60058940732074       -7.03061043144388        0.25427906597003
C            6.05119799586173       -1.22528905012229        0.30190946686944
C           -1.21940214573166       -7.73750947507428        0.21023535073965
C           -2.76922257167881       -0.58977486517220       -0.05134876905005
C            6.58699853198182       -3.65141686662691       -0.01018933141320
C           -0.43430688605780       -1.34578978289603        0.00526671659137
C            8.87333182818282       -4.47552131900874       -0.20828631300161
C            1.90180537191949       -2.10269937627543        0.02365846478766
C           -5.45386025694373       -8.59606669278118        0.39911993122297
C            4.25417992943878       -2.84994509757475        0.01755311992255
C           -4.58435489923357       -2.22849818894287       -0.05932233838500
C            4.73034666019890       -5.22686757989496       -0.37422521802766
C           -2.25613948480314       -2.98918359195115        0.02338671016107
C            7.06873338609943       -5.88325237502054       -0.85142794663797
C            0.07774115462812       -3.73985654932701        0.01518133799485
C            2.41614364896346       -4.49297652686362       -0.09252078111082
H            1.51154124586305        8.77125964363393       -0.29658827977937
H           -2.63041011210370        7.86771670805126        0.43957759248360
H           -6.72582993267093        6.82037248683698        1.25835313124015
H            3.41266350887203        9.16560396031414       -0.43954614561257
H           -0.81358457530457        8.27648466119618       -0.12332504045862
H           -4.95315160828906        7.35199775451426        0.64311955862006
H           -9.93149421012043        4.30898939042312        0.05741253212271
H           -8.86513942885433       -0.68602434610296       -0.62151735624061
H           -9.12304608737768        6.40210176512255        1.11759526976901
H            5.78994262507796        9.61885866514960       -0.48974142776278
H            7.42514630961862        7.77664086198626       -0.32134711613594
H            7.89640165770343        5.40830519113580       -0.08949260358377
H            8.38840641908592        3.03804365240574        0.20321599640046
H            0.81358488416550       -8.27648313151985        0.12336712363995
H           -7.89640122461257       -5.40830339706163        0.08954704021189
H           -7.42514539231351       -7.77663475118743        0.32143990526409
H           -3.41266373583490       -9.16559748405712        0.43964699415366
H            9.12302958182093       -6.40209189997121       -1.11770900071967
H           -8.38840519874977       -3.03804646156779       -0.20319937440053
H            4.95314253527998       -7.35199641865797       -0.64316162966886
H            2.63040341077182       -7.86771612429743       -0.43958551625704
H            8.86514508192733        0.68601502586456        0.62148674141868
H           -1.51153963028384       -8.77125611258060        0.29665823222109
H            9.93149232433792       -4.30898848935696       -0.05752159080335
H           -5.78994192763347       -9.61885017763075        0.48985888288262
H            6.72580972577258       -6.82036336052778       -1.25843250259152
H           -9.63791266436038        1.73014429157898       -0.14176198395686
H            9.63789583844826       -1.73014917187562        0.14167341009356
P            8.63792661914492       -2.07141054969550        1.06196592757453
P           -8.63791632035322        2.07139710560842       -1.06202599117956
 
 Bond Distances (Angstroems)
 ---------------------------
C1-C8=1.3713         C1-C9=1.3966         C1-H103=1.0777       C2-C10=1.3689        C2-C11=1.3984        C2-H104=1.0775       
C3-C8=1.3977         C3-C11=1.4390        C3-C12=1.4115        C4-C18=1.3738        C4-C19=1.4016        C4-H105=1.0777       
C5-C10=1.3983        C5-C19=1.4411        C5-C20=1.4079        C6-C11=1.4115        C6-C20=1.4190        C6-C21=1.4214        
C7-C28=1.3911        C7-C29=1.3924        C7-H106=1.0777       C8-C1=1.3713         C8-C3=1.3977         C8-H107=1.0777       
C9-C1=1.3966         C9-C29=1.4463        C9-C31=1.4144        C10-C2=1.3689        C10-C5=1.3983        C10-H108=1.0776      
C11-C2=1.3984        C11-C3=1.4390        C11-C6=1.4115        C12-C3=1.4115        C12-C31=1.4201       C12-C34=1.4214       
C13-C18=1.3854       C13-C22=1.3827       C13-H109=1.0817      C14-C19=1.4130       C14-C22=1.4101       C14-C23=1.4486       
C15-C20=1.4267       C15-C23=1.4160       C15-C24=1.4182       C16-C23=1.4161       C16-C25=1.4315       C16-C26=1.4217       
C17-C25=1.3605       C17-C27=1.4142       C17-H110=1.0826      C18-C4=1.3738        C18-C13=1.3854       C18-H111=1.0798      
C19-C4=1.4016        C19-C5=1.4411        C19-C14=1.4130       C20-C5=1.4079        C20-C6=1.4190        C20-C15=1.4267       
C21-C6=1.4214        C21-C34=1.4169       C21-C44=1.4100       C22-C13=1.3827       C22-C14=1.4101       C22-P132=1.8058      
C23-C14=1.4486       C23-C15=1.4160       C23-C16=1.4161       C24-C15=1.4182       C24-C44=1.4235       C24-C53=1.4099       
C25-C16=1.4315       C25-C17=1.3605       C25-P132=1.8081      C26-C16=1.4217       C26-C53=1.4196       C26-C61=1.4137       
C27-C17=1.4142       C27-C61=1.4252       C27-C68=1.3811       C28-C7=1.3911        C28-C38=1.3698       C28-H112=1.0804      
C29-C7=1.3924        C29-C9=1.4463        C29-C39=1.4165       C30-C38=1.4093       C30-C39=1.4253       C30-C40=1.3963       
C31-C9=1.4144        C31-C12=1.4201       C31-C41=1.4199       C32-C39=1.4155       C32-C41=1.4211       C32-C42=1.4099       
C33-C40=1.3914       C33-C42=1.4290       C33-C43=1.4036       C34-C12=1.4214       C34-C21=1.4169       C34-C74=1.4109       
C35-C41=1.4089       C35-C74=1.4210       C35-C77=1.4158       C36-C42=1.4122       C36-C77=1.4179       C36-C79=1.4126       
C37-C43=1.3811       C37-C79=1.4252       C37-C81=1.4142       C38-C28=1.3698       C38-C30=1.4093       C38-H113=1.0801      
C39-C29=1.4165       C39-C30=1.4253       C39-C32=1.4155       C40-C30=1.3963       C40-C33=1.3914       C40-H114=1.0808      
C41-C31=1.4199       C41-C32=1.4211       C41-C35=1.4089       C42-C32=1.4099       C42-C33=1.4290       C42-C36=1.4122       
C43-C33=1.4036       C43-C37=1.3811       C43-H115=1.0806      C44-C21=1.4100       C44-C24=1.4235       C44-C83=1.4167       
C45-C81=1.3605       C45-C88=1.4315       C45-P131=1.8081      C46-C82=1.3977       C46-C89=1.3713       C46-H116=1.0777      
C47-C74=1.4136       C47-C83=1.4178       C47-C84=1.4161       C48-C75=1.3914       C48-C85=1.3963       C48-H117=1.0808      
C49-C77=1.4104       C49-C84=1.4181       C49-C86=1.4186       C50-C78=1.4155       C50-C85=1.4253       C50-C87=1.4165       
C51-C79=1.4137       C51-C86=1.4196       C51-C88=1.4217       C52-C80=1.4144       C52-C87=1.4463       C52-C89=1.3966       
C53-C24=1.4099       C53-C26=1.4196       C53-C90=1.4186       C54-C88=1.4161       C54-C91=1.4486       C54-C96=1.4160       
C55-C83=1.4126       C55-C90=1.4181       C55-C92=1.4161       C56-C91=1.4101       C56-C93=1.3827       C56-P131=1.8058      
C57-C84=1.4126       C57-C92=1.4178       C57-C94=1.4167       C58-C85=1.4093       C58-C95=1.3698       C58-H118=1.0801      
C59-C86=1.4099       C59-C94=1.4235       C59-C96=1.4182       C60-C87=1.3924       C60-C95=1.3911       C60-H119=1.0777      
C61-C26=1.4137       C61-C27=1.4252       C61-C97=1.4126       C62-C96=1.4267       C62-C98=1.4079       C62-C102=1.4190      
C63-C90=1.4104       C63-C97=1.4179       C63-C99=1.4158       C64-C91=1.4130       C64-C98=1.4411       C64-C100=1.4016      
C65-C92=1.4136       C65-C99=1.4210       C65-C101=1.4109      C66-C93=1.3854       C66-C100=1.3738      C66-H120=1.0798      
C67-C94=1.4100       C67-C101=1.4169      C67-C102=1.4214      C68-C27=1.3811       C68-C75=1.4036       C68-H121=1.0806      
C69-C76=1.3984       C69-C82=1.4390       C69-C102=1.4115      C70-C75=1.4290       C70-C78=1.4099       C70-C97=1.4122       
C71-C76=1.3689       C71-C98=1.3983       C71-H122=1.0776      C72-C78=1.4211       C72-C80=1.4199       C72-C99=1.4089       
C73-C80=1.4201       C73-C82=1.4115       C73-C101=1.4214      C74-C34=1.4109       C74-C35=1.4210       C74-C47=1.4136       
C75-C48=1.3914       C75-C68=1.4036       C75-C70=1.4290       C76-C69=1.3984       C76-C71=1.3689       C76-H123=1.0775      
C77-C35=1.4158       C77-C36=1.4179       C77-C49=1.4104       C78-C50=1.4155       C78-C70=1.4099       C78-C72=1.4211       
C79-C36=1.4126       C79-C37=1.4252       C79-C51=1.4137       C80-C52=1.4144       C80-C72=1.4199       C80-C73=1.4201       
C81-C37=1.4142       C81-C45=1.3605       C81-H124=1.0826      C82-C46=1.3977       C82-C69=1.4390       C82-C73=1.4115       
C83-C44=1.4167       C83-C47=1.4178       C83-C55=1.4126       C84-C47=1.4161       C84-C49=1.4181       C84-C57=1.4126       
C85-C48=1.3963       C85-C50=1.4253       C85-C58=1.4093       C86-C49=1.4186       C86-C51=1.4196       C86-C59=1.4099       
C87-C50=1.4165       C87-C52=1.4463       C87-C60=1.3924       C88-C45=1.4315       C88-C51=1.4217       C88-C54=1.4161       
C89-C46=1.3713       C89-C52=1.3966       C89-H125=1.0777      C90-C53=1.4186       C90-C55=1.4181       C90-C63=1.4104       
C91-C54=1.4486       C91-C56=1.4101       C91-C64=1.4130       C92-C55=1.4161       C92-C57=1.4178       C92-C65=1.4136       
C93-C56=1.3827       C93-C66=1.3854       C93-H126=1.0817      C94-C57=1.4167       C94-C59=1.4235       C94-C67=1.4100       
C95-C58=1.3698       C95-C60=1.3911       C95-H127=1.0804      C96-C54=1.4160       C96-C59=1.4182       C96-C62=1.4267       
C97-C61=1.4126       C97-C63=1.4179       C97-C70=1.4122       C98-C62=1.4079       C98-C64=1.4411       C98-C71=1.3983       
C99-C63=1.4158       C99-C65=1.4210       C99-C72=1.4089       C100-C64=1.4016      C100-C66=1.3738      C100-H128=1.0777     
C101-C65=1.4109      C101-C67=1.4169      C101-C73=1.4214      C102-C62=1.4190      C102-C67=1.4214      C102-C69=1.4115      
H103-C1=1.0777       H104-C2=1.0775       H105-C4=1.0777       H106-C7=1.0777       H107-C8=1.0777       H108-C10=1.0776      
H109-C13=1.0817      H110-C17=1.0826      H111-C18=1.0798      H112-C28=1.0804      H113-C38=1.0801      H114-C40=1.0808      
H115-C43=1.0806      H116-C46=1.0777      H117-C48=1.0808      H118-C58=1.0801      H119-C60=1.0777      H120-C66=1.0798      
H121-C68=1.0806      H122-C71=1.0776      H123-C76=1.0775      H124-C81=1.0826      H125-C89=1.0777      H126-C93=1.0817      
H127-C95=1.0804      H128-C100=1.0777     H129-P132=1.4012     H130-P131=1.4012     P131-C45=1.8081      P131-C56=1.8058      
P131-H130=1.4012     P132-C22=1.8058      P132-C25=1.8081      P132-H129=1.4012     
 C  H  Rav=1.0794 sigma=0.0017  Rmin=1.0775  Rmax=1.0826    26
 C  C  Rav=1.4104 sigma=0.0174  Rmin=1.3605  Rmax=1.4486   138
 P  H  Rav=1.4012 sigma=0.0000  Rmin=1.4012  Rmax=1.4012     2
 P  C  Rav=1.8069 sigma=0.0012  Rmin=1.8058  Rmax=1.8081     4
 
 selected bond angles (degree)
 --------------------
C9-C1-C8=121.70                H103-C1-C8=117.98              H103-C1-C9=120.31              C11-C2-C10=121.36              
H104-C2-C10=118.21             H104-C2-C11=120.42             C11-C3-C8=121.97               C12-C3-C8=118.31               
C12-C3-C11=119.72              C19-C4-C18=121.60              H105-C4-C18=118.56             H105-C4-C19=119.83             
C19-C5-C10=121.42              C20-C5-C10=118.80              C20-C5-C19=119.73              C20-C6-C11=120.07              
C21-C6-C11=119.84              C21-C6-C20=120.08              C29-C7-C28=121.65              H106-C7-C28=117.75             
H106-C7-C29=120.60             C3-C8-C1=121.60                H107-C8-C1=118.04              H107-C8-C3=120.36              
C29-C9-C1=121.81               C31-C9-C1=118.09               C31-C9-C29=120.10              C5-C10-C2=121.41               
H108-C10-C2=118.23             H108-C10-C5=120.33             
 
 selected dihedral angles (degree)
 ---------------------------------
C3-C8-C1-C9=359.03            C3-C8-C1-H103=179.69          H107-C8-C1-C9=179.93          H107-C8-C1-H103=  0.59        
C1-C8-C3-C11=178.35           C1-C8-C3-C12=357.98           H107-C8-C3-C11=357.43         H107-C8-C3-C12=177.06         
C29-C9-C1-C8=182.35           C29-C9-C1-H103=  1.68         C31-C9-C1-C8=  2.06           C31-C9-C1-H103=181.39         
C5-C10-C2-C11=357.99          C5-C10-C2-H104=179.01         H108-C10-C2-C11=180.24        H108-C10-C2-H104=  1.26       
C2-C10-C5-C19=183.72          C2-C10-C5-C20=  1.12          H108-C10-C5-C19=  1.42        H108-C10-C5-C20=178.82        
           -------------------------------------------------
          |                Final Singlepoint                |
           -------------------------------------------------

          ...................................................
          :                      SETUP                      :
          :.................................................:
          :  # basis functions                 456          :
          :  # atomic orbitals                 454          :
          :  # shells                          238          :
          :  # electrons                       446          :
          :  max. iterations                   250          :
          :  Hamiltonian                  GFN2-xTB          :
          :  restarted?                      false          :
          :  GBSA solvation                  false          :
          :  PC potential                    false          :
          :  electronic temp.          300.0000000     K    :
          :  accuracy                    1.0000000          :
          :  -> integral cutoff          0.2500000E+02      :
          :  -> integral neglect         0.1000000E-07      :
          :  -> SCF convergence          0.1000000E-05 Eh   :
          :  -> wf. convergence          0.1000000E-03 e    :
          :  Broyden damping             0.4000000          :
          :  net charge                          0          :
          :  unpaired electrons                  0          :
          ...................................................

 iter      E             dE          RMSdq      gap      omega  full diag
   1   -243.1193209 -0.243119E+03  0.524E-05    0.33       0.0  T
   2   -243.1193209  0.113212E-08  0.754E-05    0.33     115.4  T
   3   -243.1193209  0.100397E-08  0.952E-05    0.33      91.4  T

   *** convergence criteria satisfied after 3 iterations ***

         #    Occupation            Energy/Eh            Energy/eV
      -------------------------------------------------------------
         1        2.0000           -0.6720150             -18.2865
       ...           ...                  ...                  ...
       217        2.0000           -0.3815115             -10.3815
       218        2.0000           -0.3773628             -10.2686
       219        2.0000           -0.3770272             -10.2594
       220        2.0000           -0.3656353              -9.9494
       221        2.0000           -0.3605068              -9.8099
       222        2.0000           -0.3544050              -9.6438
       223        1.9964           -0.3318082              -9.0290 (HOMO)
       224        0.0036           -0.3198205              -8.7028 (LUMO)
       225                         -0.2934002              -7.9838
       226                         -0.2874493              -7.8219
       227                         -0.2749392              -7.4815
       228                         -0.2678921              -7.2897
       ...                                ...                  ...
       454                          0.8970931              24.4111
      -------------------------------------------------------------
                  HL-Gap            0.0119877 Eh            0.3262 eV
             Fermi-level           -0.3258143 Eh           -8.8659 eV

 SCC (total)                   0 d,  0 h,  0 min,  0.446 sec
 SCC setup                      ...        0 min,  0.002 sec (  0.448%)
 Dispersion                     ...        0 min,  0.004 sec (  0.897%)
 classical contributions        ...        0 min,  0.001 sec (  0.224%)
 integral evaluation            ...        0 min,  0.044 sec (  9.866%)
 iterations                     ...        0 min,  0.197 sec ( 44.170%)
 molecular gradient             ...        0 min,  0.194 sec ( 43.498%)
 printout                       ...        0 min,  0.004 sec (  0.897%)

         :::::::::::::::::::::::::::::::::::::::::::::::::::::
         ::                     SUMMARY                     ::
         :::::::::::::::::::::::::::::::::::::::::::::::::::::
         :: total energy            -238.489374077258 Eh    ::
         :: gradient norm              0.000211056695 Eh/a0 ::
         :: HOMO-LUMO gap              0.326201178357 eV    ::
         ::.................................................::
         :: SCC energy              -243.126962373485 Eh    ::
         :: -> isotropic ES            0.002971282560 Eh    ::
         :: -> anisotropic ES          0.011121774045 Eh    ::
         :: -> anisotropic XC          0.089787330397 Eh    ::
         :: -> dispersion             -0.295540779135 Eh    ::
         :: repulsion energy           4.637588296227 Eh    ::
         :: add. restraining           0.000000000000 Eh    ::
         :: total charge               0.000000000000 e     ::
         :::::::::::::::::::::::::::::::::::::::::::::::::::::

           -------------------------------------------------
          |                Property Printout                |
           -------------------------------------------------

    * Orbital Energies and Occupations

         #    Occupation            Energy/Eh            Energy/eV
      -------------------------------------------------------------
         1        2.0000           -0.6720150             -18.2865
       ...           ...                  ...                  ...
       211        2.0000           -0.3949783             -10.7479
       212        2.0000           -0.3928814             -10.6908
       213        2.0000           -0.3874156             -10.5421
       214        2.0000           -0.3867359             -10.5236
       215        2.0000           -0.3856348             -10.4937
       216        2.0000           -0.3845302             -10.4636
       217        2.0000           -0.3815115             -10.3815
       218        2.0000           -0.3773628             -10.2686
       219        2.0000           -0.3770272             -10.2594
       220        2.0000           -0.3656353              -9.9494
       221        2.0000           -0.3605068              -9.8099
       222        2.0000           -0.3544050              -9.6438
       223        1.9964           -0.3318082              -9.0290 (HOMO)
       224        0.0036           -0.3198205              -8.7028 (LUMO)
       225                         -0.2934002              -7.9838
       226                         -0.2874493              -7.8219
       227                         -0.2749392              -7.4815
       228                         -0.2678921              -7.2897
       229                         -0.2623362              -7.1385
       230                         -0.2609623              -7.1011
       231                         -0.2563372              -6.9753
       232                         -0.2533985              -6.8953
       233                         -0.2437084              -6.6316
       234                         -0.2406342              -6.5480
       ...                                ...                  ...
       454                          0.8970931              24.4111
      -------------------------------------------------------------
                  HL-Gap            0.0119877 Eh            0.3262 eV
             Fermi-level           -0.3258143 Eh           -8.8659 eV

     #   Z          covCN         q      C6AA      α(0)
     1   6 C        2.919    -0.037    28.909     8.817
     2   6 C        2.920    -0.037    28.916     8.818
     3   6 C        2.981     0.005    27.913     8.666
     4   6 C        2.925    -0.037    28.928     8.820
     5   6 C        2.983     0.004    27.917     8.667
     6   6 C        2.991     0.001    27.989     8.678
     7   6 C        2.922    -0.036    28.897     8.815
     8   6 C        2.919    -0.037    28.918     8.818
     9   6 C        2.979     0.004    27.922     8.668
    10   6 C        2.920    -0.037    28.924     8.819
    11   6 C        2.982     0.005    27.913     8.666
    12   6 C        2.991     0.001    27.993     8.679
    13   6 C        3.038    -0.034    28.820     8.805
    14   6 C        3.046     0.005    27.878     8.660
    15   6 C        2.985    -0.001    28.039     8.686
    16   6 C        3.033     0.003    27.920     8.667
    17   6 C        3.053    -0.043    29.006     8.833
    18   6 C        2.915    -0.030    28.757     8.794
    19   6 C        2.985     0.006    27.874     8.660
    20   6 C        2.990     0.001    27.985     8.678
    21   6 C        2.987     0.000    28.015     8.682
    22   6 C        2.922     0.005    27.906     8.663
    23   6 C        2.973     0.002    27.979     8.676
    24   6 C        2.987    -0.000    28.021     8.683
    25   6 C        2.913     0.004    27.939     8.667
    26   6 C        2.988     0.000    28.014     8.682
    27   6 C        2.979     0.011    27.763     8.643
    28   6 C        2.912    -0.030    28.740     8.791
    29   6 C        2.975     0.006    27.872     8.660
    30   6 C        2.980     0.013    27.728     8.638
    31   6 C        2.990     0.001    27.986     8.678
    32   6 C        2.986     0.001    27.995     8.679
    33   6 C        2.977     0.012    27.750     8.641
    34   6 C        2.987    -0.001    28.033     8.685
    35   6 C        2.988    -0.001    28.036     8.686
    36   6 C        2.989     0.001    27.997     8.679
    37   6 C        2.979     0.011    27.763     8.643
    38   6 C        2.921    -0.037    28.911     8.817
    39   6 C        2.994     0.002    27.981     8.677
    40   6 C        2.925    -0.044    29.103     8.847
    41   6 C        2.987    -0.000    28.023     8.684
    42   6 C        2.993    -0.000    28.026     8.684
    43   6 C        2.925    -0.045    29.115     8.849
    44   6 C        2.987    -0.001    28.034     8.685
    45   6 C        2.913     0.004    27.939     8.667
    46   6 C        2.919    -0.037    28.918     8.818
    47   6 C        2.988    -0.001    28.034     8.685
    48   6 C        2.925    -0.044    29.103     8.847
    49   6 C        2.988    -0.000    28.029     8.684
    50   6 C        2.994     0.002    27.981     8.677
    51   6 C        2.988     0.000    28.014     8.682
    52   6 C        2.979     0.004    27.922     8.668
    53   6 C        2.989    -0.000    28.030     8.685
    54   6 C        2.973     0.002    27.979     8.676
    55   6 C        2.989    -0.000    28.023     8.684
    56   6 C        2.922     0.005    27.906     8.663
    57   6 C        2.989    -0.000    28.032     8.685
    58   6 C        2.921    -0.037    28.911     8.817
    59   6 C        2.987    -0.000    28.021     8.683
    60   6 C        2.922    -0.036    28.897     8.815
    61   6 C        2.993    -0.000    28.019     8.683
    62   6 C        2.990     0.001    27.985     8.678
    63   6 C        2.990    -0.001    28.033     8.685
    64   6 C        2.985     0.006    27.874     8.660
    65   6 C        2.989    -0.000    28.024     8.684
    66   6 C        2.915    -0.030    28.757     8.794
    67   6 C        2.987     0.000    28.015     8.682
    68   6 C        2.925    -0.045    29.115     8.849
    69   6 C        2.982     0.005    27.913     8.666
    70   6 C        2.993    -0.000    28.026     8.684
    71   6 C        2.920    -0.037    28.924     8.819
    72   6 C        2.987    -0.000    28.023     8.684
    73   6 C        2.991     0.001    27.993     8.679
    74   6 C        2.989    -0.000    28.024     8.684
    75   6 C        2.977     0.012    27.750     8.641
    76   6 C        2.920    -0.037    28.916     8.818
    77   6 C        2.990    -0.001    28.033     8.685
    78   6 C        2.986     0.001    27.995     8.679
    79   6 C        2.993    -0.000    28.019     8.683
    80   6 C        2.990     0.001    27.986     8.678
    81   6 C        3.053    -0.043    29.006     8.833
    82   6 C        2.981     0.005    27.913     8.666
    83   6 C        2.989    -0.000    28.032     8.685
    84   6 C        2.989    -0.000    28.023     8.684
    85   6 C        2.980     0.013    27.728     8.638
    86   6 C        2.989    -0.000    28.030     8.685
    87   6 C        2.975     0.006    27.872     8.660
    88   6 C        3.033     0.003    27.920     8.667
    89   6 C        2.919    -0.037    28.909     8.817
    90   6 C        2.988    -0.000    28.029     8.684
    91   6 C        3.046     0.005    27.878     8.660
    92   6 C        2.988    -0.001    28.034     8.685
    93   6 C        3.038    -0.034    28.820     8.805
    94   6 C        2.987    -0.001    28.034     8.685
    95   6 C        2.912    -0.030    28.740     8.791
    96   6 C        2.985    -0.001    28.039     8.686
    97   6 C        2.989     0.001    27.997     8.679
    98   6 C        2.983     0.004    27.917     8.667
    99   6 C        2.988    -0.001    28.036     8.686
   100   6 C        2.925    -0.037    28.928     8.820
   101   6 C        2.987    -0.001    28.033     8.685
   102   6 C        2.991     0.001    27.989     8.678
   103   1 H        0.926     0.033     2.540     2.492
   104   1 H        0.926     0.034     2.531     2.488
   105   1 H        0.926     0.036     2.503     2.474
   106   1 H        0.926     0.033     2.547     2.496
   107   1 H        0.926     0.034     2.537     2.491
   108   1 H        0.926     0.034     2.528     2.487
   109   1 H        0.925     0.035     2.514     2.480
   110   1 H        0.925     0.035     2.521     2.483
   111   1 H        0.926     0.033     2.549     2.497
   112   1 H        0.926     0.030     2.586     2.515
   113   1 H        0.926     0.032     2.564     2.504
   114   1 H        0.926     0.032     2.553     2.499
   115   1 H        0.926     0.032     2.554     2.499
   116   1 H        0.926     0.034     2.537     2.491
   117   1 H        0.926     0.032     2.553     2.499
   118   1 H        0.926     0.032     2.564     2.504
   119   1 H        0.926     0.033     2.547     2.496
   120   1 H        0.926     0.033     2.549     2.497
   121   1 H        0.926     0.032     2.554     2.499
   122   1 H        0.926     0.034     2.528     2.487
   123   1 H        0.926     0.034     2.531     2.488
   124   1 H        0.925     0.035     2.521     2.483
   125   1 H        0.926     0.033     2.540     2.492
   126   1 H        0.925     0.035     2.514     2.480
   127   1 H        0.926     0.030     2.586     2.515
   128   1 H        0.926     0.036     2.503     2.474
   129   1 H        0.977     0.048     2.340     2.390
   130   1 H        0.977     0.048     2.340     2.390
   131  15 P        3.215    -0.085   164.070    23.009
   132  15 P        3.215    -0.085   164.070    23.009

 Mol. C6AA /au·bohr⁶  :     374039.770061
 Mol. C8AA /au·bohr⁸  :   10608540.348447
 Mol. α(0) /au        :       1004.140379


Wiberg/Mayer (AO) data.
largest (>0.10) Wiberg bond orders for each atom

 ---------------------------------------------------------------------------
     #   Z sym  total        # sym  WBO       # sym  WBO       # sym  WBO
 ---------------------------------------------------------------------------
     1   6 C    3.971 --     8 C    1.488     9 C    1.345   103 H    0.961
     2   6 C    3.962 --    10 C    1.499    11 C    1.331   104 H    0.961
     3   6 C    3.966 --     8 C    1.337    12 C    1.278    11 C    1.151
     4   6 C    3.983 --    18 C    1.482    19 C    1.343   105 H    0.961
     5   6 C    3.962 --    10 C    1.331    20 C    1.293    19 C    1.138
     6   6 C    3.978 --    11 C    1.282    20 C    1.253    21 C    1.218
     7   6 C    3.902 --    29 C    1.393    28 C    1.381   106 H    0.962
     8   6 C    3.954 --     1 C    1.488     3 C    1.337   107 H    0.961
     9   6 C    3.950 --     1 C    1.345    31 C    1.278    29 C    1.135
    10   6 C    3.961 --     2 C    1.499     5 C    1.331   108 H    0.961
    11   6 C    3.961 --     2 C    1.331     6 C    1.282     3 C    1.151
    12   6 C    3.975 --     3 C    1.278    31 C    1.249    34 C    1.226
    13   6 C    3.978 --    22 C    1.438    18 C    1.391   109 H    0.962
    14   6 C    3.979 --    22 C    1.296    19 C    1.294    23 C    1.153
    15   6 C    3.961 --    23 C    1.285    24 C    1.251    20 C    1.206
    16   6 C    3.941 --    23 C    1.284    26 C    1.249    25 C    1.185
    17   6 C    3.953 --    25 C    1.568    27 C    1.213   110 H    0.958
    18   6 C    3.976 --     4 C    1.482    13 C    1.391   111 H    0.969
    19   6 C    3.975 --     4 C    1.343    14 C    1.294     5 C    1.138
    20   6 C    3.979 --     5 C    1.293     6 C    1.253    15 C    1.206
    21   6 C    3.952 --    44 C    1.274    34 C    1.247     6 C    1.218
    22   6 C    3.970 --    13 C    1.438    14 C    1.296   132 P    1.039
    23   6 C    3.941 --    15 C    1.285    16 C    1.284    14 C    1.153
    24   6 C    3.967 --    53 C    1.273    15 C    1.251    44 C    1.220
    25   6 C    3.964 --    17 C    1.568    16 C    1.185   132 P    1.037
    26   6 C    3.971 --    61 C    1.270    16 C    1.249    53 C    1.231
    27   6 C    3.978 --    68 C    1.411    17 C    1.213    61 C    1.194
    28   6 C    3.983 --    38 C    1.508     7 C    1.381   112 H    0.970
    29   6 C    3.982 --     7 C    1.393    39 C    1.261     9 C    1.135
    30   6 C    3.985 --    40 C    1.330    38 C    1.273    39 C    1.219
    31   6 C    3.981 --     9 C    1.278    12 C    1.249    41 C    1.228
    32   6 C    3.980 --    42 C    1.278    39 C    1.255    41 C    1.221
    33   6 C    3.985 --    40 C    1.354    43 C    1.284    42 C    1.187
    34   6 C    3.960 --    74 C    1.269    21 C    1.247    12 C    1.226
    35   6 C    3.969 --    41 C    1.283    77 C    1.245    74 C    1.219
    36   6 C    3.978 --    42 C    1.268    79 C    1.262    77 C    1.227
    37   6 C    3.978 --    43 C    1.411    81 C    1.213    79 C    1.194
    38   6 C    3.907 --    28 C    1.508    30 C    1.273   113 H    0.969
    39   6 C    3.955 --    29 C    1.261    32 C    1.255    30 C    1.219
    40   6 C    3.826 --    33 C    1.354    30 C    1.330   114 H    0.966
    41   6 C    3.939 --    35 C    1.283    31 C    1.228    32 C    1.221
    42   6 C    3.960 --    32 C    1.278    36 C    1.268    33 C    1.187
    43   6 C    3.855 --    37 C    1.411    33 C    1.284   115 H    0.966
    44   6 C    3.959 --    21 C    1.274    83 C    1.249    24 C    1.220
    45   6 C    3.964 --    81 C    1.568    88 C    1.185   131 P    1.037
    46   6 C    3.954 --    89 C    1.488    82 C    1.337   116 H    0.961
    47   6 C    3.963 --    74 C    1.256    84 C    1.249    83 C    1.240
    48   6 C    3.826 --    75 C    1.354    85 C    1.330   117 H    0.966
    49   6 C    3.964 --    77 C    1.270    86 C    1.240    84 C    1.234
    50   6 C    3.955 --    87 C    1.261    78 C    1.255    85 C    1.219
    51   6 C    3.971 --    79 C    1.270    88 C    1.249    86 C    1.231
    52   6 C    3.950 --    89 C    1.345    80 C    1.278    87 C    1.135
    53   6 C    3.965 --    24 C    1.273    90 C    1.240    26 C    1.231
    54   6 C    3.941 --    96 C    1.285    88 C    1.284    91 C    1.153
    55   6 C    3.953 --    83 C    1.258    92 C    1.249    90 C    1.234
    56   6 C    3.970 --    93 C    1.438    91 C    1.296   131 P    1.039
    57   6 C    3.962 --    84 C    1.258    94 C    1.249    92 C    1.240
    58   6 C    3.907 --    95 C    1.508    85 C    1.273   118 H    0.969
    59   6 C    3.967 --    86 C    1.273    96 C    1.251    94 C    1.220
    60   6 C    3.902 --    87 C    1.393    95 C    1.381   119 H    0.962
    61   6 C    3.942 --    26 C    1.270    97 C    1.262    27 C    1.194
    62   6 C    3.979 --    98 C    1.293   102 C    1.253    96 C    1.206
    63   6 C    3.954 --    90 C    1.270    99 C    1.245    97 C    1.227
    64   6 C    3.975 --   100 C    1.343    91 C    1.294    98 C    1.138
    65   6 C    3.960 --   101 C    1.269    92 C    1.256    99 C    1.219
    66   6 C    3.976 --   100 C    1.482    93 C    1.391   120 H    0.969
    67   6 C    3.952 --    94 C    1.274   101 C    1.247   102 C    1.218
    68   6 C    3.855 --    27 C    1.411    75 C    1.284   121 H    0.966
    69   6 C    3.961 --    76 C    1.331   102 C    1.282    82 C    1.151
    70   6 C    3.960 --    78 C    1.278    97 C    1.268    75 C    1.187
    71   6 C    3.961 --    76 C    1.499    98 C    1.331   122 H    0.961
    72   6 C    3.939 --    99 C    1.283    80 C    1.228    78 C    1.221
    73   6 C    3.975 --    82 C    1.278    80 C    1.249   101 C    1.226
    74   6 C    3.960 --    34 C    1.269    47 C    1.256    35 C    1.219
    75   6 C    3.985 --    48 C    1.354    68 C    1.284    70 C    1.187
    76   6 C    3.962 --    71 C    1.499    69 C    1.331   123 H    0.961
    77   6 C    3.954 --    49 C    1.270    35 C    1.245    36 C    1.227
    78   6 C    3.980 --    70 C    1.278    50 C    1.255    72 C    1.221
    79   6 C    3.942 --    51 C    1.270    36 C    1.262    37 C    1.194
    80   6 C    3.981 --    52 C    1.278    73 C    1.249    72 C    1.228
    81   6 C    3.953 --    45 C    1.568    37 C    1.213   124 H    0.958
    82   6 C    3.966 --    46 C    1.337    73 C    1.278    69 C    1.151
    83   6 C    3.962 --    55 C    1.258    44 C    1.249    47 C    1.240
    84   6 C    3.953 --    57 C    1.258    47 C    1.249    49 C    1.234
    85   6 C    3.985 --    48 C    1.330    58 C    1.273    50 C    1.219
    86   6 C    3.965 --    59 C    1.273    49 C    1.240    51 C    1.231
    87   6 C    3.982 --    60 C    1.393    50 C    1.261    52 C    1.135
    88   6 C    3.941 --    54 C    1.284    51 C    1.249    45 C    1.185
    89   6 C    3.971 --    46 C    1.488    52 C    1.345   125 H    0.961
    90   6 C    3.964 --    63 C    1.270    53 C    1.240    55 C    1.234
    91   6 C    3.979 --    56 C    1.296    64 C    1.294    54 C    1.153
    92   6 C    3.963 --    65 C    1.256    55 C    1.249    57 C    1.240
    93   6 C    3.978 --    56 C    1.438    66 C    1.391   126 H    0.962
    94   6 C    3.959 --    67 C    1.274    57 C    1.249    59 C    1.220
    95   6 C    3.983 --    58 C    1.508    60 C    1.381   127 H    0.970
    96   6 C    3.961 --    54 C    1.285    59 C    1.251    62 C    1.206
    97   6 C    3.978 --    70 C    1.268    61 C    1.262    63 C    1.227
    98   6 C    3.962 --    71 C    1.331    62 C    1.293    64 C    1.138
    99   6 C    3.969 --    72 C    1.283    63 C    1.245    65 C    1.219
   100   6 C    3.983 --    66 C    1.482    64 C    1.343   128 H    0.961
   101   6 C    3.960 --    65 C    1.269    67 C    1.247    73 C    1.226
   102   6 C    3.978 --    69 C    1.282    62 C    1.253    67 C    1.218
   103   1 H    0.998 --     1 C    0.961
   104   1 H    0.998 --     2 C    0.961
   105   1 H    0.998 --     4 C    0.961
   106   1 H    0.998 --     7 C    0.962
   107   1 H    0.998 --     8 C    0.961
   108   1 H    0.998 --    10 C    0.961
   109   1 H    0.998 --    13 C    0.962
   110   1 H    0.997 --    17 C    0.958
   111   1 H    0.998 --    18 C    0.969
   112   1 H    0.998 --    28 C    0.970
   113   1 H    0.998 --    38 C    0.969
   114   1 H    0.998 --    40 C    0.966
   115   1 H    0.998 --    43 C    0.966
   116   1 H    0.998 --    46 C    0.961
   117   1 H    0.998 --    48 C    0.966
   118   1 H    0.998 --    58 C    0.969
   119   1 H    0.998 --    60 C    0.962
   120   1 H    0.998 --    66 C    0.969
   121   1 H    0.998 --    68 C    0.966
   122   1 H    0.998 --    71 C    0.961
   123   1 H    0.998 --    76 C    0.961
   124   1 H    0.997 --    81 C    0.958
   125   1 H    0.998 --    89 C    0.961
   126   1 H    0.998 --    93 C    0.962
   127   1 H    0.998 --    95 C    0.970
   128   1 H    0.998 --   100 C    0.961
   129   1 H    0.994 --   132 P    0.942
   130   1 H    0.994 --   131 P    0.942
   131  15 P    3.306 --    56 C    1.039    45 C    1.037   130 H    0.942
   132  15 P    3.306 --    22 C    1.039    25 C    1.037   129 H    0.942
 ---------------------------------------------------------------------------

Topologies differ in total number of bonds
Writing topology from bond orders to xtbtopo.mol

molecular dipole:
                 x           y           z       tot (Debye)
 q only:        0.000       0.000       0.000
   full:        0.000       0.000       0.000       0.000
molecular quadrupole (traceless):
                xx          xy          yy          xz          yz          zz
 q only:        1.211       1.181      22.142      -9.640       3.862     -23.353
  q+dip:       21.050       2.938      52.372     -21.912       9.124     -73.422
   full:        2.888       2.863      33.783     -22.461       7.816     -36.671

           -------------------------------------------------
          |                Geometry Summary                 |
           -------------------------------------------------

      molecular mass/u    :     1315.2649268
   center of mass at/Å    :       -0.0000002      -0.0000002       0.0000013
  moments of inertia/u·Å² :        0.2787842E+05   0.3397173E+05   0.6152240E+05
rotational constants/cm⁻¹ :        0.6046839E-03   0.4962252E-03   0.2740080E-03

 * 162 selected distances

     #   Z          #   Z                                           value/Å
     1   6 C        8   6 C                                       1.3712605
     3   6 C        8   6 C                                       1.3977312
     1   6 C        9   6 C                                       1.3965827
     2   6 C       10   6 C                                       1.3688602
     5   6 C       10   6 C                                       1.3983086
     2   6 C       11   6 C                                       1.3984009
     6   6 C       11   6 C                                       1.4115134
     3   6 C       12   6 C                                       1.4114506
     4   6 C       18   6 C                                       1.3737688
    13   6 C       18   6 C                                       1.3853933
     4   6 C       19   6 C                                       1.4015531
    14   6 C       19   6 C                                       1.4130425
     5   6 C       20   6 C                                       1.4079475
     6   6 C       20   6 C                                       1.4189837
    15   6 C       20   6 C                                       1.4266834
     6   6 C       21   6 C                                       1.4214115
    13   6 C       22   6 C                                       1.3827496
    14   6 C       22   6 C                                       1.4101051
    15   6 C       23   6 C                                       1.4160353
    16   6 C       23   6 C                                       1.4160872
    15   6 C       24   6 C                                       1.4182069
    16   6 C       25   6 C                                       1.4314553
    17   6 C       25   6 C                                       1.3605075
    16   6 C       26   6 C                                       1.4216706
    17   6 C       27   6 C                                       1.4141915
     7   6 C       28   6 C                                       1.3910692
     7   6 C       29   6 C                                       1.3923817
     9   6 C       31   6 C                                       1.4143827
    12   6 C       31   6 C                                       1.4200875
    12   6 C       34   6 C                                       1.4214176
    21   6 C       34   6 C                                       1.4168826
    28   6 C       38   6 C                                       1.3698244
    30   6 C       38   6 C                                       1.4092602
    29   6 C       39   6 C                                       1.4164954
    30   6 C       39   6 C                                       1.4253211
    32   6 C       39   6 C                                       1.4154799
    30   6 C       40   6 C                                       1.3963459
    33   6 C       40   6 C                                       1.3914242
    31   6 C       41   6 C                                       1.4198621
    32   6 C       41   6 C                                       1.4210930
    35   6 C       41   6 C                                       1.4089252
    32   6 C       42   6 C                                       1.4099237
    33   6 C       42   6 C                                       1.4289610
    36   6 C       42   6 C                                       1.4121722
    33   6 C       43   6 C                                       1.4036275
    37   6 C       43   6 C                                       1.3810810
    21   6 C       44   6 C                                       1.4100178
    24   6 C       44   6 C                                       1.4234856
    24   6 C       53   6 C                                       1.4099316
    26   6 C       53   6 C                                       1.4195715
    26   6 C       61   6 C                                       1.4136607
    27   6 C       61   6 C                                       1.4252353
    27   6 C       68   6 C                                       1.3810808
    34   6 C       74   6 C                                       1.4109410
    35   6 C       74   6 C                                       1.4210124
    47   6 C       74   6 C                                       1.4135982
    48   6 C       75   6 C                                       1.3914237
    68   6 C       75   6 C                                       1.4036273
    70   6 C       75   6 C                                       1.4289605
    69   6 C       76   6 C                                       1.3984010
    71   6 C       76   6 C                                       1.3688602
    35   6 C       77   6 C                                       1.4158351
    36   6 C       77   6 C                                       1.4178529
    49   6 C       77   6 C                                       1.4104248
    50   6 C       78   6 C                                       1.4154792
    70   6 C       78   6 C                                       1.4099231
    72   6 C       78   6 C                                       1.4210928
    36   6 C       79   6 C                                       1.4125618
    37   6 C       79   6 C                                       1.4252357
    51   6 C       79   6 C                                       1.4136607
    52   6 C       80   6 C                                       1.4143825
    72   6 C       80   6 C                                       1.4198618
    73   6 C       80   6 C                                       1.4200875
    37   6 C       81   6 C                                       1.4141915
    45   6 C       81   6 C                                       1.3605075
    46   6 C       82   6 C                                       1.3977311
    73   6 C       82   6 C                                       1.4114506
    44   6 C       83   6 C                                       1.4167113
    47   6 C       83   6 C                                       1.4177946
    55   6 C       83   6 C                                       1.4126481
    47   6 C       84   6 C                                       1.4160718
    49   6 C       84   6 C                                       1.4180831
    57   6 C       84   6 C                                       1.4126480
    48   6 C       85   6 C                                       1.3963455
    50   6 C       85   6 C                                       1.4253204
    58   6 C       85   6 C                                       1.4092599
    49   6 C       86   6 C                                       1.4185985
    51   6 C       86   6 C                                       1.4195718
    59   6 C       86   6 C                                       1.4099315
    50   6 C       87   6 C                                       1.4164950
    60   6 C       87   6 C                                       1.3923814
    45   6 C       88   6 C                                       1.4314556
    51   6 C       88   6 C                                       1.4216708
    54   6 C       88   6 C                                       1.4160866
    46   6 C       89   6 C                                       1.3712606
    52   6 C       89   6 C                                       1.3965831
    53   6 C       90   6 C                                       1.4185982
    55   6 C       90   6 C                                       1.4180829
    63   6 C       90   6 C                                       1.4104248
    56   6 C       91   6 C                                       1.4101051
    64   6 C       91   6 C                                       1.4130419
    55   6 C       92   6 C                                       1.4160717
    57   6 C       92   6 C                                       1.4177945
    65   6 C       92   6 C                                       1.4135981
    56   6 C       93   6 C                                       1.3827491
    66   6 C       93   6 C                                       1.3853917
    57   6 C       94   6 C                                       1.4167112
    59   6 C       94   6 C                                       1.4234856
    67   6 C       94   6 C                                       1.4100177
    58   6 C       95   6 C                                       1.3698237
    60   6 C       95   6 C                                       1.3910685
    54   6 C       96   6 C                                       1.4160351
    59   6 C       96   6 C                                       1.4182068
    62   6 C       96   6 C                                       1.4266831
    61   6 C       97   6 C                                       1.4125612
    63   6 C       97   6 C                                       1.4178526
    70   6 C       97   6 C                                       1.4121719
    62   6 C       98   6 C                                       1.4079473
    71   6 C       98   6 C                                       1.3983085
    63   6 C       99   6 C                                       1.4158347
    65   6 C       99   6 C                                       1.4210123
    72   6 C       99   6 C                                       1.4089250
    64   6 C      100   6 C                                       1.4015519
    66   6 C      100   6 C                                       1.3737690
    65   6 C      101   6 C                                       1.4109408
    67   6 C      101   6 C                                       1.4168826
    73   6 C      101   6 C                                       1.4214175
    62   6 C      102   6 C                                       1.4189836
    67   6 C      102   6 C                                       1.4214113
    69   6 C      102   6 C                                       1.4115133
     1   6 C      103   1 H                                       1.0777038
     2   6 C      104   1 H                                       1.0775328
     4   6 C      105   1 H                                       1.0776937
     7   6 C      106   1 H                                       1.0776596
     8   6 C      107   1 H                                       1.0777106
    10   6 C      108   1 H                                       1.0775588
    13   6 C      109   1 H                                       1.0817428
    17   6 C      110   1 H                                       1.0826138
    18   6 C      111   1 H                                       1.0798154
    28   6 C      112   1 H                                       1.0804026
    38   6 C      113   1 H                                       1.0800812
    40   6 C      114   1 H                                       1.0807601
    43   6 C      115   1 H                                       1.0806243
    46   6 C      116   1 H                                       1.0777107
    48   6 C      117   1 H                                       1.0807601
    58   6 C      118   1 H                                       1.0800812
    60   6 C      119   1 H                                       1.0776596
    66   6 C      120   1 H                                       1.0798170
    68   6 C      121   1 H                                       1.0806243
    71   6 C      122   1 H                                       1.0775591
    76   6 C      123   1 H                                       1.0775328 (min)
    81   6 C      124   1 H                                       1.0826134
    89   6 C      125   1 H                                       1.0777038
    93   6 C      126   1 H                                       1.0817426
    95   6 C      127   1 H                                       1.0804030
   100   6 C      128   1 H                                       1.0776950
    45   6 C      131  15 P                                       1.8081030 (max)
    56   6 C      131  15 P                                       1.8057924
   130   1 H      131  15 P                                       1.4011911
    22   6 C      132  15 P                                       1.8057910
    25   6 C      132  15 P                                       1.8081027
   129   1 H      132  15 P                                       1.4011896

 * 4 distinct bonds (by element types)

   Z      Z             #   av. dist./Å        max./Å        min./Å
   1 H    6 C          26     1.0793770     1.0826138     1.0775328
   6 C    6 C         130     1.4083684     1.4314556     1.3605075
   1 H   15 P           2     1.4011904     1.4011911     1.4011896
   6 C   15 P           4     1.8069473     1.8081030     1.8057910


optimized geometry written to: xtbopt.xyz


           -------------------------------------------------
          | TOTAL ENERGY             -238.489374077258 Eh   |
          | GRADIENT NORM               0.000211056695 Eh/α |
          | HOMO-LUMO GAP               0.326201178357 eV   |
           -------------------------------------------------

------------------------------------------------------------------------
 * finished run on 2025/12/08 at 00:32:03.441     
------------------------------------------------------------------------
 total:
 * wall-time:     0 d,  0 h,  0 min, 15.500 sec
 *  cpu-time:     0 d,  0 h,  0 min, 59.797 sec
 * ratio c/w:     3.858 speedup
 SCF:
 * wall-time:     0 d,  0 h,  0 min,  1.110 sec
 *  cpu-time:     0 d,  0 h,  0 min,  4.078 sec
 * ratio c/w:     3.674 speedup
 ANC optimizer:
 * wall-time:     0 d,  0 h,  0 min, 14.255 sec
 *  cpu-time:     0 d,  0 h,  0 min, 55.328 sec
 * ratio c/w:     3.881 speedup

normal termination of xtb
