132
 energy: -238.489374077258 gnorm: 0.000211056695 xtb: 6.7.1pre (5071a88)
C            1.21940295414542        7.73751207262527       -0.21017911393493
C           -2.93235520875359        6.83650160534214        0.35894641103779
C           -0.58118667427683        6.13930455391985        0.00435675195809
C           -7.06874690860270        5.88325579291789        0.85135950485987
C           -4.73035265518127        5.22686831850982        0.37418974988899
C           -2.41614586165789        4.49297640055337        0.09251744625859
C            4.08890200821488        8.32947039779567       -0.36931667476024
C           -0.11799242417988        7.45351854327673       -0.10493533573539
C            2.18701905593778        6.73059339625720       -0.19353970935312
C           -4.26245090063750        6.53968824705180        0.48749632590754
C           -1.97988085493605        5.83413956818356        0.15016966661617
C            0.36295160884288        5.09101943402601       -0.03915862011164
C           -8.87333596302041        4.47552340311150        0.20819286420986
C           -6.58699913538707        3.65141746240512        0.01013030863695
C           -4.25418085601915        2.84994422647504       -0.01757551850494
C           -6.05119475075957        1.22528463976873       -0.30194052534661
C           -7.82151283303174       -0.44314470960877       -0.46690344532735
C           -8.42147666483187        5.65650007385238        0.77425949927219
C           -6.13801159862916        4.92353671313042        0.43061988800813
C           -3.80205733862845        4.19315616578166        0.14610471100028
C           -1.46295121615704        3.44243784039670        0.00196919273586
C           -7.97758472657105        3.48721202353490       -0.15631576610465
C           -5.63594821348679        2.57072657154435       -0.15141151852040
C           -3.29383139249249        1.80720042800191       -0.05910582359076
C           -7.41785478296909        0.85529465802465       -0.51268148038657
C           -5.10478868287351        0.17067059611137       -0.18682415559347
C           -6.91003091492496       -1.50159544743624       -0.24595103653900
C            5.45386111710595        8.59607400406446       -0.39902046736305
C            3.60058940949250        7.03061402093143       -0.25421142170127
C            5.92571982478659        6.24149738122545       -0.19681702626159
C            1.74987177956720        5.38814922578227       -0.10854578633242
C            4.08352690921602        4.62152524982895       -0.09275915525117
C            6.41689553659541        3.86746645622489        0.01157681990061
C           -0.07774205408577        3.73985657836888       -0.01516644216567
C            2.25613919950729        2.98918339909850       -0.02336632749012
C            4.58435541283694        2.22849641191010        0.05933752825151
C            6.91003320199391        1.50159104518011        0.24595099609456
C            6.36389566199699        7.57627161844189       -0.30814349866810
C            4.52806285492851        5.96250218511656       -0.18080198348933
C            6.83802301973335        5.18952166280664       -0.09274323105491
C            2.69326716674620        4.32741634440128       -0.07923848232710
C            5.01931823380543        3.57030272254163       -0.00843597890129
C            7.33257256398943        2.81322796342709        0.15400766752739
C           -1.90180589719505        2.10269918739766       -0.02365894375450
C            7.41786081017210       -0.85530310483631        0.51264097819714
C            0.11799234084348       -7.45351727535648        0.10497566608540
C            0.43430660923130        1.34578967124837       -0.00525784870369
C           -6.83802249720748       -5.18952032294300        0.09279342615356
C            2.76922282391431        0.58977386056494        0.05135355833091
C           -4.52806271530130       -5.96249965640347        0.18085916874302
C            5.10479051639225       -0.17067394845619        0.18681179224715
C           -2.18701910707637       -6.73059121325439        0.19359385209440
C           -3.71848260694843        0.46333502156764       -0.09915538287480
C            5.63594887033554       -2.57072878934020        0.15137384151044
C           -1.38261651786980       -0.29441947925620       -0.01898146341515
C            7.97758653623311       -3.48721009999365        0.15623523855800
C            0.95244727853981       -1.05113864740232        0.02058350604467
C           -6.36389465606573       -7.57626628169270        0.30822924146214
C            3.29383122855392       -1.80720131471787        0.05909582969248
C           -4.08890182742675       -8.32946456424830        0.36940687253154
C           -5.52410640528899       -1.17919218060452       -0.16492862651414
C            3.80205429601499       -4.19315617571074       -0.14612593252633
C           -3.19792682626264       -1.93326983143293       -0.02828754104606
C            6.13800472832991       -4.92353499989614       -0.43067379489964
C           -0.86664797871475       -2.69158559583114        0.01846056302097
C            8.42146434169658       -5.65649713995874       -0.77434440043813
C            1.46295013491767       -3.44243782346099       -0.00196487736869
C           -7.33257129264869       -2.81323069807548       -0.15399200687238
C            1.97987796577988       -5.83413973927946       -0.15016651955599
C           -5.01931799878077       -3.57030331632272        0.00846571996552
C            4.26244376331173       -6.53968756299637       -0.48752456651486
C           -2.69326754705385       -4.32741571907398        0.07927202628225
C           -0.36295258093570       -5.09101907564224        0.03918424169601
C            0.86664744576464        2.69158566583836       -0.01844581138933
C           -6.41689481522514       -3.86746719149092       -0.01154466315086
C            2.93234995867873       -6.83650138885540       -0.35895623221420
C            3.19792688563606        1.93326900973852        0.02830052234860
C           -4.08352706624780       -4.62152449866546        0.09279931959300
C            5.52410792898030        1.17918908109375        0.16492952911852
C           -1.74987220656313       -5.38814810387422        0.10858444388899
C            7.82151710745980        0.44313752714731        0.46688186407969
C            0.58118543649963       -6.13930439638839       -0.00433377539059
C           -0.95244757129911        1.05113854685504       -0.02057860932093
C            1.38261640633665        0.29441926648594        0.01898762035869
C           -5.92571912029165       -6.24149398415448        0.19688145550074
C            3.71848333889966       -0.46333648197993        0.09914966551720
C           -3.60058940732074       -7.03061043144388        0.25427906597003
C            6.05119799586173       -1.22528905012229        0.30190946686944
C           -1.21940214573166       -7.73750947507428        0.21023535073965
C           -2.76922257167881       -0.58977486517220       -0.05134876905005
C            6.58699853198182       -3.65141686662691       -0.01018933141320
C           -0.43430688605780       -1.34578978289603        0.00526671659137
C            8.87333182818282       -4.47552131900874       -0.20828631300161
C            1.90180537191949       -2.10269937627543        0.02365846478766
C           -5.45386025694373       -8.59606669278118        0.39911993122297
C            4.25417992943878       -2.84994509757475        0.01755311992255
C           -4.58435489923357       -2.22849818894287       -0.05932233838500
C            4.73034666019890       -5.22686757989496       -0.37422521802766
C           -2.25613948480314       -2.98918359195115        0.02338671016107
C            7.06873338609943       -5.88325237502054       -0.85142794663797
C            0.07774115462812       -3.73985654932701        0.01518133799485
C            2.41614364896346       -4.49297652686362       -0.09252078111082
H            1.51154124586305        8.77125964363393       -0.29658827977937
H           -2.63041011210370        7.86771670805126        0.43957759248360
H           -6.72582993267093        6.82037248683698        1.25835313124015
H            3.41266350887203        9.16560396031414       -0.43954614561257
H           -0.81358457530457        8.27648466119618       -0.12332504045862
H           -4.95315160828906        7.35199775451426        0.64311955862006
H           -9.93149421012043        4.30898939042312        0.05741253212271
H           -8.86513942885433       -0.68602434610296       -0.62151735624061
H           -9.12304608737768        6.40210176512255        1.11759526976901
H            5.78994262507796        9.61885866514960       -0.48974142776278
H            7.42514630961862        7.77664086198626       -0.32134711613594
H            7.89640165770343        5.40830519113580       -0.08949260358377
H            8.38840641908592        3.03804365240574        0.20321599640046
H            0.81358488416550       -8.27648313151985        0.12336712363995
H           -7.89640122461257       -5.40830339706163        0.08954704021189
H           -7.42514539231351       -7.77663475118743        0.32143990526409
H           -3.41266373583490       -9.16559748405712        0.43964699415366
H            9.12302958182093       -6.40209189997121       -1.11770900071967
H           -8.38840519874977       -3.03804646156779       -0.20319937440053
H            4.95314253527998       -7.35199641865797       -0.64316162966886
H            2.63040341077182       -7.86771612429743       -0.43958551625704
H            8.86514508192733        0.68601502586456        0.62148674141868
H           -1.51153963028384       -8.77125611258060        0.29665823222109
H            9.93149232433792       -4.30898848935696       -0.05752159080335
H           -5.78994192763347       -9.61885017763075        0.48985888288262
H            6.72580972577258       -6.82036336052778       -1.25843250259152
H           -9.63791266436038        1.73014429157898       -0.14176198395686
H            9.63789583844826       -1.73014917187562        0.14167341009356
P            8.63792661914492       -2.07141054969550        1.06196592757453
P           -8.63791632035322        2.07139710560842       -1.06202599117956
