132
 energy: -238.471026353118 gnorm: 0.043458101961 xtb: 6.7.1pre (5071a88)
C            1.22370700000000        7.79432400000000       -0.12121200000000
C           -2.95894900000000        6.88597700000000        0.33169000000000
C           -0.58880100000000        6.18033000000000        0.03906700000000
C           -7.12297900000000        5.99085100000000        0.73642400000000
C           -4.77451500000000        5.27372200000000        0.33454900000000
C           -2.44305900000000        4.52174800000000        0.10160000000000
C            4.10935400000000        8.39749000000000       -0.31628600000000
C           -0.12216900000000        7.50481100000000       -0.02795500000000
C            2.19602900000000        6.78197400000000       -0.14119400000000
C           -4.30018200000000        6.59393600000000        0.42994300000000
C           -2.00172200000000        5.87190500000000        0.15842100000000
C            0.35990000000000        5.12536300000000       -0.01376400000000
C           -8.95654100000000        4.55475400000000        0.18030100000000
C           -6.66453300000000        3.68947600000000        0.01853200000000
C           -4.30222200000000        2.86582200000000       -0.00168900000000
C           -6.11676600000000        1.22228400000000       -0.24505000000000
C           -7.89519200000000       -0.46509900000000       -0.36379300000000
C           -8.48583400000000        5.77748500000000        0.66454300000000
C           -6.19800900000000        4.98448100000000        0.37936400000000
C           -3.84313700000000        4.22274100000000        0.14311900000000
C           -1.48230800000000        3.46228900000000        0.01843900000000
C           -8.07015400000000        3.53110600000000       -0.13781300000000
C           -5.70188800000000        2.58142400000000       -0.11839100000000
C           -3.33106400000000        1.81688400000000       -0.03791700000000
C           -7.50298300000000        0.83853500000000       -0.43027600000000
C           -5.15103700000000        0.16306500000000       -0.14674900000000
C           -6.96588800000000       -1.52768100000000       -0.17376400000000
C            5.48598800000000        8.66912000000000       -0.35963700000000
C            3.62224600000000        7.08874400000000       -0.21383300000000
C            5.96793700000000        6.29625900000000       -0.19784600000000
C            1.75761800000000        5.42754400000000       -0.08011400000000
C            4.11052700000000        4.66065100000000       -0.09244600000000
C            6.46348800000000        3.90721800000000       -0.02797200000000
C           -0.08417900000000        3.76288100000000        0.00144900000000
C            2.26998200000000        3.01398000000000       -0.02271400000000
C            4.61746300000000        2.25107100000000        0.03156600000000
C            6.96588700000000        1.52768200000000        0.17376600000000
C            6.40531700000000        7.64286400000000       -0.29614100000000
C            4.55803400000000        6.01219900000000       -0.16794900000000
C            6.88550200000000        5.23555500000000       -0.12018400000000
C            2.70887900000000        4.35995800000000       -0.07097000000000
C            5.05381000000000        3.60465000000000       -0.03202400000000
C            7.38688100000000        2.84328300000000        0.08706900000000
C           -1.92397200000000        2.11554200000000       -0.00458700000000
C            7.50299000000000       -0.83853800000000        0.43022100000000
C            0.12216600000000       -7.50481000000000        0.02798500000000
C            0.43485900000000        1.35463100000000        0.00080900000000
C           -6.88550300000000       -5.23555000000000        0.12025900000000
C            2.79292000000000        0.59788100000000        0.03681700000000
C           -4.55803500000000       -6.01219500000000        0.16801800000000
C            5.15103900000000       -0.16306700000000        0.14672800000000
C           -2.19603000000000       -6.78197200000000        0.14124800000000
C           -3.75405000000000        0.46162900000000       -0.07020800000000
C            5.70189100000000       -2.58142700000000        0.11834400000000
C           -1.39358100000000       -0.29814500000000       -0.00767100000000
C            8.07015800000000       -3.53110500000000        0.13772100000000
C            0.96358400000000       -1.05663600000000        0.01474400000000
C           -6.40531800000000       -7.64285700000000        0.29625300000000
C            3.33106500000000       -1.81688500000000        0.03789600000000
C           -4.10935400000000       -8.39748400000000        0.31638600000000
C           -5.56752600000000       -1.19832800000000       -0.11776100000000
C            3.84313500000000       -4.22274300000000       -0.14314300000000
C           -3.22146900000000       -1.95019100000000       -0.01083100000000
C            6.19800500000000       -4.98448800000000       -0.37941000000000
C           -0.86813100000000       -2.71163200000000        0.01488800000000
C            8.48582700000000       -5.77748800000000       -0.66462800000000
C            1.48230700000000       -3.46229000000000       -0.01844400000000
C           -7.38688200000000       -2.84328000000000       -0.08703800000000
C            2.00171700000000       -5.87190500000000       -0.15842000000000
C           -5.05381100000000       -3.60464800000000        0.03206100000000
C            4.30017200000000       -6.59394000000000       -0.42996300000000
C           -2.70888000000000       -4.35995600000000        0.07100300000000
C           -0.35990200000000       -5.12536200000000        0.01378400000000
C            0.86813100000000        2.71163200000000       -0.01488100000000
C           -6.46348900000000       -3.90721400000000        0.02802100000000
C            2.95894000000000       -6.88598000000000       -0.33169500000000
C            3.22146900000000        1.95019200000000        0.01084000000000
C           -4.11052800000000       -4.66064800000000        0.09249300000000
C            5.56752600000000        1.19832800000000        0.11775900000000
C           -1.75762000000000       -5.42754200000000        0.08015100000000
C            7.89519300000000        0.46509800000000        0.36376500000000
C            0.58879800000000       -6.18033000000000       -0.03904900000000
C           -0.96358300000000        1.05663600000000       -0.01475000000000
C            1.39358100000000        0.29814500000000        0.00766600000000
C           -5.96793800000000       -6.29625400000000        0.19793200000000
C            3.75405100000000       -0.46163100000000        0.07019200000000
C           -3.62224700000000       -7.08874000000000        0.21390800000000
C            6.11677000000000       -1.22228600000000        0.24500700000000
C           -1.22370900000000       -7.79432200000000        0.12126000000000
C           -2.79291900000000       -0.59788200000000       -0.03682200000000
C            6.66453300000000       -3.68947900000000       -0.01859300000000
C           -0.43485900000000       -1.35463100000000       -0.00081100000000
C            8.95654100000000       -4.55475300000000       -0.18040600000000
C            1.92397200000000       -2.11554300000000        0.00457600000000
C           -5.48598800000000       -8.66911200000000        0.35975600000000
C            4.30222300000000       -2.86582500000000        0.00165800000000
C           -4.61746300000000       -2.25107000000000       -0.03155200000000
C            4.77451000000000       -5.27372700000000       -0.33457800000000
C           -2.26998200000000       -3.01397900000000        0.02273000000000
C            7.12297100000000       -5.99085800000000       -0.73647900000000
C            0.08417800000000       -3.76288100000000       -0.00144200000000
C            2.44305700000000       -4.52175000000000       -0.10160900000000
H            1.51664400000000        8.83613100000000       -0.16884300000000
H           -2.65640200000000        7.92310300000000        0.40159300000000
H           -6.76746400000000        6.95187600000000        1.08560900000000
H            3.42464100000000        9.23544800000000       -0.36619100000000
H           -0.81885700000000        8.33351100000000       -0.01946400000000
H           -4.99186600000000        7.41802200000000        0.54671800000000
H          -10.02530100000000        4.39973800000000        0.05451800000000
H           -8.94358200000000       -0.72834100000000       -0.48698900000000
H           -9.18076100000000        6.55993000000000        0.95455000000000
H            5.82125400000000        9.69915100000000       -0.43983200000000
H            7.47202400000000        7.84774500000000       -0.32125000000000
H            7.95024500000000        5.45446700000000       -0.12665700000000
H            8.44960000000000        3.06887300000000        0.12233100000000
H            0.81885400000000       -8.33351000000000        0.01949000000000
H           -7.95024700000000       -5.45446200000000        0.12674400000000
H           -7.47202500000000       -7.84773800000000        0.32137500000000
H           -3.42464200000000       -9.23544100000000        0.36629900000000
H            9.18075000000000       -6.55993200000000       -0.95464800000000
H           -8.44960200000000       -3.06887100000000       -0.12229400000000
H            4.99185000000000       -7.41803000000000       -0.54674300000000
H            2.65639000000000       -7.92310500000000       -0.40159200000000
H            8.94358400000000        0.72834000000000        0.48695600000000
H           -1.51664600000000       -8.83612900000000        0.16890000000000
H           10.02530300000000       -4.39973200000000       -0.05464800000000
H           -5.82125500000000       -9.69914200000000        0.43997100000000
H            6.76745600000000       -6.95188800000000       -1.08564600000000
H           -9.78645200000000        1.73407800000000       -0.06326400000000
H            9.78644100000000       -1.73407300000000        0.06311100000000
P            8.74021900000000       -2.06032300000000        0.96816200000000
P           -8.74019400000000        2.06032000000000       -0.96827500000000
132
 energy: -238.483124287029 gnorm: 0.020362455704 xtb: 6.7.1pre (5071a88)
C            1.22398875272338        7.76935107876881       -0.12073018162368
C           -2.95308136283899        6.86325602282714        0.32726210293555
C           -0.58607099711652        6.16241206976665        0.03992406733543
C           -7.10950809080513        5.96506573528647        0.73104110529907
C           -4.76369144359442        5.25736340203762        0.33140364641102
C           -2.43679816534022        4.50978173956691        0.10033596195876
C            4.10336244984839        8.37220616379785       -0.31386492820712
C           -0.11689863934834        7.48120060904605       -0.02780125510205
C            2.19446994117135        6.76206965163754       -0.13972200044539
C           -4.28939347834433        6.57249405449354        0.42457345539389
C           -1.99532384846377        5.85489231294969        0.15632219265106
C            0.36138988368399        5.11186244643365       -0.01292126194954
C           -8.92902881036663        4.53334298158473        0.17861003709073
C           -6.64112590101531        3.67559112736019        0.02042264270076
C           -4.28998254223136        2.86018434914868        0.00081978475482
C           -6.09689431678568        1.22422923130709       -0.23905769697161
C           -7.86947222767497       -0.45774922985985       -0.35937182338935
C           -8.46566971794023        5.75021668631066        0.66009307195235
C           -6.18194669029142        4.96760090420240        0.37681709901733
C           -3.83236380143012        4.21169947396146        0.14177732941092
C           -1.47742609279379        3.45488286640494        0.01881856357712
C           -8.04114640239921        3.51266361908227       -0.12605841152320
C           -5.68320177385797        2.57782947373822       -0.11423199307967
C           -3.32178235922243        1.81407212138924       -0.03588606220073
C           -7.47688801212445        0.84505539897322       -0.41493546602408
C           -5.13830389335551        0.16656007380285       -0.14059655023680
C           -6.94484477251424       -1.51969411467196       -0.17143797514330
C            5.47134521569279        8.64218952285048       -0.35772921076670
C            3.61460040615216        7.06884182469575       -0.21114196098407
C            5.94790227586149        6.27966293130043       -0.19615125313300
C            1.75509274821842        5.41312958257085       -0.07876464723376
C            4.10022367026787        4.64869372013596       -0.09117099921929
C            6.44275087358169        3.89606261565011       -0.02640807119718
C           -0.08306184005988        3.75447566259310        0.00063352734537
C            2.26522256556769        3.00565765367999       -0.02309579526228
C            4.60642787492986        2.24400509107360        0.03111413979241
C            6.94484389671512        1.51969507085790        0.17143945146354
C            6.38434788735546        7.62074250544607       -0.29414195621378
C            4.54554702157090        5.99620177747313       -0.16606257569678
C            6.86218091931528        5.22253351936638       -0.11875388253897
C            2.70340271050376        4.34909093442588       -0.06934442987536
C            5.04004454678374        3.59405932456290       -0.03068241054618
C            7.36287700031555        2.83517916746852        0.08729489465772
C           -1.91909501015825        2.11097026121844       -0.00665516817207
C            7.47689377748693       -0.84505863606859        0.41488089449253
C            0.11689548458359       -7.48119992640129        0.02783143309992
C            0.43430169237992        1.35154219075314       -0.00181278107443
C           -6.86218198772388       -5.22252811340205        0.11882856631218
C            2.78656681843819        0.59483398205888        0.03440686306639
C           -4.54554812679043       -5.99619756780057        0.16613114663191
C            5.13830573750838       -0.16656179761815        0.14057589186442
C           -2.19447128519103       -6.76206734856686        0.13977549551137
C           -3.74461753674489        0.46253103125782       -0.07003057574631
C            5.68320417590135       -2.57783204489585        0.11418513884140
C           -1.39084491641014       -0.29699693185149       -0.01048711417939
C            8.04114966040845       -3.51266417618836        0.12596795817287
C            0.96114360341443       -1.05511603018276        0.01154179413167
C           -6.38434872894557       -7.62073500400218        0.29425286351471
C            3.32178329157315       -1.81407304994309        0.03586580084075
C           -4.10336297367323       -8.37219982033671        0.31396511824281
C           -5.55280553400951       -1.19158676270273       -0.11507691118920
C            3.83236194181130       -4.21170134285563       -0.14180065647192
C           -3.21389282786834       -1.94474240507928       -0.01268115811279
C            6.18194192720957       -4.96760644432587       -0.37686434119519
C           -0.86743856093167       -2.70480029970657        0.01249393420075
C            8.46566112672653       -5.75022076231703       -0.66017929625757
C            1.47742537625884       -3.45488345759766       -0.01882330818557
C           -7.36287807271174       -2.83517634821298       -0.08726494638333
C            1.99531973286582       -5.85489298382205       -0.15632112065209
C           -5.04004565287539       -3.59405722868309        0.03071874561656
C            4.28938571443022       -6.57249764445158       -0.42459337330631
C           -2.70340365840971       -4.34908916165614        0.06937756762837
C           -0.36139171349771       -5.11186176028905        0.01294142331449
C            0.86743842844243        2.70480052548633       -0.01248703084580
C           -6.44275218072057       -3.89605873431659        0.02645626052011
C            2.95307439991725       -6.86325870491559       -0.32726741414078
C            3.21389266568580        1.94474298260276        0.01268948338004
C           -4.10022472273533       -4.64869081512873        0.09121731380327
C            5.55280548223005        1.19158657234607        0.11507478319030
C           -1.75509433075298       -5.41312783367054        0.07880103695708
C            7.86947359525327        0.45774814800781        0.35934308119958
C            0.58606812552767       -6.16241226407344       -0.03990656876652
C           -0.96114268523727        1.05511591160452       -0.01154817087339
C            1.39084543988212        0.29699682743742        0.01048236770142
C           -5.94790338847604       -6.27965721229141        0.19623669764322
C            3.74461855765887       -0.46253240200593        0.07001468114211
C           -3.61460152945016       -7.06883748849023        0.21121647982355
C            6.09689768507823       -1.22423156846563        0.23901543158530
C           -1.22399105293045       -7.76934917127678        0.12077833152875
C           -2.78656589227517       -0.59483456374319       -0.03441147399014
C            6.64112586888676       -3.67559374210467       -0.02048424773256
C           -0.43430132341673       -1.35154217767771        0.00181101054657
C            8.92902786246828       -4.53334325408076       -0.17871513747292
C            1.91909528820571       -2.11097099584250        0.00664444321614
C           -5.47134558958921       -8.64218128471188        0.35784769254159
C            4.28998313777532       -2.86018654501117       -0.00085030558892
C           -4.60642817790655       -2.24400420034802       -0.03109988147252
C            4.76368671186750       -5.25736754373226       -0.33143207221222
C           -2.26522273895102       -3.00565683150349        0.02311203414079
C            7.10949803385004       -5.96507295610610       -0.73109655051334
C            0.08306105949171       -3.75447564056400       -0.00062618819426
C            2.43679630236942       -4.50978326369651       -0.10034486395360
H            1.51465971209208        8.80863738676080       -0.16962567732487
H           -2.65488799482087        7.89832159745584        0.39787332804788
H           -6.76323779653364        6.92606040112809        1.07934239905755
H            3.42637489893589        9.21175751010855       -0.36467050581048
H           -0.80880527748936        8.31000956479947       -0.01965045244467
H           -4.97735554222403        7.39563743668843        0.54444377169614
H           -9.99383211781743        4.37776499554998        0.04663092646817
H           -8.91628700701552       -0.71495497481444       -0.48633375319539
H           -9.16122396414952        6.52945370833226        0.94572094947377
H            5.80668566846462        9.66901331016819       -0.43792536317666
H            7.44692790651012        7.82739087842100       -0.31931370037210
H            7.92312427561908        5.44311932993910       -0.12645979634027
H            8.42187926983667        3.06206358900708        0.12068578135258
H            0.80880157670065       -8.31000931774583        0.01967702680169
H           -7.92312570983591       -5.44311378343515        0.12654593250865
H           -7.44692859700223       -7.82738318923231        0.31943811857594
H           -3.42637568872464       -9.21175071604796        0.36477791401320
H            9.16121106001953       -6.52945807165822       -0.94581716492813
H           -8.42188080170045       -3.06206143695397       -0.12064941550216
H            4.97734413509587       -7.39564337375527       -0.54446959148281
H            2.65487879903161       -7.89832375810861       -0.39787281184375
H            8.91628934633347        0.71495327951666        0.48630020590382
H           -1.51466203252774       -8.80863521898281        0.16968269371169
H            9.99383356042125       -4.37776065202476       -0.04676039937901
H           -5.80668646992130       -9.66900374843041        0.43806381230069
H            6.76322456211709       -6.92607256869972       -1.07938007256291
H           -9.72662085409006        1.74211159848362       -0.04920508190082
H            9.72661132102159       -1.74210650002063        0.04905752907586
P            8.70704984574818       -2.05747318778337        0.97519111365945
P           -8.70702305164311        2.05746956777892       -0.97530109928676
132
 energy: -238.488223065104 gnorm: 0.007749919633 xtb: 6.7.1pre (5071a88)
C            1.22184996145219        7.74771171186559       -0.12070065583185
C           -2.94363466943915        6.84548169304137        0.32367097647731
C           -0.58399212455143        6.14522582750005        0.03974725446417
C           -7.08915034792970        5.94225546478987        0.73036069317898
C           -4.74854797646027        5.24240320466743        0.33112665165386
C           -2.42783749953215        4.49783867705620        0.09946680003951
C            4.09073032138389        8.34778575611313       -0.31174835141589
C           -0.11602724382233        7.46080059494959       -0.02766005386946
C            2.18950118873320        6.74188334395440       -0.13841842937306
C           -4.27692266824536        6.55508412323977        0.42288546891896
C           -1.98770927474647        5.83919837833826        0.15448856259104
C            0.36147334843013        5.09735959747695       -0.01234679165270
C           -8.89989834013141        4.51171775521694        0.17378416224690
C           -6.61353136578133        3.66208750130654        0.01916872823975
C           -4.27353293845277        2.85361205543543        0.00204054655430
C           -6.07364510450470        1.22293473955052       -0.23662960121628
C           -7.84296355649384       -0.45365262446867       -0.35895692187099
C           -8.44255753953025        5.72427785227085        0.66022768517894
C           -6.16057567835337        4.95096510290696        0.37860229607725
C           -3.81816587442118        4.20052892332913        0.14132657213041
C           -1.47113205008451        3.44632232875306        0.01896940404713
C           -8.00825908704074        3.49906433630281       -0.13142442991117
C           -5.66069913373149        2.57270941102439       -0.11268326163212
C           -3.30876203324727        1.80991321618173       -0.03379966313243
C           -7.44601076225831        0.84617077856938       -0.41494727207513
C           -5.12122862279510        0.16832772965302       -0.13439909414225
C           -6.92323836775931       -1.51211410205236       -0.16560798445395
C            5.45450350108072        8.61684731218726       -0.35562616195490
C            3.60331828804537        7.04726848881977       -0.20909021425783
C            5.92890086760607        6.26031913578702       -0.19415485043918
C            1.75056851982148        5.39723281796819       -0.07745466171949
C            4.08762188051555        4.63422540354144       -0.08974456877884
C            6.42275824098389        3.88246883285632       -0.02636638110362
C           -0.08192001366976        3.74462420548530        0.00017403193849
C            2.25842501968261        2.99556849844946       -0.02299737971100
C            4.59240511649234        2.23608111050345        0.02920614162146
C            6.92323784549292        1.51211511399227        0.16560881924123
C            6.36536505622433        7.59722902447218       -0.29193816084560
C            4.53160683925691        5.97803253056759       -0.16398241212386
C            6.84174166724746        5.20667784703964       -0.11764611897596
C            2.69573490999669        4.33614950868761       -0.06774029416392
C            5.02504560568233        3.58159042147201       -0.03013616299876
C            7.34117800661423        2.82606115506098        0.08417804491616
C           -1.91180199851502        2.10521818131079       -0.00688530443731
C            7.44601566742290       -0.84617428764969        0.41489349464108
C            0.11602431403803       -7.46080003561408        0.02769032914193
C            0.43334246481132        1.34770343044171       -0.00287922649091
C           -6.84174282400217       -5.20667225484240        0.11772004692816
C            2.77711033221034        0.59171625549249        0.03202018660098
C           -4.53160784937912       -5.97802825358303        0.16405042695281
C            5.12123043620358       -0.16832905678002        0.13437883513676
C           -2.18950260804646       -6.74188082111474        0.13847157450937
C           -3.73138341839875        0.46254166022024       -0.06746155440627
C            5.66070120758856       -2.57271157654767        0.11263676639589
C           -1.38649365201176       -0.29568342141283       -0.01141136018311
C            8.00826223563664       -3.49906596578092        0.13133458914434
C            0.95749535355061       -1.05282829598971        0.00994779538696
C           -6.36536572965696       -7.59722118367605        0.29204844147798
C            3.30876301172125       -1.80991409518562        0.03377997074850
C           -4.09073110235969       -8.34777932763261        0.31184811734730
C           -5.53593476856189       -1.18551557005008       -0.11055513335232
C            3.81816394647088       -4.20053068711884       -0.14134962173203
C           -3.20373800427353       -1.93829539986718       -0.01282369039658
C            6.16057035484507       -4.95096959365207       -0.37865049554224
C           -0.86578274568827       -2.69636409059424        0.01128157619910
C            8.44254776429464       -5.72428334365669       -0.66031419842972
C            1.47113149817027       -3.44632250917369       -0.01897380244860
C           -7.34117903206695       -2.82605836207914       -0.08414924583811
C            1.98770556447997       -5.83919935083122       -0.15448725697048
C           -5.02504658317454       -3.58158813323437        0.03017180234970
C            4.27691553307966       -6.55508752569160       -0.42290522282333
C           -2.69573573713090       -4.33614779107132        0.06777319969118
C           -0.36147499705905       -5.09735902657819        0.01236692666280
C            0.86578256884739        2.69636456779694       -0.01127465070388
C           -6.42275963809721       -3.88246500609570        0.02641364210354
C            2.94362839026888       -6.84548394776308       -0.32367606486339
C            3.20373787570403        1.93829578824134        0.01283176835959
C           -4.08762284395656       -4.63422254286898        0.08979027075563
C            5.53593484960258        1.18551540176556        0.11055276645563
C           -1.75056966452356       -5.39723120833033        0.07749070444915
C            7.84296542962214        0.45365131662454        0.35892786985896
C            0.58398936831825       -6.14522595379729       -0.03972985912088
C           -0.95749456007584        1.05282817707682       -0.00995405250662
C            1.38649455012780        0.29568334019515        0.01140673030505
C           -5.92890194636778       -6.26031297671075        0.19423955413461
C            3.73138459915118       -0.46254244118124        0.06744603594371
C           -3.60331926732573       -7.04726401753060        0.20916416438630
C            6.07364835125656       -1.22293731177719        0.23658773562611
C           -1.22185211658594       -7.74770985354555        0.12074874171159
C           -2.77710943085969       -0.59171645183228       -0.03202450951544
C            6.61353154161815       -3.66208989408322       -0.01923035242592
C           -0.43334178840255       -1.34770334724968        0.00287761812903
C            8.89989666922532       -4.51171947091031       -0.17388887586651
C            1.91180252150119       -2.10521858514961        0.00687494558885
C           -5.45450409789633       -8.61683898541565        0.35574421669888
C            4.27353329173723       -2.85361356123392       -0.00207061933988
C           -4.59240548123463       -2.23608018889835       -0.02919204463059
C            4.74854309386982       -5.24240672553961       -0.33115536784039
C           -2.25842526278992       -2.99556768230559        0.02301363139130
C            7.08913914365040       -5.94226243151085       -0.73041754738947
C            0.08191938733991       -3.74462403960289       -0.00016652372226
C            2.42783562049093       -4.49783968026360       -0.09947530342774
H            1.51327950578438        8.78455670314962       -0.17127452830810
H           -2.64626612446083        7.87901264011919        0.39141471819415
H           -6.74789465329776        6.90463639594781        1.07441197045881
H            3.41652331561583        9.18718422105034       -0.36233472263771
H           -0.80656289345899        8.28838175809882       -0.01865173574084
H           -4.96465449968965        7.37590710240254        0.54398329154055
H           -9.96104516920859        4.34882781119353        0.03727302669617
H           -8.88935233680315       -0.70277126342192       -0.48799812382956
H           -9.13943148501054        6.50005226414950        0.94292740785948
H            5.78954828142063        9.64135463684140       -0.43632660830905
H            7.42566989731850        7.80292835061296       -0.31717800861278
H            7.89999582532374        5.42792493652539       -0.12601847855683
H            8.39751813473361        3.05330633038378        0.11859218809110
H            0.80655927107240       -8.28838175440279        0.01867858719189
H           -7.89999683491604       -5.42791902174594        0.12610370320886