73
 energy: -124.622067555136 gnorm: 0.000232369575 xtb: 6.7.1pre (5071a88)
C           -3.67306512865025        4.85475356192533        0.05480046254121
C           -5.74502499386757        3.66926332078545        0.05500033168454
C           -0.76856555279126        4.86347160480879       -0.00626702980455
C           -5.06192030028967        4.85510753402379        0.06758069500617
C           -2.93410643455954        3.67267500807433        0.02943715541000
C           -5.04095521742141        2.44991518998289        0.03413900273284
C            4.90786137735915        4.89600575446219       -0.05360613572607
C            0.60195439342200        4.87441026075879       -0.02175613833048
C            0.71598768036117       -4.86263002474836        0.04809736211966
C            2.78459651447496        3.71321560313834       -0.03146688589545
C            4.90536196483879        2.48544190854964       -0.02721383924135
C           -3.57578954132243       -2.54076471903545       -0.02413740657472
C           -1.40646182545497       -3.71169274688165       -0.00129955628171
C           -1.49132997889508        3.67140977385141        0.00909082775084
C            0.63910657703761        2.46093299343532       -0.00968082317584
C            2.77487448709657        1.25168188334333       -0.01072027245348
C           -5.65272825262194       -3.91303899877535       -0.06542267580337
C            4.92288956806512        0.05269187583470       -0.00195274838594
C           -3.52671907459586       -4.97621150028047       -0.07362823152471
C           -3.61682060284415        2.43392148769533        0.02391447802577
C            4.96294548471733       -2.37871371863330        0.02258949509705
C           -1.48276286008440        1.20703660114327        0.00412801343786
C            0.65668620394036        0.00216146013536       -0.00122022420122
C            2.80361695143814       -1.19485576966082        0.00931085574653
C           -5.72492307787808        1.23833513192312        0.02210820552993
C            2.86880793577422       -3.65313105134818        0.03242856043437
C           -3.60030804163241       -0.03419612577349        0.00241346494089
C            5.01765144754583       -4.78831962988836        0.04506315122269
C           -1.47258883083078       -1.25076434027036       -0.00453725612162
C            0.69144994792323       -2.45016275424119        0.01209239802794
C            3.51748973045159        4.89852979956253       -0.04772973265746
C           -5.05622649179600        0.02255257985607        0.00469947398925
C            3.62763540208979       -4.82205998050288        0.04302780284046
C            5.59797371338919        3.71356202985767       -0.04266282082252
C           -2.90350481389705       -1.27581124423175       -0.00754998037005
C           -0.73300025122747       -2.46933612072368        0.00055552882917
C            1.42325238089553       -3.66303893650297        0.02969898011820
C            1.33951419947314        3.69214437332313       -0.02120474447939
C            3.47882771674436        2.48230596601909       -0.02292459250019
C           -5.02321570238216       -2.65897221273605       -0.03643526611770
C            5.59460553631829        1.27579870183222       -0.01573100343333
C           -2.84971659339308       -3.75561149855409       -0.03259453911393
C           -0.65351784254586       -4.88537281881107        0.03310559587079
C           -0.78330428736841        2.44691096381628        0.00186821904821
C            1.35168283373005        1.23360060365593       -0.00762288544558
C            3.49000418449644        0.03657740136468       -0.00116427429079
C           -4.90981812955455       -5.06288939261966       -0.08930774894485
C            5.62408463850216       -1.15341338805670        0.01046105354283
C           -2.90737962641151        1.19912237777732        0.00982089114080
C            5.68214995760979       -3.59140762706015        0.03536476689964
C           -0.77515388753686       -0.01631415281092       -0.00088297713138
C            1.38061033229818       -1.21015141704536        0.00620590367787
C            3.53668162045413       -2.40781786607718        0.02131630678035
H           -6.82485446681870        3.64526228188274        0.06216257827591
H            1.23594959858890       -5.80558707368843        0.07438148807803
H           -6.73196296172724       -3.94871803411382       -0.07230802205452
H           -2.97605833203258       -5.90053027568832       -0.09713626101970
H           -6.80532169412283        1.24265872643553        0.02581755179274
H            5.56853264169106       -5.71798743809025        0.05403352487255
H            3.15201483951017       -5.78874697864545        0.04913714407275
H           -1.13255395223042       -5.84939698261447        0.05231131498779
H           -5.38799603197671       -6.03052897412431       -0.11875648432608
H           -3.17545399091282        5.80982518979270        0.06641831511744
H           -1.27816806844688        5.81250574749535       -0.00793292770333
H           -5.59367651218501        5.79526549635259        0.08657337793955
H            5.43821256066617        5.83741412952997       -0.06636020904592
H            1.09943787131544        5.82987406666803       -0.03310676981799
H            3.01956946017438        5.85396686513756       -0.05642149136111
H            6.67806446855821        3.70002288454778       -0.04603440641588
H            6.67526750364285        1.28172915808846       -0.01766137890913
H            6.70448629036755       -1.13375900240498        0.01048372969439
H            6.76168490097267       -3.55444925654862        0.03676010003553
B           -5.56947156562854       -1.32657924567897       -0.01461536783123
