73
 energy: -124.612123881463 gnorm: 0.040711010011 xtb: 6.7.1pre (5071a88)
C           -3.70965100000000        4.88300900000000        0.05440000000000
C           -5.79955100000000        3.68792400000000        0.05387100000000
C           -0.77753200000000        4.89594500000000       -0.00566900000000
C           -5.11055400000000        4.88173500000000        0.06674300000000
C           -2.96262000000000        3.69607300000000        0.02891800000000
C           -5.09147100000000        2.46067900000000        0.03246000000000
C            4.94439000000000        4.93656800000000       -0.05402200000000
C            0.60210800000000        4.90631600000000       -0.01991200000000
C            0.71806900000000       -4.89614900000000        0.04118100000000
C            2.80959500000000        3.74477000000000       -0.03086800000000
C            4.95298900000000        2.50469600000000       -0.02708700000000
C           -3.60644300000000       -2.56059700000000       -0.02370700000000
C           -1.41680700000000       -3.74087100000000       -0.00206700000000
C           -1.50468400000000        3.69727200000000        0.00898600000000
C            0.64692400000000        2.47787700000000       -0.00872700000000
C            2.80368000000000        1.26223100000000       -0.00991800000000
C           -5.71772300000000       -3.93203600000000       -0.06447300000000
C            4.97561200000000        0.05274000000000       -0.00136300000000
C           -3.56937700000000       -5.00559100000000       -0.06707800000000
C           -3.65234500000000        2.44859800000000        0.02280600000000
C            5.01279400000000       -2.39632700000000        0.02350300000000
C           -1.49167600000000        1.21604200000000        0.00435300000000
C            0.66933300000000        0.00211500000000       -0.00036000000000
C            2.83196100000000       -1.20472400000000        0.00975800000000
C           -5.78289300000000        1.24231400000000        0.01980600000000
C            2.89531500000000       -3.68462600000000        0.03194400000000
C           -3.62569300000000       -0.02996600000000        0.00155200000000
C            5.05541500000000       -4.82806300000000        0.04628800000000
C           -1.48193500000000       -1.25927400000000       -0.00397100000000
C            0.70052300000000       -2.46702300000000        0.01161000000000
C            3.54115600000000        4.94135300000000       -0.04773400000000
C           -5.09528600000000        0.03608100000000        0.00315500000000
C            3.65270300000000       -4.86523500000000        0.04335200000000
C            5.64320500000000        3.74799000000000       -0.04315000000000
C           -2.91941900000000       -1.28163200000000       -0.00776800000000
C           -0.73666400000000       -2.48986500000000        0.00037000000000
C            1.43429100000000       -3.69119900000000        0.02767100000000
C            1.34961300000000        3.72041700000000       -0.01996100000000
C            3.51095900000000        2.50425500000000       -0.02239400000000
C           -5.06640100000000       -2.68455800000000       -0.03685700000000
C            5.64409100000000        1.28806800000000       -0.01555600000000
C           -2.87365200000000       -3.78406100000000       -0.03063000000000
C           -0.65957800000000       -4.92196000000000        0.02662900000000
C           -0.78767000000000        2.46610300000000        0.00240800000000
C            1.36744700000000        1.24256400000000       -0.00668200000000
C            3.52538100000000        0.03706100000000       -0.00049600000000
C           -4.96410700000000       -5.08831400000000       -0.08332400000000
C            5.67593500000000       -1.16374700000000        0.01140200000000
C           -2.92739600000000        1.21024500000000        0.00920100000000
C            5.72898200000000       -3.62497800000000        0.03671600000000
C           -0.77743300000000       -0.01400400000000       -0.00019400000000
C            1.39659600000000       -1.21825300000000        0.00667700000000
C            3.57026700000000       -2.42873200000000        0.02178500000000
H           -6.88548100000000        3.66634700000000        0.06152200000000
H            1.24151300000000       -5.84382100000000        0.06377200000000
H           -6.80160100000000       -3.96720300000000       -0.07333100000000
H           -3.01739800000000       -5.93600600000000       -0.08677200000000
H           -6.86805100000000        1.24417100000000        0.02276100000000
H            5.61023800000000       -5.76278500000000        0.05560900000000
H            3.16857000000000       -5.83392400000000        0.04886500000000
H           -1.14404800000000       -5.88941700000000        0.04203800000000
H           -5.44436500000000       -6.06118800000000       -0.11051400000000
H           -3.20736300000000        5.84206200000000        0.06706300000000
H           -1.28992600000000        5.84979700000000       -0.00833300000000
H           -5.64523700000000        5.82661900000000        0.08612800000000
H            5.47821500000000        5.88315000000000       -0.06715700000000
H            1.10110800000000        5.86735500000000       -0.03003100000000
H            3.03483600000000        5.89870600000000       -0.05660400000000
H            6.73013600000000        3.74162400000000       -0.04709700000000
H            6.73157700000000        1.29698700000000       -0.01778000000000
H            6.76321700000000       -1.14567000000000        0.01148000000000
H            6.81562600000000       -3.59561800000000        0.03845500000000
B           -5.53524100000000       -1.33134300000000       -0.01630600000000
73
 energy: -124.619947936714 gnorm: 0.017940902787 xtb: 6.7.1pre (5071a88)
C           -3.69436532069869        4.86544871147757        0.05408312502537
C           -5.77015670841241        3.67823153385980        0.05360002619559
C           -0.77299482373048        4.87434731879788       -0.00557574186158
C           -5.08656557246890        4.86534142915080        0.06654505353988
C           -2.94960398315134        3.68316636311034        0.02878537912824
C           -5.06371894133595        2.45704020111100        0.03251243630262
C            4.92583531571503        4.91164400197657       -0.05369574801123
C            0.60104669728331        4.88490143316323       -0.01997986128396
C            0.71624584431565       -4.87446182971131        0.04133990122570
C            2.79817620729451        3.72674524406256       -0.03049373286654
C            4.92759081178493        2.49431719618469       -0.02693112448686
C           -3.59026490187084       -2.55100524519449       -0.02374948424289
C           -1.41218697581317       -3.72368377899036       -0.00245457424033
C           -1.49901747876834        3.68148567553311        0.00918276702101
C            0.64348030710109        2.46807743021107       -0.00866941712176
C            2.78978592727388        1.25640925847441       -0.00985363354212
C           -5.68455714526015       -3.92440532997338       -0.06404339831131
C            4.94740108669505        0.05271830838649       -0.00138056379146
C           -3.55086583395462       -4.98790564463442       -0.06697007186231
C           -3.63387567178744        2.44095212119023        0.02284706921647
C            4.98610203388752       -2.38678338343302        0.02328661305966
C           -1.48629247736176        1.21090909409548        0.00438505828985
C            0.66330252768923        0.00200150355337       -0.00037284230215
C            2.81821206047959       -1.19944068210363        0.00967455726689
C           -5.75121630037077        1.24398245859086        0.01994471761947
C            2.88307020655811       -3.66657295595645        0.03162738391373
C           -3.61106357797824       -0.03103936267631        0.00159004803375
C            5.03628830515565       -4.80340987129234        0.04585554006180
C           -1.47776654699208       -1.25471730147616       -0.00404221115758
C            0.69599427055221       -2.45748638617439        0.01150581836830
C            3.53187562868431        4.91517428695503       -0.04732406603939
C           -5.07466303159955        0.03407189933281        0.00313528538474
C            3.64281384563849       -4.83869429921917        0.04290089124212
C            5.61824674199142        3.72899105054295       -0.04283171027853
C           -2.91151750391162       -1.27865713123373       -0.00775143293687
C           -0.73485918987908       -2.47836355892304        0.00032010735346
C            1.42944034850945       -3.67465306996682        0.02734837260318
C            1.34539884640058        3.70373049327476       -0.01983008075903
C            3.49471528345735        2.49207411471912       -0.02216940450565
C           -5.04489591850913       -2.67575812124566       -0.03672919697807
C            5.61619059781496        1.28182752583355       -0.01545508136644
C           -2.86193889457715       -3.76872900920044       -0.03065049596371
C           -0.65628375007022       -4.89887892657717        0.02673681338956
C           -0.78493504363253        2.45531348421656        0.00241565618610
C            1.36007652967923        1.23749606587467       -0.00665353271088
C            3.50717527428256        0.03673842660889       -0.00050555100567
C           -4.93705884778880       -5.07400889822055       -0.08335543107254
C            5.64673846579648       -1.15854570479021        0.01124514945820
C           -2.91604812865764        1.20493387727427        0.00924093468494
C            5.70314328879150       -3.60628264262014        0.03637729601014
C           -0.77612766605307       -0.01541525307200       -0.00020927169804
C            1.38900004309544       -1.21388932780174        0.00663122668567
C            3.55321067373954       -2.41713193024733        0.02150508887699
H           -6.85245399601986        3.65708750486652        0.06088445960377
H            1.23616339616905       -5.82017901444390        0.06369769039935
H           -6.76537512107666       -3.96034648071874       -0.07251213229807
H           -3.00356844142485       -5.91663126938171       -0.08614820444833
H           -6.83338786348231        1.24653726822954        0.02295672898631
H            5.58985632270530       -5.73465114063432        0.05530989789200
H            3.16726992611842       -5.80725881580285        0.04889828740504
H           -1.13803569481758       -5.86424291995944        0.04153575646239
H           -5.41683944925423       -6.04350455857517       -0.11012628287395
H           -3.19869013037930        5.82347922419592        0.06630011677256
H           -1.28252037303769        5.82598627699853       -0.00775936920736
H           -5.62109467180796        5.80640686668584        0.08566724535673
H            5.45848913184053        5.85478581284206       -0.06679980794292
H            1.09692777307783        5.84374988347926       -0.03027020246085
H            3.03378861685632        5.87243239332943       -0.05623505886116
H            6.70096674883733        3.72339357685233       -0.04671123897769
H            6.69992455456068        1.29053520854273       -0.01766364426043
H            6.73024243327096       -1.14090210986891        0.01141408312413
H            6.78553928995145       -3.57752973022815        0.03825415420449
B           -5.53782138712051       -1.32819983923676       -0.01629213462254
73
 energy: -124.621915510977 gnorm: 0.007559520650 xtb: 6.7.1pre (5071a88)
C           -3.67602937624589        4.85518596833136        0.05390525156326
C           -5.74737564154583        3.67119712830356        0.05352674619591
C           -0.76930627667187        4.86217176275935       -0.00540583704621
C           -5.06463649142989        4.85626025191422        0.06637476817221
C           -2.93650839060899        3.67373252176556        0.02891070276592
C           -5.04275167836436        2.45264480492066        0.03269022728977
C            4.90955629761664        4.89596409962107       -0.05343330551041
C            0.60166442268040        4.87297562186857       -0.02018612340038
C            0.71580719601982       -4.86175594932062        0.04178051088704
C            2.78669556002552        3.71381972957237       -0.03044152723253
C            4.90774617676192        2.48604763961174       -0.02678802332145
C           -3.57779925671936       -2.54257765427763       -0.02388540869240
C           -1.40745403263094       -3.71172462532326       -0.00249431243364
C           -1.49276773989707        3.67122998264311        0.00931229701652
C            0.63990749447155        2.46111657857772       -0.00872094592940
C            2.77715698892618        1.25196523188412       -0.00987061092805
C           -5.65780667816520       -3.91783201171809       -0.06385190857426
C            4.92538818289567        0.05270449397667       -0.00142003481096
C           -3.53014943457110       -4.97681599532798       -0.06731751785205
C           -3.61884551300105        2.43500918565690        0.02307199227194
C            4.96529067647158       -2.37919803733701        0.02306470773287
C           -1.48260986315238        1.20720214200125        0.00438185624588
C            0.65756321595418        0.00204829832191       -0.00048526932921
C            2.80582725303776       -1.19523690659229        0.00955775681762
C           -5.72807959090505        1.24225665166734        0.02020810015265
C            2.87076297063855       -3.65365797739695        0.03151278007042
C           -3.60099909881752       -0.03294357569169        0.00161289844380
C            5.01934936639219       -4.78810021493844        0.04558383326261
C           -1.47399606113078       -1.25103556778820       -0.00419522305718
C            0.69185333396833       -2.45036632490799        0.01147498236419
C            3.51945079273449        4.89853716554540       -0.04709198987062
C           -5.05968970795569        0.02861982700469        0.00319713148549
C            3.62961486180528       -4.82195495183789        0.04273447742496
C            5.59968607376460        3.71453269938637       -0.04257019118616
C           -2.90520787143986       -1.27619912445729       -0.00783990479795
C           -0.73337926906287       -2.46959874806054        0.00028988248824
C            1.42413912080638       -3.66321336173863        0.02742078400039
C            1.34070502945610        3.69236779139623       -0.01992900996998
C            3.48086862869318        2.48296200973255       -0.02210047727188
C           -5.02813589354969       -2.66598850813633       -0.03656948963445
C            5.59603205380290        1.27636666313974       -0.01537579513915
C           -2.85119001688918       -3.75666368666707       -0.03088979277828
C           -0.65396939161515       -4.88481206047202        0.02702474195129
C           -0.78308983956112        2.44740809629940        0.00238842517577
C            1.35291731718147        1.23372325620406       -0.00671206510479
C            3.49207887251277        0.03656351445948       -0.00056674100845
C           -4.91257244398574       -5.06563130305704       -0.08360891913717
C            5.62558072785235       -1.15389773670715        0.01109506225260
C           -2.90782521528653        1.20006751257471        0.00934181801737
C            5.68385620493187       -3.59217880096344        0.03607085832955
C           -0.77536007373167       -0.01634516916790       -0.00032448455453
C            1.38183880619954       -1.21039174366354        0.00651380817380
C            3.53871468286904       -2.40845810239169        0.02127807977301
H           -6.82737799491106        3.64846939166900        0.06051836353348
H            1.23573444017298       -5.80519483352431        0.06438591141146
H           -6.73707394887498       -3.95362078251017       -0.07187142709737
H           -2.98123953852964       -5.90254242778220       -0.08624445937530
H           -6.80848508028326        1.24566869112188        0.02334555124322
H            5.57126774772770       -5.71738453497539        0.05496581000996
H            3.15567235018581       -5.78948287492793        0.04897326390648
H           -1.13501663960346       -5.84825200166331        0.04176775781415
H           -5.39086123476653       -6.03349416992156       -0.11048936674658
H           -3.18025190544715        5.81124560429147        0.06549042664170
H           -1.27905596357120        5.81141700975397       -0.00706922338812
H           -5.59777128467575        5.79571452100906        0.08540052183156
H            5.44077149964700        5.83709939367902       -0.06653649467734
H            1.09829623853098        5.82923523972849       -0.03083433501993
H            3.02288870087467        5.85470830591798       -0.05582693391301
H            6.67993208279004        3.70559623830734       -0.04636245465715
H            6.67704595271619        1.28380629917261       -0.01756270056347
H            6.70634955240543       -1.13560732093432        0.01128804132602
H            6.76366591494609       -3.55991421363615        0.03794058773814
B           -5.54991035086934       -1.32647102597491       -0.01618341177146
73
 energy: -124.622022109140 gnorm: 0.004280554652 xtb: 6.7.1pre (5071a88)
C           -3.67180445203821        4.85473294699466        0.05402184944659
C           -5.74375004611229        3.67044765432123        0.05375653207796
C           -0.76840670534696        4.86229770883835       -0.00544729507536
C           -5.06044271474589        4.85592435550566        0.06653607111982
C           -2.93366152729161        3.67264339028924        0.02904066733752
C           -5.03988777676286        2.45138694732363        0.03296292201485
C            4.90690900936565        4.89492864494752       -0.05342665500696
C            0.60207703149851        4.87315506031589       -0.02048026720695
C            0.71595164929836       -4.86146714261098        0.04269592073488
C            2.78427348654821        3.71251088034486       -0.03060745622469
C            4.90460005704796        2.48495738769497       -0.02682139604099
C           -3.57592313304497       -2.54108610939058       -0.02396843666001
C           -1.40632380626696       -3.71081228474536       -0.00232384642486
C           -1.49111981079421        3.67073754913836        0.00933968631046
C            0.63898234214784        2.46045068767289       -0.00890226355916
C            2.77448178648593        1.25144705618418       -0.01001281289868
C           -5.65287526366665       -3.91633855730475       -0.06401686751937
C            4.92198494220667        0.05269676639061       -0.00149641601380
C           -3.52561815364173       -4.97614242605292       -0.06827335197890
C           -3.61635160097702        2.43417007579975        0.02327164112678
C            4.96203240207530       -2.37823520532317        0.02296203923312
C           -1.48248379368341        1.20687726057249        0.00432318859573
C            0.65626969622501        0.00213243439206       -0.00063252242356
C            2.80320502086616       -1.19463747586230        0.00949013442351
C           -5.72496264971551        1.24064246326548        0.02052613156855
C            2.86820150247109       -3.65234113684073        0.03164394462091
C           -3.60008695534565       -0.03365693204043        0.00169674557352
C            5.01649299240865       -4.78718912906990        0.04548735605360
C           -1.47326148242630       -1.25053468539005       -0.00428329508403
C            0.69100008794250       -2.44952774516198        0.01156656081434
C            3.51672510893858        4.89745037179009       -0.04714948394993
C           -5.05756212802700        0.02568131602974        0.00338029221266
C            3.62666184246991       -4.82089103845307        0.04280543882128
C            5.59701495977270        3.71276167811684       -0.04254540406594
C           -2.90414942286582       -1.27580106956483       -0.00785259417354
C           -0.73321280650034       -2.46857839033054        0.00032572229607
C            1.42284638974429       -3.66216396007091        0.02775627122573
C            1.33945009677673        3.69145136542599       -0.02017814277575
C            3.47827973017780        2.48183452011667       -0.02222343831022
C           -5.02504832647395       -2.66290757825182       -0.03654164145798
C            5.59347675328195        1.27550360227870       -0.01539772736862
C           -2.84923847621767       -3.75513463568901       -0.03115986752589
C           -0.65335513595151       -4.88427184638933        0.02790323322372
C           -0.78306935855428        2.44652806850199        0.00230287740030
C            1.35127418784659        1.23332249009595       -0.00688133970305
C            3.48933368681614        0.03658230795806       -0.00067041115916
C           -4.90804267923331       -5.06495115691215       -0.08442879618429
C            5.62287762486406       -1.15316190338981        0.01099058057322
C           -2.90699506216500        1.19916474116380        0.00943377989832
C            5.68104279397695       -3.59056433238052        0.03592298461498
C           -0.77547751778791       -0.01637833023410       -0.00045481855305
C            1.38022316289389       -1.20988016696856        0.00644117053469
C            3.53601846080493       -2.40735487255971        0.02124796188192
H           -6.82345363426224        3.64693428049047        0.06066765664362
H            1.23617351018602       -5.80435413029798        0.06579816412078
H           -6.73199035269721       -3.95225392273540       -0.07177919540239
H           -2.97522044669881       -5.90072077102983       -0.08796410806013
H           -6.80524493707015        1.24465466736232        0.02378224906472
H            5.56776225166468       -5.71647010271707        0.05482295876407
H            3.15178032726532       -5.78786887355106        0.04906727723241
H           -1.13346335970623       -5.84770809289658        0.04339422552277
H           -5.38556235418958       -6.03288627006182       -0.11158371536877
H           -3.17464424528324        5.80998555393298        0.06553964420824
H           -1.27824579328762        5.81112658452581       -0.00701331214913
H           -5.59255938216671        5.79572272954682        0.08544754312277
H            5.43760923970236        5.83598935523328       -0.06645708551393
H            1.09941209386372        5.82869876496048       -0.03130472902271
H            3.01933223179103        5.85308623362134       -0.05583888308172
H            6.67701555473406        3.70124621745550       -0.04623648755373
H            6.67409356456101        1.28208304519735       -0.01752747675518
H            6.70323968009183       -1.13417423965921        0.01116809297763
H            6.76053797204170       -3.55569953192199        0.03770630316474
B           -5.55804993985529       -1.32670411793757       -0.01599927830433
73
 energy: -124.622057049607 gnorm: 0.001766497205 xtb: 6.7.1pre (5071a88)
C           -3.67112913503293        4.85495610808760        0.05428401101079
C           -5.74334165148458        3.67008366789844        0.05411610938433
C           -0.76811529779531        4.86328500237142       -0.00564311002666
C           -5.05988672382638        4.85589043813106        0.06681954738511
C           -2.93303560673676        3.67255574465340        0.02920761010301
C           -5.03973059745883        2.45057457197565        0.03333986679666
C            4.90673032749614        4.89540661518598       -0.05345821134753
C            0.60221598490138        4.87417440200977       -0.02089099227224
C            0.71605899919931       -4.86222742821991        0.04423492277090
C            2.78375727273245        3.71265133362197       -0.03089171273063
C            4.90412484000061        2.48497397712571       -0.02692423281618
C           -3.57553012392373       -2.54064221878301       -0.02403607472004
C           -1.40606980799243       -3.71119743083321       -0.00201737202851
C           -1.49067275064399        3.67119791007900        0.00930001595026
C            0.63872135714053        2.46060076417175       -0.00916608674871
C            2.77384651344692        1.25147395170511       -0.01024571969085
C           -5.65148245274886       -3.91492547265422       -0.06434711412260
C            4.92151763354528        0.05269407374802       -0.00162900761848
C           -3.52481841976803       -4.97636379877141       -0.06990425274085
C           -3.61595578624369        2.43398180792848        0.02349978657755
C            4.96159254974854       -2.37828558358735        0.02284191214900
C           -1.48274557476951        1.20696222582650        0.00424363420149
C            0.65600095885391        0.00219025609610       -0.00083222868818
C            2.80259229301449       -1.19459395034647        0.00941452337251
C           -5.72437211250233        1.23925530277424        0.02100003998302
C            2.86774329724573       -3.65248362189587        0.03186826374877
C           -3.60019978834126       -0.03409557076040        0.00187854760481
C            5.01627811918970       -4.78772855819802        0.04538687830414
C           -1.47288691946623       -1.25054598471601       -0.00438289432595
C            0.69090590059707       -2.44963313943324        0.01171716308845
C            3.51641227507200        4.89794627793356       -0.04731860262892
C           -5.05677598452621        0.02342624179854        0.00372015217769
C            3.62631432211505       -4.82141353942383        0.04290795072134
C            5.59679116347334        3.71277889524319       -0.04255589653806
C           -2.90375721119372       -1.27573831246718       -0.00779261338645
C           -0.73316606854284       -2.46872724863163        0.00038884232401
C            1.42262181360307       -3.66238800718478        0.02830418630481
C            1.33909470802498        3.69170782946959       -0.02052475288488
C            3.47780510434442        2.48182837666942       -0.02244678941480
C           -5.02370034966383       -2.66058278137007       -0.03650620437047
C            5.59344032899014        1.27543410737324       -0.01547298087865
C           -2.84899210162463       -3.75509436070062       -0.03160925295448
C           -0.65314828607671       -4.88495663441593        0.02944125324361
C           -0.78325813697717        2.44658193710022        0.00215894553311
C            1.35092692139645        1.23339745254867       -0.00713387675820
C            3.48885994486489        0.03660380085509       -0.00083519242153
C           -4.90752266398458       -5.06438161455156       -0.08579419318605
C            5.62283079060332       -1.15310715913135        0.01083796449551
C           -2.90713801289854        1.19893912419572        0.00954908330346
C            5.68081549282994       -3.59067155276235        0.03575307690886
C           -0.77550349092099       -0.01633575709413       -0.00061439140035
C            1.37987923033850       -1.20986927706335        0.00635631474613
C            3.53555661130530       -2.40732598855238        0.02124966240389
H           -6.82301600755229        3.64611155143158        0.06106319142974
H            1.23621025296667       -5.80498314271653        0.06821590470728
H           -6.73061393941194       -3.95095985153158       -0.07182185917101
H           -2.97380803050115       -5.90042392928972       -0.09086506917931
H           -6.80470824532425        1.24373757474388        0.02440849916005
H            5.56713075772950       -5.71722525754955        0.05462092018927
H            3.15081864301608       -5.78808641782368        0.04915536657800
H           -1.13217007655301       -5.84878550854027        0.04614237032167
H           -5.38488043880338       -6.03234793784617       -0.11354931384531
H           -3.17327598536405        5.80983072139226        0.06585302479724
H           -1.27772350451157        5.81213067802125       -0.00719273793271
H           -5.59137284554509        5.79606862803376        0.08569822023578
H            5.43710574237629        5.83662421150033       -0.06639565296311
H            1.09980074267894        5.82945102221299       -0.03191457940652
H            3.01853792727167        5.85332396118440       -0.05599240276084
H            6.67677346613853        3.69934384634058       -0.04613263185867
H            6.67396510644475        1.28138273370238       -0.01751695596285
H            6.70309412663899       -1.13354691848857        0.01098200885303
H            6.76024117505253       -3.55387542255389        0.03739504280891
B           -5.56551056567661       -1.32690874725262       -0.01565485389360
73
 energy: -124.622065560796 gnorm: 0.000747848760 xtb: 6.7.1pre (5071a88)
C           -3.67258186192027        4.85497658386430        0.05466136103649
C           -5.74465883995154        3.66950526487548        0.05468532279451
C           -0.76838385271569        4.86382979355364       -0.00602975807134
C           -5.06143417653623        4.85541877458257        0.06731190306804
C           -2.93378304799218        3.67271513335817        0.02938572856824
C           -5.04078471832961        2.44996305573497        0.03386707017335
C            4.90770419397878        4.89610939785649       -0.05354601228891
C            0.60206214085045        4.87475881587012       -0.02147463136433
C            0.71602796345161       -4.86285240874689        0.04670852486924
C            2.78435910205449        3.71321375647187       -0.03129075547118
C            4.90506381366432        2.48541404004060       -0.02711033054317
C           -3.57575200114827       -2.54069270386123       -0.02410299270958
C           -1.40637066321438       -3.71177529669611       -0.00155006172676