      -----------------------------------------------------------      
     |                   =====================                   |     
     |                           x T B                           |     
     |                   =====================                   |     
     |                         S. Grimme                         |     
     |          Mulliken Center for Theoretical Chemistry        |     
     |                    University of Bonn                     |     
      -----------------------------------------------------------      

   * xtb version 6.7.1pre (5071a88) compiled by 'Marcel@Raven' on 2024-07-23

   xtb is free software: you can redistribute it and/or modify it under
   the terms of the GNU Lesser General Public License as published by
   the Free Software Foundation, either version 3 of the License, or
   (at your option) any later version.
   
   xtb is distributed in the hope that it will be useful,
   but WITHOUT ANY WARRANTY; without even the implied warranty of
   MERCHANTABILITY or FITNESS FOR A PARTICULAR PURPOSE.  See the
   GNU Lesser General Public License for more details.
   
   Cite this work as:
   * C. Bannwarth, E. Caldeweyher, S. Ehlert, A. Hansen, P. Pracht,
     J. Seibert, S. Spicher, S. Grimme, WIREs Comput. Mol. Sci., 2020, 11,
     e01493. DOI: 10.1002/wcms.1493
   
   for GFN2-xTB:
   * C. Bannwarth, S. Ehlert and S. Grimme., J. Chem. Theory Comput., 2019,
     15, 1652-1671. DOI: 10.1021/acs.jctc.8b01176
   for GFN1-xTB:
   * S. Grimme, C. Bannwarth, P. Shushkov, J. Chem. Theory Comput., 2017,
     13, 1989-2009. DOI: 10.1021/acs.jctc.7b00118
   for GFN0-xTB:
   * P. Pracht, E. Caldeweyher, S. Ehlert, S. Grimme, ChemRxiv, 2019, preprint.
     DOI: 10.26434/chemrxiv.8326202.v1
   for GFN-FF:
   * S. Spicher and S. Grimme, Angew. Chem. Int. Ed., 2020, 59, 15665-15673.
     DOI: 10.1002/anie.202004239
   
   for ALPB and GBSA implicit solvation:
   * S. Ehlert, M. Stahn, S. Spicher, S. Grimme, J. Chem. Theory Comput.,
     2021, 17, 4250-4261. DOI: 10.1021/acs.jctc.1c00471
   
   for ddCOSMO and CPCM-X implicit solvation:
   * M. Stahn, S. Ehlert, S. Grimme, J. Phys. Chem. A,
     2023, XX, XXXX-XXXX. DOI: 10.1021/acs.jpca.3c04382
   
   for DFT-D4:
   * E. Caldeweyher, C. Bannwarth and S. Grimme, J. Chem. Phys., 2017,
     147, 034112. DOI: 10.1063/1.4993215
   * E. Caldeweyher, S. Ehlert, A. Hansen, H. Neugebauer, S. Spicher,
     C. Bannwarth and S. Grimme, J. Chem. Phys., 2019, 150, 154122.
     DOI: 10.1063/1.5090222
   * E. Caldeweyher, J.-M. Mewes, S. Ehlert and S. Grimme, Phys. Chem. Chem. Phys.
     2020, 22, 8499-8512. DOI: 10.1039/D0CP00502A
   
   for sTDA-xTB:
   * S. Grimme and C. Bannwarth, J. Chem. Phys., 2016, 145, 054103.
     DOI: 10.1063/1.4959605
   
   in the mass-spec context:
   * V. Asgeirsson, C. Bauer and S. Grimme, Chem. Sci., 2017, 8, 4879.
     DOI: 10.1039/c7sc00601b
   * J. Koopman and S. Grimme, ACS Omega 2019, 4, 12, 15120-15133.
     DOI: 10.1021/acsomega.9b02011
   
   for metadynamics refer to:
   * S. Grimme, J. Chem. Theory Comput., 2019, 155, 2847-2862
     DOI: 10.1021/acs.jctc.9b00143
   
   for SPH calculations refer to:
   * S. Spicher and S. Grimme, J. Chem. Theory Comput., 2021, 17, 1701-1714
     DOI: 10.1021/acs.jctc.0c01306
   
   for ONIOM refer to:
   * C. Plett, A. Katbashev, S. Ehlert, S. Grimme, M. Bursch,
     Phys. Chem. Chem. Phys., 2023, 25, 17860-17868. DOI: 10.1039/D3CP02178E
   
   for DIPRO refer to:
   * J. Kohn, N. Gildemeister, S. Grimme, D. Fazzi, A. Hansen,
     J. Chem. Phys., 2023, just accepted.
   
   for PTB refer to:
   * S. Grimme, M. Mueller, A. Hansen, J. Chem. Phys., 2023, 158, 124111.
     DOI: 10.1063/5.0137838
   
   with help from (in alphabetical order)
   P. Atkinson, C. Bannwarth, F. Bohle, G. Brandenburg, E. Caldeweyher
   M. Checinski, S. Dohm, S. Ehlert, S. Ehrlich, I. Gerasimov, C. Hölzer
   A. Katbashev, J. Kohn, J. Koopman, C. Lavigne, S. Lehtola, F. März, M. Müller,
   F. Musil, H. Neugebauer, J. Pisarek, C. Plett, P. Pracht, F. Pultar,
   J. Seibert, P. Shushkov, S. Spicher, M. Stahn, M. Steiner, T. Strunk,
   J. Stückrath, T. Rose, and J. Unsleber
   
 * started run on 2025/12/08 at 00:48:06.240     
   ID    Z sym.   atoms
    1    6 C      1-165
    2    1 H      166-197
    3    8 O      198-202

           -------------------------------------------------
          |                Calculation Setup                |
           -------------------------------------------------

          program call               : xtb "C:\Users\LENOVO GAMING\Documents\GitHub\molecular-conductivity-sim\results\2nm-5Odoped-3percent\xtbopt.xyz" --sp
          coordinate file            : C:\Users\LENOVO GAMING\Documents\GitHub\molecular-conductivity-sim\results\2nm-5Odoped-3percent\xtbopt.xyz
          omp threads                :                    16


           -------------------------------------------------
          |                 G F N 2 - x T B                 |
           -------------------------------------------------

        Reference                      10.1021/acs.jctc.8b01176
      * Hamiltonian:
        H0-scaling (s, p, d)           1.850000    2.230000    2.230000
        zeta-weighting                 0.500000
      * Dispersion:
        s8                             2.700000
        a1                             0.520000
        a2                             5.000000
        s9                             5.000000
      * Repulsion:
        kExp                           1.500000    1.000000
        rExp                           1.000000
      * Coulomb:
        alpha                          2.000000
        third order                    shell-resolved
        anisotropic                    true
        a3                             3.000000
        a5                             4.000000
        cn-shift                       1.200000
        cn-exp                         4.000000
        max-rad                        5.000000

q/qsh data taken from xtbrestart
CAMM data taken from xtbrestart

          ...................................................
          :                      SETUP                      :
          :.................................................:
          :  # basis functions                 712          :
          :  # atomic orbitals                 712          :
          :  # shells                          372          :
          :  # electrons                       722          :
          :  max. iterations                   250          :
          :  Hamiltonian                  GFN2-xTB          :
          :  restarted?                       true          :
          :  GBSA solvation                  false          :
          :  PC potential                    false          :
          :  electronic temp.          300.0000000     K    :
          :  accuracy                    1.0000000          :
          :  -> integral cutoff          0.2500000E+02      :
          :  -> integral neglect         0.1000000E-07      :
          :  -> SCF convergence          0.1000000E-05 Eh   :
          :  -> wf. convergence          0.1000000E-03 e    :
          :  Broyden damping             0.4000000          :
          :  net charge                          0          :
          :  unpaired electrons                  0          :
          ...................................................

 iter      E             dE          RMSdq      gap      omega  full diag
   1   -398.8241804 -0.398824E+03  0.837E-06    0.13       0.0  T
   2   -398.8241804  0.137561E-10  0.874E-06    0.13     805.3  T
   3   -398.8241804  0.954969E-11  0.874E-06    0.13     805.2  T

   *** convergence criteria satisfied after 3 iterations ***

         #    Occupation            Energy/Eh            Energy/eV
      -------------------------------------------------------------
         1        2.0000           -0.7701225             -20.9561
       ...           ...                  ...                  ...
       355        2.0000           -0.3673479              -9.9960
       356        2.0000           -0.3659780              -9.9588
       357        2.0000           -0.3574000              -9.7253
       358        2.0000           -0.3545973              -9.6491
       359        2.0000           -0.3510548              -9.5527
       360        2.0000           -0.3417457              -9.2994
       361        1.8405           -0.3213387              -8.7441 (HOMO)
       362        0.1595           -0.3166912              -8.6176 (LUMO)
       363                         -0.2975653              -8.0972
       364                         -0.2934764              -7.9859
       365                         -0.2888176              -7.8591
       366                         -0.2779407              -7.5632
       ...                                ...                  ...
       712                          0.7918334              21.5469
      -------------------------------------------------------------
                  HL-Gap            0.0046474 Eh            0.1265 eV
             Fermi-level           -0.3190149 Eh           -8.6808 eV

 SCC (total)                   0 d,  0 h,  0 min,  0.681 sec
 SCC setup                      ...        0 min,  0.003 sec (  0.441%)
 Dispersion                     ...        0 min,  0.024 sec (  3.524%)
 classical contributions        ...        0 min,  0.000 sec (  0.000%)
 integral evaluation            ...        0 min,  0.053 sec (  7.783%)
 iterations                     ...        0 min,  0.411 sec ( 60.352%)
 molecular gradient             ...        0 min,  0.180 sec ( 26.432%)
 printout                       ...        0 min,  0.010 sec (  1.468%)

         :::::::::::::::::::::::::::::::::::::::::::::::::::::
         ::                     SUMMARY                     ::
         :::::::::::::::::::::::::::::::::::::::::::::::::::::
         :: total energy            -391.437662078116 Eh    ::
         :: gradient norm              0.000421345264 Eh/a0 ::
         :: HOMO-LUMO gap              0.126463474639 eV    ::
         ::.................................................::
         :: SCC energy              -398.841079684565 Eh    ::
         :: -> isotropic ES            0.051815616777 Eh    ::
         :: -> anisotropic ES          0.018455487155 Eh    ::
         :: -> anisotropic XC          0.108692956171 Eh    ::
         :: -> dispersion             -0.487703190658 Eh    ::
         :: repulsion energy           7.403417606449 Eh    ::
         :: add. restraining           0.000000000000 Eh    ::
         :: total charge              -0.000000000236 e     ::
         :::::::::::::::::::::::::::::::::::::::::::::::::::::

           -------------------------------------------------
          |                Property Printout                |
           -------------------------------------------------

    * Orbital Energies and Occupations

         #    Occupation            Energy/Eh            Energy/eV
      -------------------------------------------------------------
         1        2.0000           -0.7701225             -20.9561
       ...           ...                  ...                  ...
       349        2.0000           -0.3867687             -10.5245
       350        2.0000           -0.3864905             -10.5169
       351        2.0000           -0.3854861             -10.4896
       352        2.0000           -0.3818664             -10.3911
       353        2.0000           -0.3752826             -10.2120
       354        2.0000           -0.3695766             -10.0567
       355        2.0000           -0.3673479              -9.9960
       356        2.0000           -0.3659780              -9.9588
       357        2.0000           -0.3574000              -9.7253
       358        2.0000           -0.3545973              -9.6491
       359        2.0000           -0.3510548              -9.5527
       360        2.0000           -0.3417457              -9.2994
       361        1.8405           -0.3213387              -8.7441 (HOMO)
       362        0.1595           -0.3166912              -8.6176 (LUMO)
       363                         -0.2975653              -8.0972
       364                         -0.2934764              -7.9859
       365                         -0.2888176              -7.8591
       366                         -0.2779407              -7.5632
       367                         -0.2743896              -7.4665
       368                         -0.2738554              -7.4520
       369                         -0.2656485              -7.2287
       370                         -0.2636307              -7.1738
       371                         -0.2614710              -7.1150
       372                         -0.2580356              -7.0215
       ...                                ...                  ...
       712                          0.7918334              21.5469
      -------------------------------------------------------------
                  HL-Gap            0.0046474 Eh            0.1265 eV
             Fermi-level           -0.3190149 Eh           -8.6808 eV

     #   Z          covCN         q      C6AA      α(0)
     1   6 C        2.915    -0.059    29.468     8.902
     2   6 C        2.918    -0.030    28.740     8.791
     3   6 C        2.919    -0.046    29.132     8.851
     4   6 C        2.977     0.006    27.889     8.663
     5   6 C        2.878     0.140    24.943     8.187
     6   6 C        2.996    -0.017    28.412     8.744
     7   6 C        2.996     0.007    27.858     8.658
     8   6 C        2.914    -0.073    29.824     8.955
     9   6 C        2.869     0.136    25.021     8.199
    10   6 C        2.993    -0.015    28.365     8.736
    11   6 C        2.994    -0.001    28.036     8.686
    12   6 C        2.921    -0.048    29.196     8.861
    13   6 C        2.976     0.014    27.699     8.633
    14   6 C        2.996    -0.006    28.150     8.703
    15   6 C        2.992     0.003    27.937     8.670
    16   6 C        2.915    -0.071    29.768     8.947
    17   6 C        2.975     0.014    27.698     8.633
    18   6 C        2.996    -0.006    28.169     8.706
    19   6 C        2.994    -0.000    28.023     8.684
    20   6 C        2.866     0.138    24.981     8.193
    21   6 C        2.994    -0.017    28.414     8.744
    22   6 C        2.999     0.007    27.859     8.658
    23   6 C        2.917    -0.071    29.774     8.948
    24   6 C        2.867     0.137    25.002     8.196
    25   6 C        2.995    -0.016    28.393     8.741
    26   6 C        2.990    -0.000    28.028     8.684
    27   6 C        2.921    -0.038    28.948     8.823
    28   6 C        2.983     0.013    27.711     8.635
    29   6 C        2.996    -0.003    28.094     8.695
    30   6 C        2.975     0.007    27.855     8.657
    31   6 C        2.913    -0.030    28.738     8.791
    32   6 C        2.921    -0.039    28.961     8.825
    33   6 C        2.977     0.003    27.954     8.673
    34   6 C        2.918    -0.036    28.885     8.813
    35   6 C        2.918    -0.038    28.944     8.822
    36   6 C        2.978     0.006    27.892     8.663
    37   6 C        2.990    -0.004    28.116     8.698
    38   6 C        2.990     0.002    27.964     8.674
    39   6 C        2.990    -0.001    28.040     8.686
    40   6 C        2.985     0.001    27.998     8.680
    41   6 C        2.992    -0.001    28.037     8.686
    42   6 C        2.991     0.001    28.006     8.681
    43   6 C        2.989     0.001    28.000     8.680
    44   6 C        2.990     0.000    28.016     8.682
    45   6 C        2.991     0.001    28.002     8.680
    46   6 C        2.992     0.000    28.008     8.681
    47   6 C        2.990    -0.001    28.042     8.687
    48   6 C        2.991     0.000    28.019     8.683
    49   6 C        2.993    -0.000    28.024     8.684
    50   6 C        2.993     0.001    28.004     8.681
    51   6 C        2.991    -0.001    28.036     8.686
    52   6 C        2.991     0.000    28.017     8.683
    53   6 C        2.994    -0.004    28.108     8.697
    54   6 C        2.993     0.001    27.997     8.680
    55   6 C        2.991    -0.000    28.021     8.683
    56   6 C        2.989     0.000    28.013     8.682
    57   6 C        2.988    -0.000    28.028     8.684
    58   6 C        2.990     0.000    28.013     8.682
    59   6 C        2.989    -0.000    28.028     8.684
    60   6 C        2.986     0.000    28.018     8.683
    61   6 C        2.976     0.005    27.908     8.665
    62   6 C        2.990     0.002    27.978     8.677
    63   6 C        2.990     0.001    27.991     8.679
    64   6 C        2.978     0.005    27.912     8.666
    65   6 C        2.918    -0.036    28.894     8.815
    66   6 C        2.918    -0.037    28.915     8.818
    67   6 C        2.978    -0.002    28.065     8.690
    68   6 C        2.918    -0.034    28.838     8.806
    69   6 C        2.920    -0.044    29.101     8.846
    70   6 C        2.976    -0.005    28.137     8.701
    71   6 C        2.987    -0.001    28.050     8.688
    72   6 C        2.989     0.003    27.949     8.672
    73   6 C        2.991    -0.013    28.326     8.730
    74   6 C        2.982    -0.008    28.216     8.713
    75   6 C        2.989    -0.000    28.030     8.685
    76   6 C        2.986     0.000    28.020     8.683
    77   6 C        2.991    -0.000    28.020     8.683
    78   6 C        2.989    -0.002    28.070     8.691
    79   6 C        2.991     0.001    28.007     8.681
    80   6 C        2.990    -0.000    28.021     8.683
    81   6 C        2.991    -0.001    28.041     8.686
    82   6 C        2.991     0.000    28.014     8.682
    83   6 C        2.991    -0.001    28.033     8.685
    84   6 C        2.991     0.000    28.008     8.681
    85   6 C        2.991     0.000    28.015     8.682
    86   6 C        2.991    -0.000    28.030     8.685
    87   6 C        2.989    -0.000    28.028     8.684
    88   6 C        2.990     0.000    28.016     8.682
    89   6 C        2.990     0.000    28.010     8.682
    90   6 C        2.989    -0.000    28.028     8.684
    91   6 C        2.986     0.000    28.021     8.683
    92   6 C        2.987    -0.000    28.028     8.684
    93   6 C        2.987    -0.000    28.028     8.684
    94   6 C        2.986    -0.000    28.025     8.684
    95   6 C        2.978     0.005    27.912     8.666
    96   6 C        2.989     0.001    27.986     8.678
    97   6 C        2.989     0.001    27.986     8.678
    98   6 C        2.978     0.005    27.914     8.666
    99   6 C        2.919    -0.037    28.910     8.817
   100   6 C        2.919    -0.036    28.908     8.817
   101   6 C        2.831     0.056    26.728     8.472
   102   6 C        2.910    -0.045    29.124     8.849
   103   6 C        2.913    -0.072    29.805     8.952
   104   6 C        2.975     0.002    27.972     8.675
   105   6 C        2.848     0.078    26.245     8.396
   106   6 C        2.845     0.070    26.417     8.423
   107   6 C        2.982    -0.009    28.242     8.717
   108   6 C        2.993    -0.000    28.028     8.684
   109   6 C        2.983    -0.008    28.215     8.713
   110   6 C        2.991    -0.014    28.349     8.734
   111   6 C        2.994    -0.002    28.067     8.690
   112   6 C        2.992     0.000    28.008     8.681
   113   6 C        2.991    -0.000    28.026     8.684
   114   6 C        2.994    -0.001    28.041     8.686
   115   6 C        2.993     0.001    28.003     8.680
   116   6 C        2.992    -0.000    28.025     8.684
   117   6 C        2.991    -0.001    28.034     8.685
   118   6 C        2.994     0.002    27.982     8.677
   119   6 C        2.993    -0.000    28.025     8.684
   120   6 C        2.989     0.000    28.010     8.682
   121   6 C        2.991    -0.000    28.030     8.685
   122   6 C        2.994     0.001    27.988     8.678
   123   6 C        2.994    -0.004    28.110     8.697
   124   6 C        2.986     0.000    28.015     8.682
   125   6 C        2.989    -0.000    28.029     8.685
   126   6 C        2.991     0.000    28.014     8.682
   127   6 C        2.989    -0.001    28.038     8.686
   128   6 C        2.978     0.005    27.912     8.666
   129   6 C        2.989     0.001    27.991     8.679
   130   6 C        2.990     0.002    27.977     8.676
   131   6 C        2.976     0.005    27.912     8.666
   132   6 C        2.918    -0.037    28.918     8.818
   133   6 C        2.918    -0.036    28.893     8.815
   134   6 C        2.981     0.005    27.900     8.664
   135   6 C        2.921    -0.038    28.947     8.823
   136   6 C        2.914    -0.029    28.736     8.790
   137   6 C        2.920    -0.038    28.951     8.823
   138   6 C        2.996    -0.005    28.141     8.702
   139   6 C        2.997    -0.005    28.137     8.701
   140   6 C        2.983     0.015    27.679     8.630
   141   6 C        2.916    -0.072    29.798     8.951
   142   6 C        3.001     0.002    27.960     8.674
   143   6 C        2.996    -0.013    28.334     8.732
   144   6 C        2.867     0.138    24.991     8.194
   145   6 C        2.996    -0.001    28.051     8.688
   146   6 C        2.994    -0.018    28.450     8.749
   147   6 C        2.866     0.139    24.973     8.191
   148   6 C        2.915    -0.070    29.740     8.943
   149   6 C        2.996     0.001    28.006     8.681
   150   6 C        2.998    -0.011    28.271     8.722
   151   6 C        2.978     0.015    27.678     8.630
   152   6 C        2.915    -0.070    29.748     8.944
   153   6 C        3.000     0.007    27.843     8.656
   154   6 C        2.994    -0.018    28.455     8.750
   155   6 C        2.867     0.139    24.962     8.190
   156   6 C        2.990    -0.000    28.026     8.684
   157   6 C        2.996    -0.016    28.388     8.740
   158   6 C        2.867     0.137    25.016     8.199
   159   6 C        2.917    -0.071    29.782     8.949
   160   6 C        2.975     0.007    27.856     8.657
   161   6 C        2.996    -0.003    28.089     8.694
   162   6 C        2.983     0.013    27.710     8.635
   163   6 C        2.921    -0.038    28.956     8.824
   164   6 C        2.921    -0.039    28.967     8.826
   165   6 C        2.913    -0.030    28.738     8.791
   166   1 H        0.926     0.048     2.339     2.391
   167   1 H        0.926     0.039     2.458     2.452
   168   1 H        0.926     0.038     2.480     2.463
   169   1 H        0.926     0.046     2.365     2.405
   170   1 H        0.926     0.036     2.503     2.474
   171   1 H        0.926     0.047     2.356     2.400
   172   1 H        0.926     0.047     2.362     2.403
   173   1 H        0.926     0.033     2.539     2.492
   174   1 H        0.926     0.034     2.536     2.490
   175   1 H        0.926     0.033     2.545     2.495
   176   1 H        0.926     0.036     2.509     2.477
   177   1 H        0.926     0.031     2.577     2.510
   178   1 H        0.926     0.050     2.321     2.383
   179   1 H        0.926     0.032     2.564     2.504
   180   1 H        0.926     0.038     2.482     2.464
   181   1 H        0.926     0.034     2.529     2.487
   182   1 H        0.926     0.036     2.502     2.473
   183   1 H        0.926     0.049     2.332     2.388
   184   1 H        0.926     0.050     2.323     2.383
   185   1 H        0.926     0.050     2.325     2.384
   186   1 H        0.926     0.047     2.363     2.404
   187   1 H        0.926     0.033     2.541     2.493
   188   1 H        0.926     0.031     2.573     2.508
   189   1 H        0.926     0.031     2.572     2.508
   190   1 H        0.926     0.032     2.554     2.499
   191   1 H        0.926     0.034     2.531     2.488
   192   1 H        0.926     0.034     2.536     2.490
   193   1 H        0.926     0.034     2.536     2.491
   194   1 H        0.926     0.034     2.536     2.490
   195   1 H        0.926     0.034     2.537     2.491
   196   1 H        0.926     0.034     2.531     2.488
   197   1 H        0.926     0.032     2.555     2.500
   198   8 O        1.709    -0.234    17.873     5.708
   199   8 O        1.709    -0.232    17.838     5.702
   200   8 O        1.709    -0.230    17.820     5.700
   201   8 O        2.519    -0.053    15.149     5.257
   202   8 O        1.710    -0.230    17.810     5.698

 Mol. C6AA /au·bohr⁶  :     892895.887021
 Mol. C8AA /au·bohr⁸  :   24680559.190031
 Mol. α(0) /au        :       1540.572124


Wiberg/Mayer (AO) data.
largest (>0.10) Wiberg bond orders for each atom

 ---------------------------------------------------------------------------
     #   Z sym  total        # sym  WBO       # sym  WBO       # sym  WBO
 ---------------------------------------------------------------------------
     1   6 C    3.964 --     5 C    1.400     2 C    1.398   166 H    0.968
     2   6 C    3.975 --     3 C    1.478     1 C    1.398   167 H    0.970
     3   6 C    3.968 --     2 C    1.478     4 C    1.341   168 H    0.963
     4   6 C    3.972 --     3 C    1.341     6 C    1.288    33 C    1.147
     5   6 C    3.920 --     1 C    1.400     6 C    1.276   202 O    1.055
     6   6 C    3.976 --     4 C    1.288     5 C    1.276     7 C    1.178
     7   6 C    3.953 --    37 C    1.290    10 C    1.269     6 C    1.178
     8   6 C    3.937 --     9 C    1.508    13 C    1.232   169 H    0.966
     9   6 C    3.910 --     8 C    1.508    10 C    1.190   202 O    1.044
    10   6 C    3.948 --     7 C    1.269    11 C    1.267     9 C    1.190
    11   6 C    3.974 --    10 C    1.267    14 C    1.251    41 C    1.236
    12   6 C    3.893 --    13 C    1.368    17 C    1.347   170 H    0.967
    13   6 C    3.975 --    12 C    1.368     8 C    1.232    14 C    1.214
    14   6 C    3.959 --    15 C    1.272    11 C    1.251    13 C    1.214
    15   6 C    3.979 --    14 C    1.272    18 C    1.268    45 C    1.216
    16   6 C    3.927 --    20 C    1.489    17 C    1.246   171 H    0.966
    17   6 C    3.974 --    12 C    1.347    16 C    1.246    18 C    1.220
    18   6 C    3.961 --    15 C    1.268    19 C    1.250    17 C    1.220
    19   6 C    3.974 --    21 C    1.284    18 C    1.250    49 C    1.221
    20   6 C    3.912 --    16 C    1.489    21 C    1.207   198 O    1.048
    21   6 C    3.936 --    19 C    1.284    22 C    1.229    20 C    1.207
    22   6 C    3.953 --    53 C    1.273    25 C    1.238    21 C    1.229
    23   6 C    3.941 --    24 C    1.500    28 C    1.242   172 H    0.966
    24   6 C    3.923 --    23 C    1.500    25 C    1.200   198 O    1.045
    25   6 C    3.949 --    26 C    1.288    22 C    1.238    24 C    1.200
    26   6 C    3.975 --    25 C    1.288    29 C    1.238    57 C    1.226
    27   6 C    3.943 --    31 C    1.476    28 C    1.320   173 H    0.969
    28   6 C    3.983 --    27 C    1.320    29 C    1.249    23 C    1.242
    29   6 C    3.980 --    30 C    1.263    28 C    1.249    26 C    1.238
    30   6 C    3.981 --    32 C    1.389    29 C    1.263    61 C    1.133
    31   6 C    3.982 --    27 C    1.476    32 C    1.408   189 H    0.971
    32   6 C    3.942 --    31 C    1.408    30 C    1.389   190 H    0.963
    33   6 C    3.953 --    34 C    1.320    38 C    1.289     4 C    1.147
    34   6 C    3.964 --    35 C    1.516    33 C    1.320   174 H    0.962
    35   6 C    3.954 --    34 C    1.516    36 C    1.311   175 H    0.961
    36   6 C    3.957 --    35 C    1.311    39 C    1.280    67 C    1.172
    37   6 C    3.967 --     7 C    1.290    42 C    1.247    38 C    1.206
    38   6 C    3.980 --    33 C    1.289    39 C    1.260    37 C    1.206
    39   6 C    3.967 --    36 C    1.280    38 C    1.260    40 C    1.209
    40   6 C    3.955 --    71 C    1.268    43 C    1.265    39 C    1.209
    41   6 C    3.965 --    42 C    1.274    11 C    1.236    46 C    1.233
    42   6 C    3.966 --    41 C    1.274    37 C    1.247    43 C    1.223
    43   6 C    3.956 --    40 C    1.265    44 C    1.256    42 C    1.223
    44   6 C    3.965 --    43 C    1.256    75 C    1.254    47 C    1.237
    45   6 C    3.949 --    46 C    1.270    50 C    1.253    15 C    1.216
    46   6 C    3.964 --    45 C    1.270    47 C    1.244    41 C    1.233
    47   6 C    3.955 --    48 C    1.260    46 C    1.244    44 C    1.237
    48   6 C    3.961 --    47 C    1.260    51 C    1.251    79 C    1.235
    49   6 C    3.956 --    54 C    1.273    50 C    1.246    19 C    1.221
    50   6 C    3.965 --    45 C    1.253    51 C    1.250    49 C    1.246
    51   6 C    3.959 --    48 C    1.251    50 C    1.250    52 C    1.242
    52   6 C    3.961 --    55 C    1.267    51 C    1.242    83 C    1.237
    53   6 C    3.966 --    22 C    1.273    58 C    1.237    54 C    1.235
    54   6 C    3.966 --    49 C    1.273    55 C    1.238    53 C    1.235
    55   6 C    3.952 --    52 C    1.267    54 C    1.238    56 C    1.236
    56   6 C    3.960 --    87 C    1.257    59 C    1.253    55 C    1.236
    57   6 C    3.952 --    58 C    1.293    26 C    1.226    62 C    1.219
    58   6 C    3.969 --    57 C    1.293    53 C    1.237    59 C    1.217
    59   6 C    3.957 --    60 C    1.274    56 C    1.253    58 C    1.217
    60   6 C    3.961 --    59 C    1.274    91 C    1.249    63 C    1.220
    61   6 C    3.951 --    65 C    1.341    62 C    1.285    30 C    1.133
    62   6 C    3.981 --    61 C    1.285    63 C    1.252    57 C    1.219
    63   6 C    3.977 --    64 C    1.281    62 C    1.252    60 C    1.220
    64   6 C    3.964 --    66 C    1.332    63 C    1.281    95 C    1.152
    65   6 C    3.969 --    66 C    1.493    61 C    1.341   191 H    0.962
    66   6 C    3.955 --    65 C    1.493    64 C    1.332   192 H    0.961
    67   6 C    3.933 --    68 C    1.309    72 C    1.258    36 C    1.172
    68   6 C    3.956 --    69 C    1.527    67 C    1.309   176 H    0.960
    69   6 C    3.950 --    68 C    1.527    70 C    1.277   177 H    0.962
    70   6 C    3.952 --    69 C    1.277    73 C    1.239   101 C    1.237
    71   6 C    3.952 --    40 C    1.268    76 C    1.264    72 C    1.205
    72   6 C    3.978 --    73 C    1.294    67 C    1.258    71 C    1.205
    73   6 C    3.945 --    72 C    1.294    70 C    1.239    74 C    1.166
    74   6 C    3.954 --   105 C    1.332    77 C    1.246    73 C    1.166
    75   6 C    3.960 --    76 C    1.257    44 C    1.254    80 C    1.233
    76   6 C    3.957 --    71 C    1.264    75 C    1.257    77 C    1.223
    77   6 C    3.957 --    78 C    1.263    74 C    1.246    76 C    1.223
    78   6 C    3.974 --   108 C    1.269    77 C    1.263    81 C    1.223
    79   6 C    3.956 --    80 C    1.261    84 C    1.247    48 C    1.235
    80   6 C    3.959 --    79 C    1.261    81 C    1.251    75 C    1.233
    81   6 C    3.955 --    82 C    1.266    80 C    1.251    78 C    1.223
    82   6 C    3.959 --    81 C    1.266    85 C    1.245   112 C    1.233
    83   6 C    3.957 --    88 C    1.263    84 C    1.243    52 C    1.237
    84   6 C    3.962 --    85 C    1.256    79 C    1.247    83 C    1.243
    85   6 C    3.960 --    84 C    1.256    82 C    1.245    86 C    1.244
    86   6 C    3.957 --    89 C    1.264    85 C    1.244   116 C    1.236
    87   6 C    3.961 --    56 C    1.257    92 C    1.251    88 C    1.238
    88   6 C    3.957 --    83 C    1.263    89 C    1.243    87 C    1.238
    89   6 C    3.956 --    86 C    1.264    88 C    1.243    90 C    1.237
    90   6 C    3.962 --   120 C    1.258    93 C    1.252    89 C    1.237
    91   6 C    3.956 --    92 C    1.273    60 C    1.249    96 C    1.219
    92   6 C    3.960 --    91 C    1.273    87 C    1.251    93 C    1.220
    93   6 C    3.960 --    94 C    1.272    90 C    1.252    92 C    1.220
    94   6 C    3.957 --    93 C    1.272   124 C    1.250    97 C    1.219
    95   6 C    3.957 --    99 C    1.326    96 C    1.283    64 C    1.152
    96   6 C    3.978 --    95 C    1.283    97 C    1.252    91 C    1.219
    97   6 C    3.978 --    98 C    1.283    96 C    1.252    94 C    1.219
    98   6 C    3.957 --   100 C    1.326    97 C    1.283   128 C    1.153
    99   6 C    3.961 --   100 C    1.505    95 C    1.326   193 H    0.961
   100   6 C    3.960 --    99 C    1.505    98 C    1.326   194 H    0.961
   101   6 C    3.718 --   102 C    1.434    70 C    1.237   201 O    0.811
   102   6 C    3.954 --   101 C    1.434   103 C    1.408   178 H    0.951
   103   6 C    3.864 --   102 C    1.408   104 C    1.280   179 H    0.963
   104   6 C    3.948 --   106 C    1.354   103 C    1.280   134 C    1.123
   105   6 C    3.795 --   109 C    1.351    74 C    1.332   201 O    0.856
   106   6 C    3.771 --   104 C    1.354   107 C    1.319   201 O    0.829
   107   6 C    3.955 --   106 C    1.319   110 C    1.230   138 C    1.192
   108   6 C    3.958 --    78 C    1.269   113 C    1.234   109 C    1.230
   109   6 C    3.956 --   105 C    1.351   108 C    1.230   110 C    1.167
   110   6 C    3.931 --   111 C    1.290   107 C    1.230   109 C    1.167
   111   6 C    3.973 --   110 C    1.290   142 C    1.249   114 C    1.212
   112   6 C    3.958 --   113 C    1.263   117 C    1.248    82 C    1.233
   113   6 C    3.954 --   112 C    1.263   114 C    1.245   108 C    1.234
   114   6 C    3.956 --   115 C    1.282   113 C    1.245   111 C    1.212
   115   6 C    3.954 --   114 C    1.282   118 C    1.246   145 C    1.213
   116   6 C    3.960 --   121 C    1.268   117 C    1.242    86 C    1.236
   117   6 C    3.963 --   118 C    1.255   112 C    1.248   116 C    1.242
   118   6 C    3.962 --   117 C    1.255   119 C    1.247   115 C    1.246
   119   6 C    3.955 --   122 C    1.275   118 C    1.247   149 C    1.219
   120   6 C    3.960 --    90 C    1.258   125 C    1.254   121 C    1.234
   121   6 C    3.954 --   116 C    1.268   122 C    1.241   120 C    1.234
   122   6 C    3.962 --   119 C    1.275   121 C    1.241   123 C    1.230
   123   6 C    3.969 --   153 C    1.278   126 C    1.238   122 C    1.230
   124   6 C    3.960 --   125 C    1.274    94 C    1.250   129 C    1.219
   125   6 C    3.957 --   124 C    1.274   120 C    1.254   126 C    1.216
   126   6 C    3.969 --   127 C    1.293   123 C    1.238   125 C    1.216
   127   6 C    3.956 --   126 C    1.293   156 C    1.229   130 C    1.216
   128   6 C    3.964 --   132 C    1.331   129 C    1.282    98 C    1.153
   129   6 C    3.978 --   128 C    1.282   130 C    1.253   124 C    1.219
   130   6 C    3.981 --   131 C    1.287   129 C    1.253   127 C    1.216
   131   6 C    3.953 --   133 C    1.339   130 C    1.287   160 C    1.134
   132   6 C    3.956 --   133 C    1.495   128 C    1.331   195 H    0.961
   133   6 C    3.969 --   132 C    1.495   131 C    1.339   196 H    0.962
   134   6 C    3.977 --   135 C    1.386   139 C    1.262   104 C    1.123
   135   6 C    3.939 --   136 C    1.412   134 C    1.386   180 H    0.963
   136   6 C    3.979 --   137 C    1.469   135 C    1.412   181 H    0.970
   137   6 C    3.943 --   136 C    1.469   140 C    1.327   182 H    0.969
   138   6 C    3.966 --   143 C    1.287   139 C    1.253   107 C    1.192
   139   6 C    3.983 --   134 C    1.262   138 C    1.253   140 C    1.242
   140   6 C    3.982 --   137 C    1.327   139 C    1.242   141 C    1.240
   141   6 C    3.944 --   144 C    1.504   140 C    1.240   183 H    0.965
   142   6 C    3.929 --   111 C    1.249   143 C    1.248   146 C    1.224
   143   6 C    3.950 --   138 C    1.287   142 C    1.248   144 C    1.194
   144   6 C    3.923 --   141 C    1.504   143 C    1.194   200 O    1.047
   145   6 C    3.960 --   146 C    1.281   150 C    1.254   115 C    1.213
   146   6 C    3.947 --   145 C    1.281   142 C    1.224   147 C    1.221
   147   6 C    3.906 --   148 C    1.466   146 C    1.221   200 O    1.049
   148   6 C    3.938 --   147 C    1.466   151 C    1.275   184 H    0.966
   149   6 C    3.973 --   154 C    1.286   150 C    1.248   119 C    1.219
   150   6 C    3.969 --   145 C    1.254   149 C    1.248   151 C    1.243
   151   6 C    3.965 --   152 C    1.283   148 C    1.275   150 C    1.243
   152   6 C    3.939 --   155 C    1.457   151 C    1.283   185 H    0.966
   153   6 C    3.953 --   123 C    1.278   157 C    1.247   154 C    1.213
   154   6 C    3.948 --   149 C    1.286   155 C    1.225   153 C    1.213
   155   6 C    3.907 --   152 C    1.457   154 C    1.225   199 O    1.053
   156   6 C    3.974 --   157 C    1.284   161 C    1.238   127 C    1.229
   157   6 C    3.952 --   156 C    1.284   153 C    1.247   158 C    1.197
   158   6 C    3.922 --   159 C    1.504   157 C    1.197   199 O    1.042
   159   6 C    3.942 --   158 C    1.504   162 C    1.240   186 H    0.966
   160   6 C    3.981 --   164 C    1.388   161 C    1.263   131 C    1.134
   161   6 C    3.980 --   160 C    1.263   162 C    1.249   156 C    1.238
   162   6 C    3.983 --   163 C    1.322   161 C    1.249   159 C    1.240
   163   6 C    3.943 --   165 C    1.474   162 C    1.322   187 H    0.969
   164   6 C    3.943 --   165 C    1.410   160 C    1.388   197 H    0.963
   165   6 C    3.981 --   163 C    1.474   164 C    1.410   188 H    0.971
   166   1 H    0.997 --     1 C    0.968
   167   1 H    0.997 --     2 C    0.970
   168   1 H    0.998 --     3 C    0.963
   169   1 H    0.996 --     8 C    0.966
   170   1 H    0.997 --    12 C    0.967
   171   1 H    0.996 --    16 C    0.966
   172   1 H    0.996 --    23 C    0.966
   173   1 H    0.998 --    27 C    0.969
   174   1 H    0.998 --    34 C    0.962
   175   1 H    0.998 --    35 C    0.961
   176   1 H    0.998 --    68 C    0.960
   177   1 H    0.998 --    69 C    0.962
   178   1 H    0.996 --   102 C    0.951
   179   1 H    0.998 --   103 C    0.963
   180   1 H    0.998 --   135 C    0.963
   181   1 H    0.998 --   136 C    0.970
   182   1 H    0.998 --   137 C    0.969
   183   1 H    0.996 --   141 C    0.965
   184   1 H    0.996 --   148 C    0.966
   185   1 H    0.996 --   152 C    0.966
   186   1 H    0.996 --   159 C    0.966
   187   1 H    0.998 --   163 C    0.969
   188   1 H    0.998 --   165 C    0.971
   189   1 H    0.998 --    31 C    0.971
   190   1 H    0.998 --    32 C    0.963
   191   1 H    0.998 --    65 C    0.962
   192   1 H    0.998 --    66 C    0.961
   193   1 H    0.998 --    99 C    0.961
   194   1 H    0.998 --   100 C    0.961
   195   1 H    0.998 --   132 C    0.961
   196   1 H    0.998 --   133 C    0.962
   197   1 H    0.998 --   164 C    0.963
   198   8 O    2.337 --    20 C    1.048    24 C    1.045
   199   8 O    2.338 --   155 C    1.053   158 C    1.042
   200   8 O    2.337 --   147 C    1.049   144 C    1.047
   201   8 O    2.661 --   105 C    0.856   106 C    0.829   101 C    0.811
   202   8 O    2.348 --     5 C    1.055     9 C    1.044
 ---------------------------------------------------------------------------

Topologies differ in total number of bonds
Writing topology from bond orders to xtbtopo.mol

molecular dipole:
                 x           y           z       tot (Debye)
 q only:        0.251      -0.668       0.051
   full:        0.245      -0.731       0.123       1.983
molecular quadrupole (traceless):
                xx          xy          yy          xz          yz          zz
 q only:      -41.727      -6.714      64.302       0.571      -1.481     -22.574
  q+dip:       -7.897      -6.238      98.356       1.618      -3.754     -90.459
   full:      -39.073      -6.135      69.213       1.473      -3.417     -30.140


           -------------------------------------------------
          | TOTAL ENERGY             -391.437662078116 Eh   |
          | GRADIENT NORM               0.000421345264 Eh/α |
          | HOMO-LUMO GAP               0.126463474639 eV   |
           -------------------------------------------------

------------------------------------------------------------------------
 * finished run on 2025/12/08 at 00:48:07.052     
------------------------------------------------------------------------
 total:
 * wall-time:     0 d,  0 h,  0 min,  0.809 sec
 *  cpu-time:     0 d,  0 h,  0 min, 11.047 sec
 * ratio c/w:    13.655 speedup
 SCF:
 * wall-time:     0 d,  0 h,  0 min,  0.686 sec
 *  cpu-time:     0 d,  0 h,  0 min,  9.641 sec
 * ratio c/w:    14.053 speedup

normal termination of xtb
