      -----------------------------------------------------------      
     |                   =====================                   |     
     |                           x T B                           |     
     |                   =====================                   |     
     |                         S. Grimme                         |     
     |          Mulliken Center for Theoretical Chemistry        |     
     |                    University of Bonn                     |     
      -----------------------------------------------------------      

   * xtb version 6.7.1pre (5071a88) compiled by 'Marcel@Raven' on 2024-07-23

   xtb is free software: you can redistribute it and/or modify it under
   the terms of the GNU Lesser General Public License as published by
   the Free Software Foundation, either version 3 of the License, or
   (at your option) any later version.
   
   xtb is distributed in the hope that it will be useful,
   but WITHOUT ANY WARRANTY; without even the implied warranty of
   MERCHANTABILITY or FITNESS FOR A PARTICULAR PURPOSE.  See the
   GNU Lesser General Public License for more details.
   
   Cite this work as:
   * C. Bannwarth, E. Caldeweyher, S. Ehlert, A. Hansen, P. Pracht,
     J. Seibert, S. Spicher, S. Grimme, WIREs Comput. Mol. Sci., 2020, 11,
     e01493. DOI: 10.1002/wcms.1493
   
   for GFN2-xTB:
   * C. Bannwarth, S. Ehlert and S. Grimme., J. Chem. Theory Comput., 2019,
     15, 1652-1671. DOI: 10.1021/acs.jctc.8b01176
   for GFN1-xTB:
   * S. Grimme, C. Bannwarth, P. Shushkov, J. Chem. Theory Comput., 2017,
     13, 1989-2009. DOI: 10.1021/acs.jctc.7b00118
   for GFN0-xTB:
   * P. Pracht, E. Caldeweyher, S. Ehlert, S. Grimme, ChemRxiv, 2019, preprint.
     DOI: 10.26434/chemrxiv.8326202.v1
   for GFN-FF:
   * S. Spicher and S. Grimme, Angew. Chem. Int. Ed., 2020, 59, 15665-15673.
     DOI: 10.1002/anie.202004239
   
   for ALPB and GBSA implicit solvation:
   * S. Ehlert, M. Stahn, S. Spicher, S. Grimme, J. Chem. Theory Comput.,
     2021, 17, 4250-4261. DOI: 10.1021/acs.jctc.1c00471
   
   for ddCOSMO and CPCM-X implicit solvation:
   * M. Stahn, S. Ehlert, S. Grimme, J. Phys. Chem. A,
     2023, XX, XXXX-XXXX. DOI: 10.1021/acs.jpca.3c04382
   
   for DFT-D4:
   * E. Caldeweyher, C. Bannwarth and S. Grimme, J. Chem. Phys., 2017,
     147, 034112. DOI: 10.1063/1.4993215
   * E. Caldeweyher, S. Ehlert, A. Hansen, H. Neugebauer, S. Spicher,
     C. Bannwarth and S. Grimme, J. Chem. Phys., 2019, 150, 154122.
     DOI: 10.1063/1.5090222
   * E. Caldeweyher, J.-M. Mewes, S. Ehlert and S. Grimme, Phys. Chem. Chem. Phys.
     2020, 22, 8499-8512. DOI: 10.1039/D0CP00502A
   
   for sTDA-xTB:
   * S. Grimme and C. Bannwarth, J. Chem. Phys., 2016, 145, 054103.
     DOI: 10.1063/1.4959605
   
   in the mass-spec context:
   * V. Asgeirsson, C. Bauer and S. Grimme, Chem. Sci., 2017, 8, 4879.
     DOI: 10.1039/c7sc00601b
   * J. Koopman and S. Grimme, ACS Omega 2019, 4, 12, 15120-15133.
     DOI: 10.1021/acsomega.9b02011
   
   for metadynamics refer to:
   * S. Grimme, J. Chem. Theory Comput., 2019, 155, 2847-2862
     DOI: 10.1021/acs.jctc.9b00143
   
   for SPH calculations refer to:
   * S. Spicher and S. Grimme, J. Chem. Theory Comput., 2021, 17, 1701-1714
     DOI: 10.1021/acs.jctc.0c01306
   
   for ONIOM refer to:
   * C. Plett, A. Katbashev, S. Ehlert, S. Grimme, M. Bursch,
     Phys. Chem. Chem. Phys., 2023, 25, 17860-17868. DOI: 10.1039/D3CP02178E
   
   for DIPRO refer to:
   * J. Kohn, N. Gildemeister, S. Grimme, D. Fazzi, A. Hansen,
     J. Chem. Phys., 2023, just accepted.
   
   for PTB refer to:
   * S. Grimme, M. Mueller, A. Hansen, J. Chem. Phys., 2023, 158, 124111.
     DOI: 10.1063/5.0137838
   
   with help from (in alphabetical order)
   P. Atkinson, C. Bannwarth, F. Bohle, G. Brandenburg, E. Caldeweyher
   M. Checinski, S. Dohm, S. Ehlert, S. Ehrlich, I. Gerasimov, C. Hölzer
   A. Katbashev, J. Kohn, J. Koopman, C. Lavigne, S. Lehtola, F. März, M. Müller,
   F. Musil, H. Neugebauer, J. Pisarek, C. Plett, P. Pracht, F. Pultar,
   J. Seibert, P. Shushkov, S. Spicher, M. Stahn, M. Steiner, T. Strunk,
   J. Stückrath, T. Rose, and J. Unsleber
   
 * started run on 2025/12/08 at 00:47:28.631     
   ID    Z sym.   atoms
    1    6 C      1-165
    2    1 H      166-197
    3    8 O      198-202

           -------------------------------------------------
          |                Calculation Setup                |
           -------------------------------------------------

          program call               : xtb "C:\Users\LENOVO GAMING\Documents\GitHub\molecular-conductivity-sim\dataset\2nm-5Odoped-3percent.xyz" --opt --parallel 4
          coordinate file            : C:\Users\LENOVO GAMING\Documents\GitHub\molecular-conductivity-sim\dataset\2nm-5Odoped-3percent.xyz
          omp threads                :                     4


           -------------------------------------------------
          |                 G F N 2 - x T B                 |
           -------------------------------------------------

        Reference                      10.1021/acs.jctc.8b01176
      * Hamiltonian:
        H0-scaling (s, p, d)           1.850000    2.230000    2.230000
        zeta-weighting                 0.500000
      * Dispersion:
        s8                             2.700000
        a1                             0.520000
        a2                             5.000000
        s9                             5.000000
      * Repulsion:
        kExp                           1.500000    1.000000
        rExp                           1.000000
      * Coulomb:
        alpha                          2.000000
        third order                    shell-resolved
        anisotropic                    true
        a3                             3.000000
        a5                             4.000000
        cn-shift                       1.200000
        cn-exp                         4.000000
        max-rad                        5.000000


          ...................................................
          :                      SETUP                      :
          :.................................................:
          :  # basis functions                 712          :
          :  # atomic orbitals                 712          :
          :  # shells                          372          :
          :  # electrons                       722          :
          :  max. iterations                   250          :
          :  Hamiltonian                  GFN2-xTB          :
          :  restarted?                      false          :
          :  GBSA solvation                  false          :
          :  PC potential                    false          :
          :  electronic temp.          300.0000000     K    :
          :  accuracy                    1.0000000          :
          :  -> integral cutoff          0.2500000E+02      :
          :  -> integral neglect         0.1000000E-07      :
          :  -> SCF convergence          0.1000000E-05 Eh   :
          :  -> wf. convergence          0.1000000E-03 e    :
          :  Broyden damping             0.4000000          :
          :  net charge                          0          :
          :  unpaired electrons                  0          :
          ...................................................

 iter      E             dE          RMSdq      gap      omega  full diag
   1   -397.9266550 -0.397927E+03  0.492E+00    0.22       0.0  T
   2   -395.7086280  0.221803E+01  0.356E+00    0.16       1.0  T
   3   -257.4936547  0.138215E+03  0.771E+00    0.04       1.0  T
   4   -188.2214842  0.692722E+02  0.950E+00    0.00       1.0  T
   5   -369.0830610 -0.180862E+03  0.515E+00    0.00       1.0  T
   6   -387.5261481 -0.184431E+02  0.336E+00    0.06       1.0  T
   7   -392.4845244 -0.495838E+01  0.249E+00    0.25       1.0  T
   8   -392.7448673 -0.260343E+00  0.214E+00    0.06       1.0  T
   9   -394.8439609 -0.209909E+01  0.163E+00    0.22       1.0  T
  10   -397.6319376 -0.278798E+01  0.990E-01    0.20       1.0  T
  11   -397.9476677 -0.315730E+00  0.881E-01    0.25       1.0  T
  12   -398.0151748 -0.675070E-01  0.836E-01    0.30       1.0  T
  13   -398.0894800 -0.743053E-01  0.762E-01    0.33       1.0  T
  14   -398.2494190 -0.159939E+00  0.513E-01    0.51       1.0  T
  15   -398.3333109 -0.838919E-01  0.308E-01    0.48       1.0  T
  16   -398.3515340 -0.182232E-01  0.253E-01    0.36       1.0  T
  17   -398.3736942 -0.221602E-01  0.155E-01    0.15       1.0  T
  18   -398.3773758 -0.368162E-02  0.109E-01    0.12       1.0  T
  19   -398.3772816  0.942061E-04  0.835E-02    0.14       1.0  T
  20   -398.3772395  0.420733E-04  0.822E-02    0.09       1.0  T
  21   -398.3785666 -0.132704E-02  0.315E-02    0.12       1.0  T
  22   -398.3778651  0.701500E-03  0.348E-02    0.10       1.0  T
  23   -398.3787155 -0.850469E-03  0.138E-02    0.11       1.0  T
  24   -398.3787312 -0.156754E-04  0.145E-02    0.12       1.0  T
  25   -398.3787719 -0.406486E-04  0.634E-03    0.12       1.1  T
  26   -398.3787794 -0.751681E-05  0.269E-03    0.12       2.6  T
  27   -398.3787793  0.558698E-07  0.243E-03    0.12       2.9  T
  28   -398.3787807 -0.137841E-05  0.955E-04    0.12       7.4  T
  29   -398.3787799  0.812897E-06  0.149E-03    0.12       4.7  T
  30   -398.3787805 -0.567971E-06  0.921E-04    0.12       7.6  T
  31   -398.3787809 -0.462344E-06  0.149E-04    0.12      47.2  T

   *** convergence criteria satisfied after 31 iterations ***

         #    Occupation            Energy/Eh            Energy/eV
      -------------------------------------------------------------
         1        2.0000           -0.7585055             -20.6400
       ...           ...                  ...                  ...
       355        2.0000           -0.3669613              -9.9855
       356        2.0000           -0.3664231              -9.9709
       357        2.0000           -0.3575171              -9.7285
       358        2.0000           -0.3546202              -9.6497
       359        2.0000           -0.3515874              -9.5672
       360        2.0000           -0.3421428              -9.3102
       361        1.8115           -0.3211683              -8.7394 (HOMO)
       362        0.1885           -0.3168683              -8.6224 (LUMO)
       363                         -0.2983203              -8.1177
       364                         -0.2941736              -8.0049
       365                         -0.2896113              -7.8807
       366                         -0.2791130              -7.5951
       ...                                ...                  ...
       712                          0.7601580              20.6850
      -------------------------------------------------------------
                  HL-Gap            0.0043000 Eh            0.1170 eV
             Fermi-level           -0.3190183 Eh           -8.6809 eV

 SCC (total)                   0 d,  0 h,  0 min,  5.960 sec
 SCC setup                      ...        0 min,  0.004 sec (  0.067%)
 Dispersion                     ...        0 min,  0.015 sec (  0.252%)
 classical contributions        ...        0 min,  0.001 sec (  0.017%)
 integral evaluation            ...        0 min,  0.084 sec (  1.409%)
 iterations                     ...        0 min,  5.430 sec ( 91.107%)
 molecular gradient             ...        0 min,  0.409 sec (  6.862%)
 printout                       ...        0 min,  0.017 sec (  0.285%)

         :::::::::::::::::::::::::::::::::::::::::::::::::::::
         ::                     SUMMARY                     ::
         :::::::::::::::::::::::::::::::::::::::::::::::::::::
         :: total energy            -391.410797386951 Eh    ::
         :: gradient norm              0.071587063337 Eh/a0 ::
         :: HOMO-LUMO gap              0.117009221380 eV    ::
         ::.................................................::
         :: SCC energy              -398.395349021580 Eh    ::
         :: -> isotropic ES            0.055631317742 Eh    ::
         :: -> anisotropic ES          0.016982768656 Eh    ::
         :: -> anisotropic XC          0.119139940961 Eh    ::
         :: -> dispersion             -0.481167941621 Eh    ::
         :: repulsion energy           6.984551634630 Eh    ::
         :: add. restraining           0.000000000000 Eh    ::
         :: total charge              -0.000000000648 e     ::
         :::::::::::::::::::::::::::::::::::::::::::::::::::::

      ----------------------------------------------------------- 
     |                   =====================                   |
     |                        A N C O P T                        |
     |                   =====================                   |
     |               Approximate Normal Coordinate               |
     |                Rational Function Optimizer                |
      ----------------------------------------------------------- 
      ----------------------------------------------------------- 
     |                   =====================                   |
     |                        A N C O P T                        |
     |                   =====================                   |
     |               Approximate Normal Coordinate               |
     |                Rational Function Optimizer                |
      ----------------------------------------------------------- 

          ...................................................
          :                      SETUP                      :
          :.................................................:
          :   optimization level            normal          :
          :   max. optcycles                   606          :
          :   ANC micro-cycles                  20          :
          :   degrees of freedom               600          :
          :.................................................:
          :   RF solver                   davidson          :
          :   write xtbopt.log                true          :
          :   linear?                        false          :
          :   energy convergence         0.5000000E-05 Eh   :
          :   grad. convergence          0.1000000E-02 Eh/α :
          :   maxmium RF displ.          1.0000000          :
          :   Hlow (freq-cutoff)         0.1000000E-01      :
          :   Hmax (freq-cutoff)         5.0000000          :
          :   S6 in model hess.         20.0000000          :
          ...................................................

generating ANC from exact Hessian ...
Using Lindh-Hessian (1995)
 Shifting diagonal of input Hessian by   9.939639643080072E-003
 Lowest  eigenvalues of input Hessian
    0.000000    0.000000    0.000000    0.000000    0.000000    0.000000
    0.010000    0.010079    0.010098    0.010211    0.010236    0.010664
    0.010712    0.010797    0.010813    0.011072    0.011681    0.011781
 Highest eigenvalues
    2.151212    2.153727    2.158584    2.169540    2.182391    2.195031
 

........................................................................
.............................. CYCLE    1 ..............................
........................................................................

 iter      E             dE          RMSdq      gap      omega  full diag
   1   -398.3787809 -0.398379E+03  0.916E-05    0.12       0.0  T
   2   -398.3787808  0.142024E-06  0.564E-04    0.12      12.5  T
   3   -398.3787808 -0.357637E-07  0.494E-04    0.12      14.2  T
     SCC iter.                  ...        0 min,  0.509 sec
     gradient                   ...        0 min,  0.429 sec
 * total energy  :  -391.4107973 Eh     change        0.1057750E-06 Eh
   gradient norm :     0.0715672 Eh/α   predicted     0.0000000E+00 (-100.00%)
   displ. norm   :     0.5303992 α      lambda       -0.1922586E-01
   maximum displ.:     0.4423184 α      in ANC's #45, #75, #180, ...

........................................................................
.............................. CYCLE    2 ..............................
........................................................................

 iter      E             dE          RMSdq      gap      omega  full diag
   1   -398.5446319 -0.398545E+03  0.104E-01    0.10       0.0  T
   2   -398.5415391  0.309281E-02  0.106E-01    0.19       1.0  T
   3   -398.5193773  0.221619E-01  0.235E-01    0.03       1.0  T
   4   -398.5424068 -0.230295E-01  0.768E-02    0.18       1.0  T
   5   -398.5440320 -0.162523E-02  0.505E-02    0.15       1.0  T
   6   -398.5446882 -0.656232E-03  0.313E-02    0.14       1.0  T
   7   -398.5448396 -0.151332E-03  0.239E-02    0.13       1.0  T
   8   -398.5450185 -0.178906E-03  0.122E-02    0.12       1.0  T
   9   -398.5450756 -0.571496E-04  0.108E-03    0.12       6.5  T
  10   -398.5450759 -0.265341E-06  0.606E-04    0.12      11.6  T
  11   -398.5450760 -0.123856E-06  0.184E-04    0.12      38.2  T
     SCC iter.                  ...        0 min,  1.835 sec
     gradient                   ...        0 min,  0.430 sec
 * total energy  :  -391.4258938 Eh     change       -0.1509656E-01 Eh
   gradient norm :     0.0387879 Eh/α   predicted    -0.1231728E-01 ( -18.41%)
   displ. norm   :     0.6130894 α      lambda       -0.1217237E-01
   maximum displ.:     0.5404182 α      in ANC's #45, #27, #42, ...

........................................................................
.............................. CYCLE    3 ..............................
........................................................................

 iter      E             dE          RMSdq      gap      omega  full diag
   1   -398.6973435 -0.398697E+03  0.106E-01    0.10       0.0  T
   2   -398.6922652  0.507828E-02  0.129E-01    0.23       1.0  T
   3   -398.6879199  0.434532E-02  0.149E-01    0.05       1.0  T
   4   -398.6950179 -0.709799E-02  0.836E-02    0.19       1.0  T
   5   -398.6972443 -0.222638E-02  0.484E-02    0.15       1.0  T
   6   -398.6980202 -0.775875E-03  0.217E-02    0.13       1.0  T
   7   -398.6981061 -0.859607E-04  0.140E-02    0.12       1.0  T
   8   -398.6981708 -0.646603E-04  0.638E-03    0.12       1.1  T
   9   -398.6981838 -0.129986E-04  0.204E-03    0.12       3.4  T
  10   -398.6981854 -0.163609E-05  0.510E-04    0.12      13.8  T
  11   -398.6981855 -0.477648E-07  0.371E-04    0.12      19.0  T
  12   -398.6981855 -0.442017E-07  0.207E-04    0.12      34.0  T
     SCC iter.                  ...        0 min,  2.026 sec
     gradient                   ...        0 min,  0.417 sec
 * total energy  :  -391.4344830 Eh     change       -0.8589171E-02 Eh
   gradient norm :     0.0126944 Eh/α   predicted    -0.8373854E-02 (  -2.51%)
   displ. norm   :     0.4594593 α      lambda       -0.3947061E-02
   maximum displ.:     0.4068619 α      in ANC's #45, #27, #42, ...

........................................................................
.............................. CYCLE    4 ..............................
........................................................................

 iter      E             dE          RMSdq      gap      omega  full diag
   1   -398.7878021 -0.398788E+03  0.647E-02    0.10       0.0  T
   2   -398.7855481  0.225395E-02  0.848E-02    0.17       1.0  T
   3   -398.7847262  0.821920E-03  0.858E-02    0.08       1.0  T
   4   -398.7867796 -0.205340E-02  0.519E-02    0.15       1.0  T
   5   -398.7878232 -0.104358E-02  0.236E-02    0.13       1.0  T
   6   -398.7880322 -0.208990E-03  0.758E-03    0.12       1.0  T
   7   -398.7880402 -0.800877E-05  0.473E-03    0.12       1.5  T
   8   -398.7880459 -0.570689E-05  0.288E-03    0.12       2.4  T
   9   -398.7880487 -0.280239E-05  0.887E-04    0.12       7.9  T
  10   -398.7880489 -0.252054E-06  0.337E-04    0.12      20.9  T
  11   -398.7880490 -0.415550E-07  0.141E-04    0.12      49.9  T
     SCC iter.                  ...        0 min,  1.841 sec
     gradient                   ...        0 min,  0.422 sec
 * total energy  :  -391.4370369 Eh     change       -0.2553884E-02 Eh
   gradient norm :     0.0082403 Eh/α   predicted    -0.2390902E-02 (  -6.38%)
   displ. norm   :     0.2211909 α      lambda       -0.6939430E-03
   maximum displ.:     0.1741561 α      in ANC's #45, #27, #42, ...

........................................................................
.............................. CYCLE    5 ..............................
........................................................................

 iter      E             dE          RMSdq      gap      omega  full diag
   1   -398.8214331 -0.398821E+03  0.306E-02    0.12       0.0  T
   2   -398.8214341 -0.964192E-06  0.188E-02    0.12       1.0  T
   3   -398.8212267  0.207326E-03  0.201E-02    0.13       1.0  T
   4   -398.8212509 -0.241452E-04  0.206E-02    0.11       1.0  T
   5   -398.8214356 -0.184748E-03  0.268E-03    0.12       2.6  T
   6   -398.8214379 -0.221796E-05  0.109E-03    0.12       6.4  T
   7   -398.8214383 -0.430043E-06  0.356E-04    0.12      19.8  T
   8   -398.8214383 -0.245535E-07  0.203E-04    0.12      34.7  T
     SCC iter.                  ...        0 min,  1.370 sec
     gradient                   ...        0 min,  0.421 sec
 * total energy  :  -391.4374540 Eh     change       -0.4171218E-03 Eh
   gradient norm :     0.0054080 Eh/α   predicted    -0.3639620E-03 ( -12.74%)
   displ. norm   :     0.0843091 α      lambda       -0.1009424E-03
   maximum displ.:     0.0407974 α      in ANC's #27, #45, #15, ...

........................................................................
.............................. CYCLE    6 ..............................
........................................................................

 iter      E             dE          RMSdq      gap      omega  full diag
   1   -398.8271588 -0.398827E+03  0.159E-02    0.12       0.0  T
   2   -398.8264027  0.756132E-03  0.407E-02    0.10       1.0  T
   3   -398.8271030 -0.700264E-03  0.151E-02    0.13       1.0  T
   4   -398.8271713 -0.683811E-04  0.683E-03    0.12       1.0  T
   5   -398.8271825 -0.111655E-04  0.167E-03    0.12       4.2  T
   6   -398.8271831 -0.598781E-06  0.975E-04    0.12       7.2  T
   7   -398.8271835 -0.429538E-06  0.321E-04    0.12      21.9  T
     SCC iter.                  ...        0 min,  1.194 sec
     gradient                   ...        0 min,  0.432 sec
 * total energy  :  -391.4375243 Eh     change       -0.7025223E-04 Eh
   gradient norm :     0.0024386 Eh/α   predicted    -0.5083599E-04 ( -27.64%)
   displ. norm   :     0.0861680 α      lambda       -0.5711721E-04
   maximum displ.:     0.0332624 α      in ANC's #27, #15, #17, ...

........................................................................
.............................. CYCLE    7 ..............................
........................................................................

 iter      E             dE          RMSdq      gap      omega  full diag
   1   -398.8276573 -0.398828E+03  0.175E-02    0.13       0.0  T
   2   -398.8261630  0.149431E-02  0.568E-02    0.09       1.0  T
   3   -398.8276363 -0.147338E-02  0.143E-02    0.13       1.0  T
   4   -398.8276872 -0.508489E-04  0.839E-03    0.12       1.0  T
   5   -398.8277033 -0.161452E-04  0.202E-03    0.12       3.5  T
   6   -398.8277046 -0.121270E-05  0.104E-03    0.12       6.7  T
   7   -398.8277051 -0.513410E-06  0.340E-04    0.12      20.7  T
   8   -398.8277051 -0.217362E-07  0.204E-04    0.12      34.4  T
     SCC iter.                  ...        0 min,  1.394 sec
     gradient                   ...        0 min,  0.428 sec
 * total energy  :  -391.4375628 Eh     change       -0.3857081E-04 Eh
   gradient norm :     0.0014772 Eh/α   predicted    -0.2877529E-04 ( -25.40%)
   displ. norm   :     0.1163514 α      lambda       -0.2918327E-04
   maximum displ.:     0.0412045 α      in ANC's #17, #15, #19, ...

........................................................................
.............................. CYCLE    8 ..............................
........................................................................

 iter      E             dE          RMSdq      gap      omega  full diag
   1   -398.8254089 -0.398825E+03  0.211E-02    0.13       0.0  T
   2   -398.8238039  0.160505E-02  0.591E-02    0.09       1.0  T
   3   -398.8253547 -0.155080E-02  0.182E-02    0.13       1.0  T
   4   -398.8254297 -0.750322E-04  0.114E-02    0.13       1.0  T
   5   -398.8254634 -0.336630E-04  0.213E-03    0.12       3.3  T
   6   -398.8254644 -0.106142E-05  0.125E-03    0.13       5.6  T
   7   -398.8254651 -0.640147E-06  0.529E-04    0.13      13.3  T
   8   -398.8254652 -0.659492E-07  0.298E-04    0.12      23.6  T
     SCC iter.                  ...        0 min,  1.390 sec
     gradient                   ...        0 min,  0.431 sec
 * total energy  :  -391.4375884 Eh     change       -0.2559636E-04 Eh
   gradient norm :     0.0024328 Eh/α   predicted    -0.1468053E-04 ( -42.65%)
   displ. norm   :     0.0462670 α      lambda       -0.1538494E-04
   maximum displ.:     0.0185087 α      in ANC's #17, #8, #20, ...

........................................................................
.............................. CYCLE    9 ..............................
........................................................................

 iter      E             dE          RMSdq      gap      omega  full diag
   1   -398.8244761 -0.398824E+03  0.699E-03    0.13       0.0  T
   2   -398.8244656  0.105644E-04  0.618E-03    0.12       1.1  T
   3   -398.8244181  0.474977E-04  0.114E-02    0.13       1.0  T
   4   -398.8244700 -0.519017E-04  0.476E-03    0.12       1.5  T
   5   -398.8244771 -0.717314E-05  0.660E-04    0.13      10.7  T
   6   -398.8244773 -0.161378E-06  0.174E-04    0.13      40.3  T
   7   -398.8244773 -0.111097E-07  0.627E-05    0.13     112.1  T
     SCC iter.                  ...        0 min,  1.208 sec
     gradient                   ...        0 min,  0.439 sec
 * total energy  :  -391.4376014 Eh     change       -0.1292426E-04 Eh
   gradient norm :     0.0015925 Eh/α   predicted    -0.7710219E-05 ( -40.34%)
   displ. norm   :     0.1765824 α      lambda       -0.2884764E-04
   maximum displ.:     0.0712540 α      in ANC's #17, #8, #11, ...

........................................................................
.............................. CYCLE   10 ..............................
........................................................................

 iter      E             dE          RMSdq      gap      omega  full diag
   1   -398.8221365 -0.398822E+03  0.251E-02    0.13       0.0  T
   2   -398.8221216  0.149698E-04  0.160E-02    0.12       1.0  T
   3   -398.8219097  0.211898E-03  0.237E-02    0.14       1.0  T
   4   -398.8218120  0.976668E-04  0.268E-02    0.11       1.0  T
   5   -398.8221408 -0.328776E-03  0.296E-03    0.13       2.4  T
   6   -398.8221442 -0.342932E-05  0.799E-04    0.13       8.8  T
   7   -398.8221444 -0.232361E-06  0.290E-04    0.13      24.3  T
   8   -398.8221445 -0.210037E-07  0.143E-04    0.13      49.3  T
     SCC iter.                  ...        0 min,  1.400 sec
     gradient                   ...        0 min,  0.406 sec
 * total energy  :  -391.4376188 Eh     change       -0.1749050E-04 Eh
   gradient norm :     0.0016927 Eh/α   predicted    -0.1462458E-04 ( -16.39%)
   displ. norm   :     0.0236772 α      lambda       -0.6245558E-05
   maximum displ.:     0.0085445 α      in ANC's #15, #9, #45, ...

........................................................................
.............................. CYCLE   11 ..............................
........................................................................

 iter      E             dE          RMSdq      gap      omega  full diag
   1   -398.8234672 -0.398823E+03  0.382E-03    0.13       0.0  T
   2   -398.8234589  0.826174E-05  0.473E-03    0.13       1.5  T
   3   -398.8234570  0.185861E-05  0.500E-03    0.12       1.4  T
   4   -398.8234666 -0.953179E-05  0.191E-03    0.13       3.7  T
   5   -398.8234676 -0.105994E-05  0.278E-04    0.13      25.3  T
   6   -398.8234677 -0.269564E-07  0.818E-05    0.13      86.0  T
   7   -398.8234677 -0.127341E-08  0.514E-05    0.13     136.8  T
     SCC iter.                  ...        0 min,  1.217 sec
     gradient                   ...        0 min,  0.428 sec
 * total energy  :  -391.4376263 Eh     change       -0.7491377E-05 Eh
   gradient norm :     0.0008569 Eh/α   predicted    -0.3124086E-05 ( -58.30%)
   displ. norm   :     0.0871036 α      lambda       -0.1117566E-04
   maximum displ.:     0.0338856 α      in ANC's #11, #8, #14, ...

........................................................................
.............................. CYCLE   12 ..............................
........................................................................

 iter      E             dE          RMSdq      gap      omega  full diag
   1   -398.8252254 -0.398825E+03  0.103E-02    0.13       0.0  T
   2   -398.8252136  0.117919E-04  0.779E-03    0.13       1.0  T
   3   -398.8249481  0.265532E-03  0.240E-02    0.11       1.0  T
   4   -398.8252253 -0.277267E-03  0.161E-03    0.13       4.4  T
   5   -398.8252260 -0.671853E-06  0.531E-04    0.13      13.2  T
   6   -398.8252261 -0.762917E-07  0.268E-04    0.13      26.3  T
     SCC iter.                  ...        0 min,  1.030 sec
     gradient                   ...        0 min,  0.408 sec
 * total energy  :  -391.4376375 Eh     change       -0.1115838E-04 Eh
   gradient norm :     0.0006872 Eh/α   predicted    -0.5620184E-05 ( -49.63%)
   displ. norm   :     0.0954421 α      lambda       -0.6290154E-05
   maximum displ.:     0.0382929 α      in ANC's #11, #8, #14, ...

........................................................................
.............................. CYCLE   13 ..............................
........................................................................

 iter      E             dE          RMSdq      gap      omega  full diag
   1   -398.8256718 -0.398826E+03  0.106E-02    0.13       0.0  T
   2   -398.8256705  0.129255E-05  0.636E-03    0.12       1.1  T
   3   -398.8255480  0.122530E-03  0.159E-02    0.14       1.0  T
   4   -398.8256703 -0.122331E-03  0.209E-03    0.13       3.4  T
   5   -398.8256720 -0.164063E-05  0.294E-04    0.13      23.9  T
   6   -398.8256720 -0.233171E-07  0.108E-04    0.13      65.0  T
   7   -398.8256720 -0.305812E-08  0.510E-05    0.13     137.8  T
     SCC iter.                  ...        0 min,  1.239 sec
     gradient                   ...        0 min,  0.437 sec
 * total energy  :  -391.4376445 Eh     change       -0.7046487E-05 Eh
   gradient norm :     0.0009663 Eh/α   predicted    -0.3158420E-05 ( -55.18%)
   displ. norm   :     0.1392779 α      lambda       -0.7818176E-05
   maximum displ.:     0.0543638 α      in ANC's #11, #8, #14, ...

........................................................................
.............................. CYCLE   14 ..............................
........................................................................

 iter      E             dE          RMSdq      gap      omega  full diag
   1   -398.8254326 -0.398825E+03  0.160E-02    0.13       0.0  T
   2   -398.8254299  0.269239E-05  0.981E-03    0.13       1.0  T
   3   -398.8250597  0.370203E-03  0.280E-02    0.11       1.0  T
   4   -398.8254269 -0.367176E-03  0.367E-03    0.13       1.9  T
   5   -398.8254329 -0.599766E-05  0.490E-04    0.13      14.4  T
   6   -398.8254329 -0.683546E-07  0.192E-04    0.13      36.6  T
   7   -398.8254330 -0.993248E-08  0.804E-05    0.13      87.6  T
     SCC iter.                  ...        0 min,  1.226 sec
     gradient                   ...        0 min,  0.446 sec
 * total energy  :  -391.4376523 Eh     change       -0.7803816E-05 Eh
   gradient norm :     0.0009188 Eh/α   predicted    -0.3944898E-05 ( -49.45%)
   displ. norm   :     0.0956519 α      lambda       -0.5439275E-05
   maximum displ.:     0.0361207 α      in ANC's #9, #13, #14, ...

........................................................................
.............................. CYCLE   15 ..............................
........................................................................

 iter      E             dE          RMSdq      gap      omega  full diag
   1   -398.8246973 -0.398825E+03  0.107E-02    0.13       0.0  T
   2   -398.8246971  0.155375E-06  0.631E-03    0.13       1.1  T
   3   -398.8246761  0.210413E-04  0.653E-03    0.13       1.1  T
   4   -398.8246924 -0.162878E-04  0.345E-03    0.12       2.0  T
   5   -398.8246973 -0.494754E-05  0.522E-04    0.13      13.5  T
   6   -398.8246974 -0.111295E-06  0.906E-05    0.13      77.6  T
   7   -398.8246974 -0.965827E-09  0.518E-05    0.13     135.8  T
     SCC iter.                  ...        0 min,  1.220 sec
     gradient                   ...        0 min,  0.431 sec
 * total energy  :  -391.4376579 Eh     change       -0.5536548E-05 Eh
   gradient norm :     0.0004828 Eh/α   predicted    -0.2734321E-05 ( -50.61%)
   displ. norm   :     0.0629121 α      lambda       -0.3918992E-05
   maximum displ.:     0.0272570 α      in ANC's #9, #13, #5, ...

........................................................................
.............................. CYCLE   16 ..............................
........................................................................

 iter      E             dE          RMSdq      gap      omega  full diag
   1   -398.8241802 -0.398824E+03  0.756E-03    0.13       0.0  T
   2   -398.8241791  0.113122E-05  0.487E-03    0.13       1.4  T
   3   -398.8240777  0.101397E-03  0.147E-02    0.12       1.0  T
   4   -398.8241776 -0.998846E-04  0.235E-03    0.13       3.0  T
   5   -398.8241803 -0.272405E-05  0.371E-04    0.13      19.0  T
   6   -398.8241804 -0.530533E-07  0.857E-05    0.13      82.1  T
   7   -398.8241804 -0.648413E-09  0.511E-05    0.13     137.7  T
     SCC iter.                  ...        0 min,  1.235 sec
     gradient                   ...        0 min,  0.404 sec
 * total energy  :  -391.4376621 Eh     change       -0.4192301E-05 Eh
   gradient norm :     0.0004198 Eh/α   predicted    -0.1967271E-05 ( -53.07%)
   displ. norm   :     0.0527999 α      lambda       -0.2917654E-05
   maximum displ.:     0.0230265 α      in ANC's #12, #9, #5, ...

   *** GEOMETRY OPTIMIZATION CONVERGED AFTER 16 ITERATIONS ***

------------------------------------------------------------------------
 total energy gain   :        -0.0268647 Eh      -16.8578 kcal/mol
 total RMSD          :         0.1423328 a0        0.0753 Å
 total power (kW/mol):        -4.4083272 (step)   -2.3267 (real)
------------------------------------------------------------------------

 ANCopt (total)                0 d,  0 h,  0 min, 30.315 sec
 optimizer setup                ...        0 min,  0.003 sec (  0.010%)
 model hessian                  ...        0 min,  0.199 sec (  0.656%)
 ANC generation                 ...        0 min,  0.081 sec (  0.267%)
 coordinate transformation      ...        0 min,  0.008 sec (  0.026%)
 single point calculation       ...        0 min, 29.968 sec ( 98.855%)
 optimization log               ...        0 min,  0.034 sec (  0.112%)
 hessian update                 ...        0 min,  0.006 sec (  0.020%)
 rational function              ...        0 min,  0.010 sec (  0.033%)

================
 final structure:
================
202
 xtb: 6.7.1pre (5071a88)
C           -9.94146233165233       -8.41375326959895       -0.03132110965851
C           -9.28994574888618       -9.64025309573331       -0.03172318299340
C           -7.91486560704983       -9.72310170444949       -0.02637921333728
C           -7.12324766196137       -8.56691656310890       -0.02119378037897
C           -9.19105610738538       -7.25169952431235       -0.02597486917237
C           -7.78525475174694       -7.32232854821257       -0.02174173788865
C           -7.04198736846784       -6.10714029598350       -0.01732978782452
C           -9.87172116197744       -3.71368450572284       -0.01616195225606
C           -9.17355139409565       -4.88986828876613       -0.01843884271061
C           -7.75091226167362       -4.89380559052267       -0.01454608857799
C           -7.05692067921616       -3.67178916639044       -0.00805763329786
C           -9.88028849870376       -1.24504377945474       -0.00740705891716
C           -9.19865883137578       -2.46229712723852       -0.00932910812377
C           -7.77453656656738       -2.45688122811333       -0.00485306648363
C           -7.07171625556636       -1.23806851573489        0.00206650046081
C           -9.88678262863292        1.22621165468747       -0.00006785495110
C           -9.20638662608098       -0.01941540343565       -0.00094544836931
C           -7.78342312615148       -0.02282573730324        0.00428119349267
C           -7.07551412271180        1.19684313625940        0.01033043656384
C           -9.19524053949475        2.41070981190186        0.00577555997605
C           -7.77653937965002        2.41092599040231        0.01113023644882
C           -7.06998447720579        3.63308499246464        0.01571859541696
C           -9.94559092265117        5.94007291205189        0.01178451527944
C           -9.22293890801779        4.77984869487137        0.01098015506140
C           -7.80313223590798        4.83591583276544        0.01538227400362
C           -7.13131466494870        6.06940176652573        0.01896492222900
C          -10.02964740373985        8.39372613558248        0.01945330702879
C           -9.29563699755418        7.20027275639939        0.01682116901249
C           -7.87743798759615        7.27154261909482        0.01952696636996
C           -7.21323501491076        8.52291756471740        0.02317075943275
C           -9.38058343856310        9.60678419908658        0.02469078343796
C           -7.99459742388121        9.67610949083600        0.02625622396148
C           -5.67647997579628       -8.57852034051566       -0.01581376874813
C           -4.94159248691299       -9.77211428528382       -0.00915606642364
C           -3.57230621493526       -9.77638067930432       -0.00182776163275
C           -2.82306137895613       -8.58870048912551       -0.00536567379598
C           -5.64074327586244       -6.12295030497134       -0.01583502898960
C           -4.94878978440190       -7.36632929929925       -0.01656952359591
C           -3.52972977231576       -7.36573161311223       -0.01588383211405
C           -2.81383836875186       -6.13091060430088       -0.01899054956991
C           -5.64064118241098       -3.68020417572905       -0.00558095218811
C           -4.93404504409138       -4.89960015214068       -0.01037850002161
C           -3.51521372610794       -4.90474133666426       -0.01138705459228
C           -2.81232837399891       -3.67871992345661       -0.00634839611286
C           -5.65000063504571       -1.23590558463166        0.00525789462064
C           -4.93761126206306       -2.45207109513401        0.00063748510469
C           -3.52314405226594       -2.45194028027037        0.00068162575398
C           -2.82501490615553       -1.22546129835899        0.00611629593507
C           -5.65670672740131        1.20997122975846        0.01392413032851
C           -4.94689222357905       -0.01114583575035        0.01102043444675
C           -3.53412072834699       -0.00296083274873        0.01164424422221
C           -2.83540809057944        1.22827612268788        0.01502535711021
C           -5.66707633315585        3.65394499209319        0.01923909846147
C           -4.95645251208188        2.43221937377190        0.01814555238941
C           -3.54280065214964        2.44737639724721        0.01884144598585
C           -2.84934216869241        3.68403009753851        0.02064399442978
C           -5.71089051597778        6.09511085637023        0.02185164872409
C           -4.98321205039960        4.89224661779718        0.02180725872985
C           -3.56285837402146        4.90549158688387        0.02253842305256
C           -2.87322963056721        6.13545482417936        0.02287226320623
C           -5.76324385058856        8.54840100181817        0.02342159886587
C           -5.02703082459078        7.34133699173530        0.02325421874032
C           -3.60495430331444        7.35737325303427        0.02327558453441
C           -2.91127070268882        8.58763953495304        0.02251673580923
C           -5.04130220688273        9.74570998290937        0.02291372245898
C           -3.66925102259402        9.76477556390756        0.02245594422418
C           -1.38742955125729       -8.58313552819451        0.00107607777493
C           -0.62966682447379       -9.76350240033857        0.03899777976788
C            0.73665010769419       -9.75357635332147        0.05840019040026
C            1.46614943003846       -8.54876103901073        0.01802009613616
C           -1.40035280111570       -6.12480385522958       -0.02865303443943
C           -0.68216808268024       -7.35502926010335       -0.03056482314116
C            0.72579580559734       -7.34552676234928       -0.04821823815243
C            1.45149030482025       -6.11384228242536       -0.06817462743515
C           -1.39884194081974       -3.67645101381801       -0.00865014054089
C           -0.69110452546468       -4.90192945002359       -0.01968352908680
C            0.73198871125360       -4.89240186201468       -0.02907494674666
C            1.42319257283559       -3.66137672719808       -0.03026672036932
C           -1.40988465299890       -1.21971297571911        0.00283350473144
C           -0.70179030435458       -2.44182567606081       -0.00558226917391
C            0.70995281933886       -2.43329423900827       -0.01671946140178
C            1.40425362056596       -1.20544406238631       -0.01734663850769
C           -1.42100718364816        1.23802319276379        0.01142158422281
C           -0.71371124790074        0.01210737192130        0.00419201675404
C            0.69662278258530        0.01973468225901       -0.00490566209595
C            1.39269532792843        1.25181407640649       -0.00456445439844
C           -1.43678019460567        3.69454716549128        0.01814519737246
C           -0.72648727428595        2.46780376880193        0.01260207346922
C            0.68763185004693        2.47491106411321        0.00587371120321
C            1.38796883724352        3.70785928743814        0.00754274138593
C           -1.45548740463581        6.14509161825759        0.02136506486530
C           -0.74076216653290        4.92727481173861        0.01862356517608
C            0.68138743414368        4.93417062846427        0.01450474948204
C            1.38584062196257        6.15823262405998        0.01499632099020
C           -1.46926265073104        8.59810403849182        0.02082986106639
C           -0.75092368764082        7.38155953483742        0.02044211071792
C            0.67053236298093        7.38832579149892        0.01781959696143
C            1.37822065041607        8.61121080834591        0.01602657051004
C           -0.73569993810342        9.79104457472569        0.01823006737633
C            0.63379625559993        9.79740245613409        0.01606610787596
C            2.87830117210332       -8.55414158127371        0.04207706976909
C            3.64935413503315       -9.66079037081673        0.30477726944848
C            5.02528840975388       -9.69666831273308        0.24417292149153
C            5.73527141819504       -8.50199774521573        0.04882453222627
C            2.84791954076104       -6.08144740525322       -0.12812238177841
C            5.04423362213000       -7.29979410447115       -0.10427361484890
C            5.69017143599659       -6.06408139625996       -0.09823492808476
C            2.83212110198836       -3.65443959559484       -0.05275285515495
C            3.54794322875242       -4.87965275035533       -0.10536232780265
C            4.97422848340932       -4.84712245378702       -0.12826756004243
C            5.65207349047477       -3.62181457363807       -0.09875524128660
C            2.81867863704822       -1.19892170187207       -0.03336370786334
C            3.52821584716495       -2.41805732502685       -0.05431272891659
C            4.93980346312616       -2.39772336385915       -0.07649169841716
C            5.64030304471768       -1.17885715721276       -0.06129098795965
C            2.80696576977698        1.25594420359273       -0.01553214025255
C            3.51637074413830        0.03133933269769       -0.03164291655242
C            4.92737898196349        0.03945932158124       -0.04173307937959
C            5.62949768307450        1.26433628783875       -0.03067285084119
C            2.80042835942746        3.71096200208323        0.00132818582387
C            3.50493158189120        2.48039664933349       -0.01049142562258
C            4.91822281111125        2.47893250661357       -0.01639931102036
C            5.61979805139241        3.70684197387755       -0.00778027920977
C            2.80345425722681        6.16185079956723        0.01107906362520
C            3.50375922323489        4.93813703225185        0.00486827559213
C            4.92444145926549        4.93819501080977        0.00109193678843
C            5.64229543125157        6.14673074918298        0.00416959817068
C            2.82037292341845        8.61408092512489        0.01311182196894
C            3.52497536081752        7.39026789949000        0.01114093709617
C            4.94721345310838        7.38715865360744        0.00775135776111
C            5.67333483865771        8.59988172903547        0.00614245002743
C            3.56843510245682        9.79794842974708        0.01101858444555
C            4.94046094301922        9.79104268702005        0.00758566477812
C            7.18659581464750       -8.47294128156063        0.06965449421981
C            7.95766105814426       -9.63252046757987        0.10558285165389
C            9.34339213430318       -9.56928090588904        0.11817380212860
C           10.00165258570427       -8.35981440572670        0.10014200061792
C            7.11607988542245       -6.03261355898868       -0.02792142718954
C            7.85862405871192       -7.22890098168269        0.02964506319452
C            9.27786809984315       -7.16262023131977        0.05375946715274
C            9.92908776001526       -5.90245002592285        0.03366282021447
C            7.05812298834701       -3.59756606037749       -0.07416141670771
C            7.78616140387663       -4.79879805549544       -0.03987323065140
C            9.20748546752844       -4.74236181252130       -0.00611531507184
C            7.06074667365312       -1.16431478302656       -0.05790463049393
C            7.76411314530108       -2.37571300316445       -0.05765914241037
C            9.17911056562594       -2.37088664281409       -0.03185270589230
C            9.87041261654337       -1.18039781798903       -0.02103740944750
C            7.04904559755530        1.26397971876455       -0.03129174587040
C            7.76968300843509        0.05245142279666       -0.04016444395783
C            9.18767430530623        0.05886324363220       -0.02690993824767
C            9.85861549684195        1.30244497746217       -0.01482014685229
C            7.02184120326234        3.69873046706048       -0.00886358589459
C            7.74169908008754        2.48080035446657       -0.01801318991721
C            9.15639483744840        2.48819342017955       -0.01296761253880
C            7.06227754930706        6.13297253904485        0.00166877999595
C            7.74512468332266        4.90460484455862       -0.00234309704998
C            9.16630150424234        4.85812480592203       -0.00320595670088
C            9.87856626142972        6.02431768372856       -0.00346125972328
C            7.12364575560014        8.58645679802726        0.00194431184089
C            7.79872193446540        7.34075287749988        0.00099472532408
C            9.21759041439677        7.27986580168821       -0.00292462988502
C            9.94137773246715        8.47912042349620       -0.00738006074903
C            7.89593561700504        9.74594337930518       -0.00232644715254
C            9.28217087409934        9.68713278658388       -0.00740390464420
H          -11.01748112624337       -8.34890338514580       -0.03512117026984
H           -9.87806779718280      -10.54577420742893       -0.03622359779187
H           -7.45751881733792      -10.69877266882379       -0.02693980144465
H          -10.95021879277055       -3.73670566947795       -0.01972937065128
H          -10.96075145214095       -1.24899217772971       -0.01137600287562
H          -10.96552017728603        1.24161113707285       -0.00454997370360
H          -11.02358404141403        5.90045250006893        0.00862302292843
H          -11.10860114140683        8.34849140889630        0.01771535438814
H           -5.45504902973912      -10.72011927833653       -0.00847606973099
H           -3.07081914090496      -10.73049411446612        0.00329937124138
H           -1.12280729176631      -10.72155787494764        0.05344193007539
H            1.25429440683457      -10.69812884370976        0.07374823086907
H            3.12803507570958      -10.55756404298617        0.59231639743688
H            5.53292613242319      -10.62172543123468        0.43903830802435
H            7.49139936145997      -10.60368034341692        0.11009316922883
H            9.91091376754184      -10.48810158255242        0.14268918377631
H           11.08062312493078       -8.32310163230679        0.11831909960881
H           11.00675612063158       -5.86389045244868        0.05483418355820
H           10.94889273888702       -1.19593866248263       -0.00437337393888
H           10.93700272888186        1.32855165713735       -0.00658442681927
H           10.95688616684247        5.99493596455788       -0.00497550747804
H           11.02068191093290        8.44323464773476       -0.01147224489995
H            9.84819029063249       10.60749514061147       -0.01158862992369
H           -9.95366500579909       10.52275100718074        0.02750053498383
H           -7.53588351893056       10.65152874986598        0.03023263150699
H           -5.56027594371682       10.69058653179498        0.02222269413111
H           -3.18071940726471       10.72550540675565        0.02180107917366
H           -1.24409169007290       10.74127244878147        0.01744374746465
H            1.13351162257540       10.75223069611849        0.01382354698950
H            3.07139876565676       10.75433268747623        0.01175274946731
H            5.45121039303095       10.74042003707270        0.00572822000607
H            7.42947412509846       10.71770870893111       -0.00232474054783
O           -9.89011820567061        3.58643447875980        0.00591502232133
O            9.84257779166413        3.66776904086852       -0.00400040915484
O            9.87346745931895       -3.54760459939810       -0.01577250966077
O            3.58606935914623       -7.31831550647053       -0.38621951686757
O           -9.86396346347024       -6.06739116056775       -0.02519094002934
 
 Bond Distances (Angstroems)
 ---------------------------
C1-C2=1.3888         C1-C5=1.3833         C1-H166=1.0780       C2-C1=1.3888         C2-C3=1.3776         C2-H167=1.0798       
C3-C2=1.3776         C3-C4=1.4012         C3-H168=1.0775       C4-C3=1.4012         C4-C6=1.4097         C4-C33=1.4468        
C5-C1=1.3833         C5-C6=1.4076         C5-O202=1.3621       C6-C4=1.4097         C6-C5=1.4076         C6-C7=1.4245         
C7-C6=1.4245         C7-C10=1.4053        C7-C37=1.4013        C8-C9=1.3678         C8-C13=1.4209        C8-H169=1.0787       
C9-C8=1.3678         C9-C10=1.4227        C9-O202=1.3650       C10-C7=1.4053        C10-C9=1.4227        C10-C11=1.4053       
C11-C10=1.4053       C11-C14=1.4110       C11-C41=1.4163       C12-C13=1.3951       C12-C17=1.3987       C12-H170=1.0805      
C13-C8=1.4209        C13-C12=1.3951       C13-C14=1.4241       C14-C11=1.4110       C14-C13=1.4241       C14-C15=1.4070       
C15-C14=1.4070       C15-C18=1.4083       C15-C45=1.4217       C16-C17=1.4193       C16-C20=1.3716       C16-H171=1.0789      
C17-C12=1.3987       C17-C16=1.4193       C17-C18=1.4230       C18-C15=1.4083       C18-C17=1.4230       C18-C19=1.4102       
C19-C18=1.4102       C19-C21=1.4019       C19-C49=1.4189       C20-C16=1.3716       C20-C21=1.4187       C20-O198=1.3657      
C21-C19=1.4019       C21-C20=1.4187       C21-C22=1.4117       C22-C21=1.4117       C22-C25=1.4087       C22-C53=1.4031       
C23-C24=1.3669       C23-C28=1.4179       C23-H172=1.0787      C24-C23=1.3669       C24-C25=1.4209       C24-O198=1.3673      
C25-C22=1.4087       C25-C24=1.4209       C25-C26=1.4046       C26-C25=1.4046       C26-C29=1.4149       C26-C57=1.4207       
C27-C28=1.4011       C27-C31=1.3758       C27-H173=1.0799      C28-C23=1.4179       C28-C27=1.4011       C28-C29=1.4200       
C29-C26=1.4149       C29-C28=1.4200       C29-C30=1.4167       C30-C29=1.4167       C30-C32=1.3930       C30-C61=1.4502       
C31-C27=1.3758       C31-C32=1.3877       C31-H189=1.0805      C32-C30=1.3930       C32-C31=1.3877       C32-H190=1.0779      
C33-C4=1.4468        C33-C34=1.4017       C33-C38=1.4138       C34-C33=1.4017       C34-C35=1.3693       C34-H174=1.0781      
C35-C34=1.3693       C35-C36=1.4043       C35-H175=1.0779      C36-C35=1.4043       C36-C39=1.4125       C36-C67=1.4357       
C37-C7=1.4013        C37-C38=1.4230       C37-C42=1.4128       C38-C33=1.4138       C38-C37=1.4230       C38-C39=1.4191       
C39-C36=1.4125       C39-C38=1.4191       C39-C40=1.4273       C40-C39=1.4273       C40-C43=1.4126       C40-C71=1.4135       
C41-C11=1.4163       C41-C42=1.4093       C41-C46=1.4151       C42-C37=1.4128       C42-C41=1.4093       C42-C43=1.4188       
C43-C40=1.4126       C43-C42=1.4188       C43-C44=1.4132       C44-C43=1.4132       C44-C47=1.4178       C44-C75=1.4135       
C45-C15=1.4217       C45-C46=1.4095       C45-C50=1.4122       C46-C41=1.4151       C46-C45=1.4095       C46-C47=1.4145       
C47-C44=1.4178       C47-C46=1.4145       C47-C48=1.4113       C48-C47=1.4113       C48-C51=1.4133       C48-C79=1.4151       
C49-C19=1.4189       C49-C50=1.4124       C49-C54=1.4086       C50-C45=1.4122       C50-C49=1.4124       C50-C51=1.4128       
C51-C48=1.4133       C51-C50=1.4128       C51-C52=1.4157       C52-C51=1.4157       C52-C55=1.4095       C52-C83=1.4144       
C53-C22=1.4031       C53-C54=1.4134       C53-C58=1.4146       C54-C49=1.4086       C54-C53=1.4134       C54-C55=1.4137       
C55-C52=1.4095       C55-C54=1.4137       C55-C56=1.4178       C56-C55=1.4178       C56-C59=1.4146       C56-C87=1.4126       
C57-C26=1.4207       C57-C58=1.4058       C57-C62=1.4215       C58-C53=1.4146       C58-C57=1.4058       C58-C59=1.4204       
C59-C56=1.4146       C59-C58=1.4204       C59-C60=1.4101       C60-C59=1.4101       C60-C63=1.4243       C60-C91=1.4178       
C61-C30=1.4502       C61-C62=1.4139       C61-C65=1.3981       C62-C57=1.4215       C62-C61=1.4139       C62-C63=1.4222       
C63-C60=1.4243       C63-C62=1.4222       C63-C64=1.4124       C64-C63=1.4124       C64-C66=1.4001       C64-C95=1.4420       
C65-C61=1.3981       C65-C66=1.3722       C65-H191=1.0780      C66-C64=1.4001       C66-C65=1.3722       C66-H192=1.0778      
C67-C36=1.4357       C67-C68=1.4032       C67-C72=1.4166       C68-C67=1.4032       C68-C69=1.3665       C68-H176=1.0776      
C69-C68=1.3665       C69-C70=1.4090       C69-H177=1.0772      C70-C69=1.4090       C70-C73=1.4143       C70-C101=1.4124      
C71-C40=1.4135       C71-C72=1.4245       C71-C76=1.4137       C72-C67=1.4166       C72-C71=1.4245       C72-C73=1.4081       
C73-C70=1.4143       C73-C72=1.4081       C73-C74=1.4297       C74-C73=1.4297       C74-C77=1.4181       C74-C105=1.3981      
C75-C44=1.4135       C75-C76=1.4152       C75-C80=1.4178       C76-C71=1.4137       C76-C75=1.4152       C76-C77=1.4232       
C77-C74=1.4181       C77-C76=1.4232       C77-C78=1.4118       C78-C77=1.4118       C78-C81=1.4202       C78-C108=1.4091      
C79-C48=1.4151       C79-C80=1.4125       C79-C84=1.4149       C80-C75=1.4178       C80-C79=1.4125       C80-C81=1.4118       
C81-C78=1.4202       C81-C80=1.4118       C81-C82=1.4106       C82-C81=1.4106       C82-C85=1.4149       C82-C112=1.4145      
C83-C52=1.4144       C83-C84=1.4153       C83-C88=1.4123       C84-C79=1.4149       C84-C83=1.4153       C84-C85=1.4104       
C85-C82=1.4149       C85-C84=1.4104       C85-C86=1.4151       C86-C85=1.4151       C86-C89=1.4118       C86-C116=1.4143      
C87-C56=1.4126       C87-C88=1.4175       C87-C92=1.4156       C88-C83=1.4123       C88-C87=1.4175       C88-C89=1.4142       
C89-C86=1.4118       C89-C88=1.4142       C89-C90=1.4180       C90-C89=1.4180       C90-C93=1.4153       C90-C120=1.4125      
C91-C60=1.4178       C91-C92=1.4121       C91-C96=1.4231       C92-C87=1.4156       C92-C91=1.4121       C92-C93=1.4222       
C93-C90=1.4153       C93-C92=1.4222       C93-C94=1.4123       C94-C93=1.4123       C94-C97=1.4230       C94-C124=1.4176      
C95-C64=1.4420       C95-C96=1.4128       C95-C99=1.4004       C96-C91=1.4231       C96-C95=1.4128       C96-C97=1.4215       
C97-C94=1.4230       C97-C96=1.4215       C97-C98=1.4129       C98-C97=1.4129       C98-C100=1.4004      C98-C128=1.4422      
C99-C95=1.4004       C99-C100=1.3695      C99-H193=1.0777      C100-C98=1.4004      C100-C99=1.3695      C100-H194=1.0777     
C101-C70=1.4124      C101-C102=1.3741     C101-O201=1.4872     C102-C101=1.3741     C102-C103=1.3777     C102-H178=1.0764     
C103-C102=1.3777     C103-C104=1.4034     C103-H179=1.0730     C104-C103=1.4034     C104-C106=1.3951     C104-C134=1.4518     
C105-C74=1.3981      C105-C109=1.3910     C105-O201=1.4633     C106-C104=1.3951     C106-C107=1.3944     C106-O201=1.4853     
C107-C106=1.3944     C107-C110=1.4123     C107-C138=1.4280     C108-C78=1.4091      C108-C109=1.4200     C108-C113=1.4189     
C109-C105=1.3910     C109-C108=1.4200     C109-C110=1.4268     C110-C107=1.4123     C110-C109=1.4268     C110-C111=1.4006     
C111-C110=1.4006     C111-C114=1.4164     C111-C142=1.4065     C112-C82=1.4145      C112-C113=1.4107     C112-C117=1.4143     
C113-C108=1.4189     C113-C112=1.4107     C113-C114=1.4119     C114-C111=1.4164     C114-C113=1.4119     C114-C115=1.4059     
C115-C114=1.4059     C115-C118=1.4117     C115-C145=1.4205     C116-C86=1.4143      C116-C117=1.4153     C116-C121=1.4094     
C117-C112=1.4143     C117-C116=1.4153     C117-C118=1.4111     C118-C115=1.4117     C118-C117=1.4111     C118-C119=1.4119     
C119-C118=1.4119     C119-C122=1.4076     C119-C149=1.4195     C120-C90=1.4125      C120-C121=1.4180     C120-C125=1.4144     
C121-C116=1.4094     C121-C120=1.4180     C121-C122=1.4133     C122-C119=1.4076     C122-C121=1.4133     C122-C123=1.4142     
C123-C122=1.4142     C123-C126=1.4142     C123-C153=1.4021     C124-C94=1.4176      C124-C125=1.4099     C124-C129=1.4246     
C125-C120=1.4144     C125-C124=1.4099     C125-C126=1.4207     C126-C123=1.4142     C126-C125=1.4207     C126-C127=1.4057     
C127-C126=1.4057     C127-C130=1.4219     C127-C156=1.4201     C128-C98=1.4422      C128-C129=1.4122     C128-C132=1.4004     
C129-C124=1.4246     C129-C128=1.4122     C129-C130=1.4222     C130-C127=1.4219     C130-C129=1.4222     C130-C131=1.4135     
C131-C130=1.4135     C131-C133=1.3986     C131-C160=1.4504     C132-C128=1.4004     C132-C133=1.3720     C132-H195=1.0778     
C133-C131=1.3986     C133-C132=1.3720     C133-H196=1.0780     C134-C104=1.4518     C134-C135=1.3930     C134-C139=1.4145     
C135-C134=1.3930     C135-C136=1.3872     C135-H180=1.0773     C136-C135=1.3872     C136-C137=1.3771     C136-H181=1.0802     
C137-C136=1.3771     C137-C140=1.3997     C137-H182=1.0797     C138-C107=1.4280     C138-C139=1.4092     C138-C143=1.4041     
C139-C134=1.4145     C139-C138=1.4092     C139-C140=1.4210     C140-C137=1.3997     C140-C139=1.4210     C140-C141=1.4186     
C141-C140=1.4186     C141-C144=1.3668     C141-H183=1.0786     C142-C111=1.4065     C142-C143=1.4051     C142-C146=1.4112     
C143-C138=1.4041     C143-C142=1.4051     C143-C144=1.4228     C144-C141=1.3668     C144-C143=1.4228     C144-O200=1.3679     
C145-C115=1.4205     C145-C146=1.4008     C145-C150=1.4083     C146-C142=1.4112     C146-C145=1.4008     C146-C147=1.4152     
C147-C146=1.4152     C147-C148=1.3767     C147-O200=1.3664     C148-C147=1.3767     C148-C151=1.4149     C148-H184=1.0787     
C149-C119=1.4195     C149-C150=1.4097     C149-C154=1.4002     C150-C145=1.4083     C150-C149=1.4097     C150-C151=1.4181     
C151-C148=1.4149     C151-C150=1.4181     C151-C152=1.4131     C152-C151=1.4131     C152-C155=1.3781     C152-H185=1.0787     
C153-C123=1.4021     C153-C154=1.4148     C153-C157=1.4062     C154-C149=1.4002     C154-C153=1.4148     C154-C155=1.4147     
C155-C152=1.3781     C155-C154=1.4147     C155-O199=1.3647     C156-C127=1.4201     C156-C157=1.4054     C156-C161=1.4146     
C157-C153=1.4062     C157-C156=1.4054     C157-C158=1.4219     C158-C157=1.4219     C158-C159=1.3665     C158-O199=1.3690     
C159-C158=1.3665     C159-C162=1.4189     C159-H186=1.0787     C160-C131=1.4504     C160-C161=1.4169     C160-C164=1.3931     
C161-C156=1.4146     C161-C160=1.4169     C161-C162=1.4202     C162-C159=1.4189     C162-C161=1.4202     C162-C163=1.4007     
C163-C162=1.4007     C163-C165=1.3762     C163-H187=1.0799     C164-C160=1.3931     C164-C165=1.3875     C164-H197=1.0779     
C165-C163=1.3762     C165-C164=1.3875     C165-H188=1.0805     H166-C1=1.0780       H167-C2=1.0798       H168-C3=1.0775       
H169-C8=1.0787       H170-C12=1.0805      H171-C16=1.0789      H172-C23=1.0787      H173-C27=1.0799      H174-C34=1.0781      
H175-C35=1.0779      H176-C68=1.0776      H177-C69=1.0772      H178-C102=1.0764     H179-C103=1.0730     H180-C135=1.0773     
H181-C136=1.0802     H182-C137=1.0797     H183-C141=1.0786     H184-C148=1.0787     H185-C152=1.0787     H186-C159=1.0787     
H187-C163=1.0799     H188-C165=1.0805     H189-C31=1.0805      H190-C32=1.0779      H191-C65=1.0780      H192-C66=1.0778      
H193-C99=1.0777      H194-C100=1.0777     H195-C132=1.0778     H196-C133=1.0780     H197-C164=1.0779     O198-C20=1.3657      
O198-C24=1.3673      O199-C155=1.3647     O199-C158=1.3690     O200-C144=1.3679     O200-C147=1.3664     O201-C101=1.4872     
O201-C105=1.4633     O201-C106=1.4853     O202-C5=1.3621       O202-C9=1.3650       
 C  H  Rav=1.0784 sigma=0.0014  Rmin=1.0730  Rmax=1.0805    32
 C  C  Rav=1.4098 sigma=0.0149  Rmin=1.3665  Rmax=1.4518   226
 O  C  Rav=1.3967 sigma=0.0505  Rmin=1.3621  Rmax=1.4872    11
 
 selected bond angles (degree)
 --------------------
C5-C1-C2=119.17                H166-C1-C2=121.43              H166-C1-C5=119.40              C3-C2-C1=121.42                
H167-C2-C1=119.02              H167-C2-C3=119.56              C4-C3-C2=120.95                H168-C3-C2=118.56              
H168-C3-C4=120.49              C6-C4-C3=117.59                C33-C4-C3=123.94               C33-C4-C6=118.47               
C6-C5-C1=119.98                O202-C5-C1=117.54              O202-C5-C6=122.48              C5-C6-C4=120.89                
C7-C6-C4=120.54                C7-C6-C5=118.58                C10-C7-C6=118.25               C37-C7-C6=120.81               
C37-C7-C10=120.94              C13-C8-C9=121.03               H169-C8-C9=119.47              H169-C8-C13=119.50             
C10-C9-C8=120.85               O202-C9-C8=118.92              O202-C9-C10=120.23             C9-C10-C7=120.45               
C11-C10-C7=120.11              C11-C10-C9=119.43              
 
 selected dihedral angles (degree)
 ---------------------------------
C3-C2-C1-C5=  0.03            C3-C2-C1-H166=180.02          H167-C2-C1-C5=180.02          H167-C2-C1-H166=  0.00        
C4-C3-C2-C1=359.96            C4-C3-C2-H167=179.97          H168-C3-C2-C1=180.00          H168-C3-C2-H167=  0.00        
C6-C4-C3-C2=  0.00            C6-C4-C3-H168=179.95          C33-C4-C3-C2=180.02           C33-C4-C3-H168=359.98         
C6-C5-C1-C2=  0.03            C6-C5-C1-H166=180.04          O202-C5-C1-C2=180.03          O202-C5-C1-H166=  0.03        
C5-C6-C4-C3=  0.06            C5-C6-C4-C33=180.04           C7-C6-C4-C3=180.03            C7-C6-C4-C33=  0.00           
C4-C6-C5-C1=359.92            C4-C6-C5-O202=179.93          C7-C6-C5-C1=179.95            C7-C6-C5-O202=359.96          
C10-C7-C6-C4=180.16           C10-C7-C6-C5=  0.13           C37-C7-C6-C4=  0.17           C37-C7-C6-C5=180.13           
C10-C9-C8-C13=359.98          C10-C9-C8-H169=179.97         O202-C9-C8-C13=180.01         O202-C9-C8-H169=  0.00        
C9-C10-C7-C6=359.89           C9-C10-C7-C37=179.89          C11-C10-C7-C6=179.90          C11-C10-C7-C37=359.90         
C7-C10-C9-C8=180.02           C7-C10-C9-O202=  0.00         C11-C10-C9-C8=  0.00          C11-C10-C9-O202=179.98        
           -------------------------------------------------
          |                Final Singlepoint                |
           -------------------------------------------------

          ...................................................
          :                      SETUP                      :
          :.................................................:
          :  # basis functions                 712          :
          :  # atomic orbitals                 712          :
          :  # shells                          372          :
          :  # electrons                       722          :
          :  max. iterations                   250          :
          :  Hamiltonian                  GFN2-xTB          :
          :  restarted?                      false          :
          :  GBSA solvation                  false          :
          :  PC potential                    false          :
          :  electronic temp.          300.0000000     K    :
          :  accuracy                    1.0000000          :
          :  -> integral cutoff          0.2500000E+02      :
          :  -> integral neglect         0.1000000E-07      :
          :  -> SCF convergence          0.1000000E-05 Eh   :
          :  -> wf. convergence          0.1000000E-03 e    :
          :  Broyden damping             0.4000000          :
          :  net charge                          0          :
          :  unpaired electrons                  0          :
          ...................................................

 iter      E             dE          RMSdq      gap      omega  full diag
   1   -398.8241804 -0.398824E+03  0.238E-05    0.13       0.0  T
   2   -398.8241804  0.427292E-09  0.350E-05    0.13     201.0  T
   3   -398.8241804 -0.227374E-11  0.344E-05    0.13     204.6  T

   *** convergence criteria satisfied after 3 iterations ***

         #    Occupation            Energy/Eh            Energy/eV
      -------------------------------------------------------------
         1        2.0000           -0.7701237             -20.9561
       ...           ...                  ...                  ...
       355        2.0000           -0.3673477              -9.9960
       356        2.0000           -0.3659780              -9.9588
       357        2.0000           -0.3573999              -9.7253
       358        2.0000           -0.3545971              -9.6491
       359        2.0000           -0.3510548              -9.5527
       360        2.0000           -0.3417455              -9.2994
       361        1.8406           -0.3213396              -8.7441 (HOMO)
       362        0.1594           -0.3166912              -8.6176 (LUMO)
       363                         -0.2975654              -8.0972
       364                         -0.2934765              -7.9859
       365                         -0.2888175              -7.8591
       366                         -0.2779407              -7.5632
       ...                                ...                  ...
       712                          0.7918335              21.5469
      -------------------------------------------------------------
                  HL-Gap            0.0046484 Eh            0.1265 eV
             Fermi-level           -0.3190154 Eh           -8.6809 eV

 SCC (total)                   0 d,  0 h,  0 min,  1.105 sec
 SCC setup                      ...        0 min,  0.004 sec (  0.362%)
 Dispersion                     ...        0 min,  0.010 sec (  0.905%)
 classical contributions        ...        0 min,  0.001 sec (  0.091%)
 integral evaluation            ...        0 min,  0.088 sec (  7.964%)
 iterations                     ...        0 min,  0.532 sec ( 48.145%)
 molecular gradient             ...        0 min,  0.454 sec ( 41.086%)
 printout                       ...        0 min,  0.016 sec (  1.448%)

         :::::::::::::::::::::::::::::::::::::::::::::::::::::
         ::                     SUMMARY                     ::
         :::::::::::::::::::::::::::::::::::::::::::::::::::::
         :: total energy            -391.437662077621 Eh    ::
         :: gradient norm              0.000420749053 Eh/a0 ::
         :: HOMO-LUMO gap              0.126490268099 eV    ::
         ::.................................................::
         :: SCC energy              -398.841079684070 Eh    ::
         :: -> isotropic ES            0.051814920626 Eh    ::
         :: -> anisotropic ES          0.018455001918 Eh    ::
         :: -> anisotropic XC          0.108693007096 Eh    ::
         :: -> dispersion             -0.487703172237 Eh    ::
         :: repulsion energy           7.403417606449 Eh    ::
         :: add. restraining           0.000000000000 Eh    ::
         :: total charge              -0.000000000236 e     ::
         :::::::::::::::::::::::::::::::::::::::::::::::::::::

           -------------------------------------------------
          |                Property Printout                |
           -------------------------------------------------

    * Orbital Energies and Occupations

         #    Occupation            Energy/Eh            Energy/eV
      -------------------------------------------------------------
         1        2.0000           -0.7701237             -20.9561
       ...           ...                  ...                  ...
       349        2.0000           -0.3867685             -10.5245
       350        2.0000           -0.3864904             -10.5169
       351        2.0000           -0.3854861             -10.4896
       352        2.0000           -0.3818663             -10.3911
       353        2.0000           -0.3752827             -10.2120
       354        2.0000           -0.3695766             -10.0567
       355        2.0000           -0.3673477              -9.9960
       356        2.0000           -0.3659780              -9.9588
       357        2.0000           -0.3573999              -9.7253
       358        2.0000           -0.3545971              -9.6491
       359        2.0000           -0.3510548              -9.5527
       360        2.0000           -0.3417455              -9.2994
       361        1.8406           -0.3213396              -8.7441 (HOMO)
       362        0.1594           -0.3166912              -8.6176 (LUMO)
       363                         -0.2975654              -8.0972
       364                         -0.2934765              -7.9859
       365                         -0.2888175              -7.8591
       366                         -0.2779407              -7.5632
       367                         -0.2743896              -7.4665
       368                         -0.2738554              -7.4520
       369                         -0.2656486              -7.2287
       370                         -0.2636307              -7.1738
       371                         -0.2614709              -7.1150
       372                         -0.2580356              -7.0215
       ...                                ...                  ...
       712                          0.7918335              21.5469
      -------------------------------------------------------------
                  HL-Gap            0.0046484 Eh            0.1265 eV
             Fermi-level           -0.3190154 Eh           -8.6809 eV

     #   Z          covCN         q      C6AA      α(0)
     1   6 C        2.915    -0.059    29.468     8.902
     2   6 C        2.918    -0.030    28.740     8.791
     3   6 C        2.919    -0.046    29.132     8.851
     4   6 C        2.977     0.006    27.889     8.663
     5   6 C        2.878     0.140    24.943     8.187
     6   6 C        2.996    -0.017    28.412     8.744
     7   6 C        2.996     0.007    27.858     8.658
     8   6 C        2.914    -0.073    29.824     8.955
     9   6 C        2.869     0.136    25.021     8.199
    10   6 C        2.993    -0.015    28.365     8.736
    11   6 C        2.994    -0.001    28.036     8.686
    12   6 C        2.921    -0.048    29.196     8.861
    13   6 C        2.976     0.014    27.699     8.633
    14   6 C        2.996    -0.006    28.150     8.703
    15   6 C        2.992     0.003    27.937     8.670
    16   6 C        2.915    -0.071    29.768     8.947
    17   6 C        2.975     0.014    27.698     8.633
    18   6 C        2.996    -0.006    28.169     8.706
    19   6 C        2.994    -0.000    28.023     8.684
    20   6 C        2.866     0.138    24.981     8.193
    21   6 C        2.994    -0.017    28.414     8.744
    22   6 C        2.999     0.007    27.859     8.658
    23   6 C        2.917    -0.071    29.774     8.948
    24   6 C        2.867     0.137    25.002     8.196
    25   6 C        2.995    -0.016    28.393     8.741
    26   6 C        2.990    -0.000    28.028     8.684
    27   6 C        2.921    -0.038    28.948     8.823
    28   6 C        2.983     0.013    27.711     8.635
    29   6 C        2.996    -0.003    28.094     8.695
    30   6 C        2.975     0.007    27.855     8.657
    31   6 C        2.913    -0.030    28.738     8.791
    32   6 C        2.921    -0.039    28.961     8.825
    33   6 C        2.977     0.003    27.954     8.673
    34   6 C        2.918    -0.036    28.885     8.813
    35   6 C        2.918    -0.038    28.944     8.822
    36   6 C        2.978     0.006    27.892     8.663
    37   6 C        2.990    -0.004    28.116     8.698
    38   6 C        2.990     0.002    27.964     8.674
    39   6 C        2.990    -0.001    28.040     8.686
    40   6 C        2.985     0.001    27.998     8.680
    41   6 C        2.992    -0.001    28.037     8.686
    42   6 C        2.991     0.001    28.006     8.681
    43   6 C        2.989     0.001    28.000     8.680
    44   6 C        2.990     0.000    28.016     8.682
    45   6 C        2.991     0.001    28.002     8.680
    46   6 C        2.992     0.000    28.008     8.681
    47   6 C        2.990    -0.001    28.042     8.687
    48   6 C        2.991     0.000    28.019     8.683
    49   6 C        2.993    -0.000    28.024     8.684
    50   6 C        2.993     0.001    28.004     8.681
    51   6 C        2.991    -0.001    28.036     8.686
    52   6 C        2.991     0.000    28.017     8.683
    53   6 C        2.994    -0.004    28.108     8.697
    54   6 C        2.993     0.001    27.997     8.680
    55   6 C        2.991    -0.000    28.021     8.683
    56   6 C        2.989     0.000    28.013     8.682
    57   6 C        2.988    -0.000    28.028     8.684
    58   6 C        2.990     0.000    28.013     8.682
    59   6 C        2.989    -0.000    28.028     8.684
    60   6 C        2.986     0.000    28.018     8.683
    61   6 C        2.976     0.005    27.908     8.665
    62   6 C        2.990     0.002    27.978     8.677
    63   6 C        2.990     0.001    27.991     8.679
    64   6 C        2.978     0.005    27.912     8.666
    65   6 C        2.918    -0.036    28.894     8.815
    66   6 C        2.918    -0.037    28.915     8.818
    67   6 C        2.978    -0.002    28.065     8.690
    68   6 C        2.918    -0.034    28.838     8.806
    69   6 C        2.920    -0.044    29.101     8.846
    70   6 C        2.976    -0.005    28.137     8.701
    71   6 C        2.987    -0.001    28.050     8.688
    72   6 C        2.989     0.003    27.949     8.672
    73   6 C        2.991    -0.013    28.326     8.730
    74   6 C        2.982    -0.008    28.216     8.713
    75   6 C        2.989    -0.000    28.030     8.685
    76   6 C        2.986     0.000    28.020     8.683
    77   6 C        2.991    -0.000    28.020     8.683
    78   6 C        2.989    -0.002    28.070     8.691
    79   6 C        2.991     0.001    28.007     8.681
    80   6 C        2.990    -0.000    28.021     8.683
    81   6 C        2.991    -0.001    28.041     8.686
    82   6 C        2.991     0.000    28.014     8.682
    83   6 C        2.991    -0.001    28.033     8.685
    84   6 C        2.991     0.000    28.008     8.681
    85   6 C        2.991     0.000    28.015     8.682
    86   6 C        2.991    -0.000    28.030     8.685
    87   6 C        2.989    -0.000    28.028     8.684
    88   6 C        2.990     0.000    28.016     8.682
    89   6 C        2.990     0.000    28.010     8.682
    90   6 C        2.989    -0.000    28.028     8.684
    91   6 C        2.986     0.000    28.021     8.683
    92   6 C        2.987    -0.000    28.028     8.684
    93   6 C        2.987    -0.000    28.028     8.684
    94   6 C        2.986    -0.000    28.025     8.684
    95   6 C        2.978     0.005    27.912     8.666
    96   6 C        2.989     0.001    27.986     8.678
    97   6 C        2.989     0.001    27.986     8.678
    98   6 C        2.978     0.005    27.914     8.666
    99   6 C        2.919    -0.037    28.910     8.817
   100   6 C        2.919    -0.036    28.908     8.817
   101   6 C        2.831     0.056    26.729     8.472
   102   6 C        2.910    -0.045    29.124     8.849
   103   6 C        2.913    -0.072    29.805     8.952
   104   6 C        2.975     0.002    27.972     8.675
   105   6 C        2.848     0.078    26.245     8.396
   106   6 C        2.845     0.070    26.417     8.423
   107   6 C        2.982    -0.009    28.242     8.717
   108   6 C        2.993    -0.000    28.028     8.684
   109   6 C        2.983    -0.008    28.215     8.713
   110   6 C        2.991    -0.014    28.349     8.734
   111   6 C        2.994    -0.002    28.067     8.690
   112   6 C        2.992     0.000    28.008     8.681
   113   6 C        2.991    -0.000    28.026     8.684
   114   6 C        2.994    -0.001    28.041     8.686
   115   6 C        2.993     0.001    28.003     8.680
   116   6 C        2.992    -0.000    28.025     8.684
   117   6 C        2.991    -0.001    28.034     8.685
   118   6 C        2.994     0.002    27.982     8.677
   119   6 C        2.993    -0.000    28.025     8.684
   120   6 C        2.989     0.000    28.010     8.682
   121   6 C        2.991    -0.000    28.030     8.685
   122   6 C        2.994     0.001    27.988     8.678
   123   6 C        2.994    -0.004    28.110     8.697
   124   6 C        2.986     0.000    28.015     8.682
   125   6 C        2.989    -0.000    28.029     8.685
   126   6 C        2.991     0.000    28.014     8.682
   127   6 C        2.989    -0.001    28.038     8.686
   128   6 C        2.978     0.005    27.912     8.666
   129   6 C        2.989     0.001    27.991     8.679
[...]
    16   6 C       17   6 C                                       1.4193402
    15   6 C       18   6 C                                       1.4083135
    17   6 C       18   6 C                                       1.4229773
    18   6 C       19   6 C                                       1.4102355
    16   6 C       20   6 C                                       1.3716052
    19   6 C       21   6 C                                       1.4019396
    20   6 C       21   6 C                                       1.4187114
    21   6 C       22   6 C                                       1.4117060
    23   6 C       24   6 C                                       1.3668750
    22   6 C       25   6 C                                       1.4086547
    24   6 C       25   6 C                                       1.4209202
    25   6 C       26   6 C                                       1.4045781
    23   6 C       28   6 C                                       1.4179455
    27   6 C       28   6 C                                       1.4011101
    26   6 C       29   6 C                                       1.4148651
    28   6 C       29   6 C                                       1.4199914
    29   6 C       30   6 C                                       1.4167281
    27   6 C       31   6 C                                       1.3757986
    30   6 C       32   6 C                                       1.3929784
    31   6 C       32   6 C                                       1.3877197
    33   6 C       34   6 C                                       1.4017028
    34   6 C       35   6 C                                       1.3693127
    35   6 C       36   6 C                                       1.4042667
     7   6 C       37   6 C                                       1.4013342
    33   6 C       38   6 C                                       1.4138391
    37   6 C       38   6 C                                       1.4229518
    36   6 C       39   6 C                                       1.4124957
    38   6 C       39   6 C                                       1.4190604
    39   6 C       40   6 C                                       1.4273379
    11   6 C       41   6 C                                       1.4163068
    37   6 C       42   6 C                                       1.4128121
    41   6 C       42   6 C                                       1.4093360
    40   6 C       43   6 C                                       1.4126134
    42   6 C       43   6 C                                       1.4188411
    43   6 C       44   6 C                                       1.4132240
    15   6 C       45   6 C                                       1.4217210
    41   6 C       46   6 C                                       1.4151328
    45   6 C       46   6 C                                       1.4094605
    44   6 C       47   6 C                                       1.4178494
    46   6 C       47   6 C                                       1.4144673
    47   6 C       48   6 C                                       1.4112636
    19   6 C       49   6 C                                       1.4188728
    45   6 C       50   6 C                                       1.4122434
    49   6 C       50   6 C                                       1.4124349
    48   6 C       51   6 C                                       1.4132832
    50   6 C       51   6 C                                       1.4127955
    51   6 C       52   6 C                                       1.4156820
    22   6 C       53   6 C                                       1.4030678
    49   6 C       54   6 C                                       1.4086393
    53   6 C       54   6 C                                       1.4133652
    52   6 C       55   6 C                                       1.4094767
    54   6 C       55   6 C                                       1.4137334
    55   6 C       56   6 C                                       1.4178155
    26   6 C       57   6 C                                       1.4206599
    53   6 C       58   6 C                                       1.4145912
    57   6 C       58   6 C                                       1.4058445
    56   6 C       59   6 C                                       1.4145945
    58   6 C       59   6 C                                       1.4204158
    59   6 C       60   6 C                                       1.4101056
    57   6 C       62   6 C                                       1.4215295
    61   6 C       62   6 C                                       1.4138648
    60   6 C       63   6 C                                       1.4242564
    62   6 C       63   6 C                                       1.4221671
    63   6 C       64   6 C                                       1.4123573
    61   6 C       65   6 C                                       1.3981234
    64   6 C       66   6 C                                       1.4000656
    65   6 C       66   6 C                                       1.3721838
    67   6 C       68   6 C                                       1.4031781
    68   6 C       69   6 C                                       1.3664909
    69   6 C       70   6 C                                       1.4090352
    40   6 C       71   6 C                                       1.4135319
    67   6 C       72   6 C                                       1.4165593
    71   6 C       72   6 C                                       1.4245167
    70   6 C       73   6 C                                       1.4143140
    72   6 C       73   6 C                                       1.4081067
    73   6 C       74   6 C                                       1.4297125
    44   6 C       75   6 C                                       1.4134903
    71   6 C       76   6 C                                       1.4136958
    75   6 C       76   6 C                                       1.4152073
    74   6 C       77   6 C                                       1.4181426
    76   6 C       77   6 C                                       1.4231562
    77   6 C       78   6 C                                       1.4118029
    48   6 C       79   6 C                                       1.4151459
    75   6 C       80   6 C                                       1.4178119
    79   6 C       80   6 C                                       1.4124547
    78   6 C       81   6 C                                       1.4202399
    80   6 C       81   6 C                                       1.4118130
    81   6 C       82   6 C                                       1.4105568
    52   6 C       83   6 C                                       1.4144392
    79   6 C       84   6 C                                       1.4149350
    83   6 C       84   6 C                                       1.4153409
    82   6 C       85   6 C                                       1.4149062
    84   6 C       85   6 C                                       1.4103841
    85   6 C       86   6 C                                       1.4151103
    56   6 C       87   6 C                                       1.4126035
    83   6 C       88   6 C                                       1.4123455
    87   6 C       88   6 C                                       1.4175495
    86   6 C       89   6 C                                       1.4118038
    88   6 C       89   6 C                                       1.4141531
    89   6 C       90   6 C                                       1.4179691
    60   6 C       91   6 C                                       1.4177759
    87   6 C       92   6 C                                       1.4156480
    91   6 C       92   6 C                                       1.4120616
    90   6 C       93   6 C                                       1.4153253
    92   6 C       93   6 C                                       1.4221724
    93   6 C       94   6 C                                       1.4122969
    91   6 C       96   6 C                                       1.4231178
    95   6 C       96   6 C                                       1.4127958
    94   6 C       97   6 C                                       1.4229559
    96   6 C       97   6 C                                       1.4214747
    97   6 C       98   6 C                                       1.4128956
    95   6 C       99   6 C                                       1.4004387
    98   6 C      100   6 C                                       1.4004352
    99   6 C      100   6 C                                       1.3695128
    70   6 C      101   6 C                                       1.4123670
   101   6 C      102   6 C                                       1.3741201
   102   6 C      103   6 C                                       1.3777357
   103   6 C      104   6 C                                       1.4033798
    74   6 C      105   6 C                                       1.3980909
   104   6 C      106   6 C                                       1.3950865
   106   6 C      107   6 C                                       1.3943667
    78   6 C      108   6 C                                       1.4091252
   105   6 C      109   6 C                                       1.3909931
   108   6 C      109   6 C                                       1.4199707
   107   6 C      110   6 C                                       1.4122555
   109   6 C      110   6 C                                       1.4268402
   110   6 C      111   6 C                                       1.4006158
    82   6 C      112   6 C                                       1.4145309
   108   6 C      113   6 C                                       1.4188699
   112   6 C      113   6 C                                       1.4107353
   111   6 C      114   6 C                                       1.4164123
   113   6 C      114   6 C                                       1.4119084
   114   6 C      115   6 C                                       1.4059040
    86   6 C      116   6 C                                       1.4143191
   112   6 C      117   6 C                                       1.4143266
   116   6 C      117   6 C                                       1.4153347
   115   6 C      118   6 C                                       1.4117148
   117   6 C      118   6 C                                       1.4110678
   118   6 C      119   6 C                                       1.4118842
    90   6 C      120   6 C                                       1.4124767
   116   6 C      121   6 C                                       1.4094204
   120   6 C      121   6 C                                       1.4180113
   119   6 C      122   6 C                                       1.4076079
   121   6 C      122   6 C                                       1.4133045
   122   6 C      123   6 C                                       1.4142292
    94   6 C      124   6 C                                       1.4176238
   120   6 C      125   6 C                                       1.4144419
   124   6 C      125   6 C                                       1.4099437
   123   6 C      126   6 C                                       1.4141535
   125   6 C      126   6 C                                       1.4206874
   126   6 C      127   6 C                                       1.4056610
   124   6 C      129   6 C                                       1.4246409
   128   6 C      129   6 C                                       1.4121569
   127   6 C      130   6 C                                       1.4219049
   129   6 C      130   6 C                                       1.4222457
   130   6 C      131   6 C                                       1.4134895
   128   6 C      132   6 C                                       1.4004085
   131   6 C      133   6 C                                       1.3985603
   132   6 C      133   6 C                                       1.3720476
   134   6 C      135   6 C                                       1.3930028
   135   6 C      136   6 C                                       1.3872306
   136   6 C      137   6 C                                       1.3771135
   107   6 C      138   6 C                                       1.4279879
   134   6 C      139   6 C                                       1.4145174
   138   6 C      139   6 C                                       1.4091805
   137   6 C      140   6 C                                       1.3997463
   139   6 C      140   6 C                                       1.4209957
   140   6 C      141   6 C                                       1.4186332
   111   6 C      142   6 C                                       1.4064737
   138   6 C      143   6 C                                       1.4040845
   142   6 C      143   6 C                                       1.4050531
   141   6 C      144   6 C                                       1.3667835
   143   6 C      144   6 C                                       1.4228447
   115   6 C      145   6 C                                       1.4205222
   142   6 C      146   6 C                                       1.4112476
   145   6 C      146   6 C                                       1.4007892
   146   6 C      147   6 C                                       1.4152411
   147   6 C      148   6 C                                       1.3766915
   119   6 C      149   6 C                                       1.4195482
   145   6 C      150   6 C                                       1.4083415
   149   6 C      150   6 C                                       1.4096802
   148   6 C      151   6 C                                       1.4148973
   150   6 C      151   6 C                                       1.4180679
   151   6 C      152   6 C                                       1.4130832
   123   6 C      153   6 C                                       1.4020672
   149   6 C      154   6 C                                       1.4002136
   153   6 C      154   6 C                                       1.4147909
   152   6 C      155   6 C                                       1.3780845
   154   6 C      155   6 C                                       1.4147242
   127   6 C      156   6 C                                       1.4200511
   153   6 C      157   6 C                                       1.4061703
   156   6 C      157   6 C                                       1.4054123
   157   6 C      158   6 C                                       1.4219371
   158   6 C      159   6 C                                       1.3665019
   156   6 C      161   6 C                                       1.4145969
   160   6 C      161   6 C                                       1.4168653
   159   6 C      162   6 C                                       1.4189048
   161   6 C      162   6 C                                       1.4201798
   162   6 C      163   6 C                                       1.4007498
   160   6 C      164   6 C                                       1.3931473
   163   6 C      165   6 C                                       1.3761715
   164   6 C      165   6 C                                       1.3874916
     1   6 C      166   1 H                                       1.0779780
     2   6 C      167   1 H                                       1.0797576
     3   6 C      168   1 H                                       1.0775437
     8   6 C      169   1 H                                       1.0787493
    12   6 C      170   1 H                                       1.0804776
    16   6 C      171   1 H                                       1.0788569
    23   6 C      172   1 H                                       1.0787257
    27   6 C      173   1 H                                       1.0799030
    34   6 C      174   1 H                                       1.0781242
    35   6 C      175   1 H                                       1.0778906
    68   6 C      176   1 H                                       1.0776208
    69   6 C      177   1 H                                       1.0772051
   102   6 C      178   1 H                                       1.0764086
   103   6 C      179   1 H                                       1.0730328 (min)
   135   6 C      180   1 H                                       1.0772985
   136   6 C      181   1 H                                       1.0802377
   137   6 C      182   1 H                                       1.0797481
   141   6 C      183   1 H                                       1.0785659
   148   6 C      184   1 H                                       1.0787209
   152   6 C      185   1 H                                       1.0787347
   159   6 C      186   1 H                                       1.0787213
   163   6 C      187   1 H                                       1.0799085
   165   6 C      188   1 H                                       1.0804918
    31   6 C      189   1 H                                       1.0804748
    32   6 C      190   1 H                                       1.0779041
    65   6 C      191   1 H                                       1.0780195
    66   6 C      192   1 H                                       1.0778059
    99   6 C      193   1 H                                       1.0776809
   100   6 C      194   1 H                                       1.0776909
   132   6 C      195   1 H                                       1.0778296
   133   6 C      196   1 H                                       1.0780473
   164   6 C      197   1 H                                       1.0779213
    20   6 C      198   8 O                                       1.3657173
    24   6 C      198   8 O                                       1.3672570
   155   6 C      199   8 O                                       1.3646708
   158   6 C      199   8 O                                       1.3690498
   144   6 C      200   8 O                                       1.3678708
   147   6 C      200   8 O                                       1.3664024
   101   6 C      201   8 O                                       1.4871585 (max)
   105   6 C      201   8 O                                       1.4633258
   106   6 C      201   8 O                                       1.4852878
     5   6 C      202   8 O                                       1.3621276
     9   6 C      202   8 O                                       1.3650183

 * 3 distinct bonds (by element types)

   Z      Z             #   av. dist./Å        max./Å        min./Å
   1 H    6 C          32     1.0783774     1.0804918     1.0730328
   6 C    6 C         219     1.4086998     1.4297125     1.3664909
   6 C    8 O          11     1.3967169     1.4871585     1.3621276


optimized geometry written to: xtbopt.xyz


           -------------------------------------------------
          | TOTAL ENERGY             -391.437662077621 Eh   |
          | GRADIENT NORM               0.000420749053 Eh/α |
          | HOMO-LUMO GAP               0.126490268099 eV   |
           -------------------------------------------------

------------------------------------------------------------------------
 * finished run on 2025/12/08 at 00:48:06.203     
------------------------------------------------------------------------
 total:
 * wall-time:     0 d,  0 h,  0 min, 37.570 sec
 *  cpu-time:     0 d,  0 h,  2 min, 27.516 sec
 * ratio c/w:     3.926 speedup
 SCF:
 * wall-time:     0 d,  0 h,  0 min,  5.965 sec
 *  cpu-time:     0 d,  0 h,  0 min, 23.359 sec
 * ratio c/w:     3.916 speedup
 ANC optimizer:
 * wall-time:     0 d,  0 h,  0 min, 31.430 sec
 *  cpu-time:     0 d,  0 h,  2 min,  3.469 sec
 * ratio c/w:     3.928 speedup

normal termination of xtb
