202
 energy: -391.437662077621 gnorm: 0.000420749053 xtb: 6.7.1pre (5071a88)
C           -9.94146233165233       -8.41375326959895       -0.03132110965851
C           -9.28994574888618       -9.64025309573331       -0.03172318299340
C           -7.91486560704983       -9.72310170444949       -0.02637921333728
C           -7.12324766196137       -8.56691656310890       -0.02119378037897
C           -9.19105610738538       -7.25169952431235       -0.02597486917237
C           -7.78525475174694       -7.32232854821257       -0.02174173788865
C           -7.04198736846784       -6.10714029598350       -0.01732978782452
C           -9.87172116197744       -3.71368450572284       -0.01616195225606
C           -9.17355139409565       -4.88986828876613       -0.01843884271061
C           -7.75091226167362       -4.89380559052267       -0.01454608857799
C           -7.05692067921616       -3.67178916639044       -0.00805763329786
C           -9.88028849870376       -1.24504377945474       -0.00740705891716
C           -9.19865883137578       -2.46229712723852       -0.00932910812377
C           -7.77453656656738       -2.45688122811333       -0.00485306648363
C           -7.07171625556636       -1.23806851573489        0.00206650046081
C           -9.88678262863292        1.22621165468747       -0.00006785495110
C           -9.20638662608098       -0.01941540343565       -0.00094544836931
C           -7.78342312615148       -0.02282573730324        0.00428119349267
C           -7.07551412271180        1.19684313625940        0.01033043656384
C           -9.19524053949475        2.41070981190186        0.00577555997605
C           -7.77653937965002        2.41092599040231        0.01113023644882
C           -7.06998447720579        3.63308499246464        0.01571859541696
C           -9.94559092265117        5.94007291205189        0.01178451527944
C           -9.22293890801779        4.77984869487137        0.01098015506140
C           -7.80313223590798        4.83591583276544        0.01538227400362
C           -7.13131466494870        6.06940176652573        0.01896492222900
C          -10.02964740373985        8.39372613558248        0.01945330702879
C           -9.29563699755418        7.20027275639939        0.01682116901249
C           -7.87743798759615        7.27154261909482        0.01952696636996
C           -7.21323501491076        8.52291756471740        0.02317075943275
C           -9.38058343856310        9.60678419908658        0.02469078343796
C           -7.99459742388121        9.67610949083600        0.02625622396148
C           -5.67647997579628       -8.57852034051566       -0.01581376874813
C           -4.94159248691299       -9.77211428528382       -0.00915606642364
C           -3.57230621493526       -9.77638067930432       -0.00182776163275
C           -2.82306137895613       -8.58870048912551       -0.00536567379598
C           -5.64074327586244       -6.12295030497134       -0.01583502898960
C           -4.94878978440190       -7.36632929929925       -0.01656952359591
C           -3.52972977231576       -7.36573161311223       -0.01588383211405
C           -2.81383836875186       -6.13091060430088       -0.01899054956991
C           -5.64064118241098       -3.68020417572905       -0.00558095218811
C           -4.93404504409138       -4.89960015214068       -0.01037850002161
C           -3.51521372610794       -4.90474133666426       -0.01138705459228
C           -2.81232837399891       -3.67871992345661       -0.00634839611286
C           -5.65000063504571       -1.23590558463166        0.00525789462064
C           -4.93761126206306       -2.45207109513401        0.00063748510469
C           -3.52314405226594       -2.45194028027037        0.00068162575398
C           -2.82501490615553       -1.22546129835899        0.00611629593507
C           -5.65670672740131        1.20997122975846        0.01392413032851
C           -4.94689222357905       -0.01114583575035        0.01102043444675
C           -3.53412072834699       -0.00296083274873        0.01164424422221
C           -2.83540809057944        1.22827612268788        0.01502535711021
C           -5.66707633315585        3.65394499209319        0.01923909846147
C           -4.95645251208188        2.43221937377190        0.01814555238941
C           -3.54280065214964        2.44737639724721        0.01884144598585
C           -2.84934216869241        3.68403009753851        0.02064399442978
C           -5.71089051597778        6.09511085637023        0.02185164872409
C           -4.98321205039960        4.89224661779718        0.02180725872985
C           -3.56285837402146        4.90549158688387        0.02253842305256
C           -2.87322963056721        6.13545482417936        0.02287226320623
C           -5.76324385058856        8.54840100181817        0.02342159886587
C           -5.02703082459078        7.34133699173530        0.02325421874032
C           -3.60495430331444        7.35737325303427        0.02327558453441
C           -2.91127070268882        8.58763953495304        0.02251673580923
C           -5.04130220688273        9.74570998290937        0.02291372245898
C           -3.66925102259402        9.76477556390756        0.02245594422418
C           -1.38742955125729       -8.58313552819451        0.00107607777493
C           -0.62966682447379       -9.76350240033857        0.03899777976788
C            0.73665010769419       -9.75357635332147        0.05840019040026
C            1.46614943003846       -8.54876103901073        0.01802009613616
C           -1.40035280111570       -6.12480385522958       -0.02865303443943
C           -0.68216808268024       -7.35502926010335       -0.03056482314116
C            0.72579580559734       -7.34552676234928       -0.04821823815243
C            1.45149030482025       -6.11384228242536       -0.06817462743515
C           -1.39884194081974       -3.67645101381801       -0.00865014054089
C           -0.69110452546468       -4.90192945002359       -0.01968352908680
C            0.73198871125360       -4.89240186201468       -0.02907494674666
C            1.42319257283559       -3.66137672719808       -0.03026672036932
C           -1.40988465299890       -1.21971297571911        0.00283350473144
C           -0.70179030435458       -2.44182567606081       -0.00558226917391
C            0.70995281933886       -2.43329423900827       -0.01671946140178
C            1.40425362056596       -1.20544406238631       -0.01734663850769
C           -1.42100718364816        1.23802319276379        0.01142158422281
C           -0.71371124790074        0.01210737192130        0.00419201675404
C            0.69662278258530        0.01973468225901       -0.00490566209595
C            1.39269532792843        1.25181407640649       -0.00456445439844
C           -1.43678019460567        3.69454716549128        0.01814519737246
C           -0.72648727428595        2.46780376880193        0.01260207346922
C            0.68763185004693        2.47491106411321        0.00587371120321
C            1.38796883724352        3.70785928743814        0.00754274138593
C           -1.45548740463581        6.14509161825759        0.02136506486530
C           -0.74076216653290        4.92727481173861        0.01862356517608
C            0.68138743414368        4.93417062846427        0.01450474948204
C            1.38584062196257        6.15823262405998        0.01499632099020
C           -1.46926265073104        8.59810403849182        0.02082986106639
C           -0.75092368764082        7.38155953483742        0.02044211071792
C            0.67053236298093        7.38832579149892        0.01781959696143
C            1.37822065041607        8.61121080834591        0.01602657051004
C           -0.73569993810342        9.79104457472569        0.01823006737633
C            0.63379625559993        9.79740245613409        0.01606610787596
C            2.87830117210332       -8.55414158127371        0.04207706976909
C            3.64935413503315       -9.66079037081673        0.30477726944848
C            5.02528840975388       -9.69666831273308        0.24417292149153
C            5.73527141819504       -8.50199774521573        0.04882453222627
C            2.84791954076104       -6.08144740525322       -0.12812238177841
C            5.04423362213000       -7.29979410447115       -0.10427361484890
C            5.69017143599659       -6.06408139625996       -0.09823492808476
C            2.83212110198836       -3.65443959559484       -0.05275285515495
C            3.54794322875242       -4.87965275035533       -0.10536232780265
C            4.97422848340932       -4.84712245378702       -0.12826756004243
C            5.65207349047477       -3.62181457363807       -0.09875524128660
C            2.81867863704822       -1.19892170187207       -0.03336370786334
C            3.52821584716495       -2.41805732502685       -0.05431272891659
C            4.93980346312616       -2.39772336385915       -0.07649169841716
C            5.64030304471768       -1.17885715721276       -0.06129098795965
C            2.80696576977698        1.25594420359273       -0.01553214025255
C            3.51637074413830        0.03133933269769       -0.03164291655242
C            4.92737898196349        0.03945932158124       -0.04173307937959
C            5.62949768307450        1.26433628783875       -0.03067285084119
C            2.80042835942746        3.71096200208323        0.00132818582387
C            3.50493158189120        2.48039664933349       -0.01049142562258
C            4.91822281111125        2.47893250661357       -0.01639931102036
C            5.61979805139241        3.70684197387755       -0.00778027920977
C            2.80345425722681        6.16185079956723        0.01107906362520
C            3.50375922323489        4.93813703225185        0.00486827559213
C            4.92444145926549        4.93819501080977        0.00109193678843
C            5.64229543125157        6.14673074918298        0.00416959817068
C            2.82037292341845        8.61408092512489        0.01311182196894
C            3.52497536081752        7.39026789949000        0.01114093709617
C            4.94721345310838        7.38715865360744        0.00775135776111
C            5.67333483865771        8.59988172903547        0.00614245002743
C            3.56843510245682        9.79794842974708        0.01101858444555
C            4.94046094301922        9.79104268702005        0.00758566477812
C            7.18659581464750       -8.47294128156063        0.06965449421981
C            7.95766105814426       -9.63252046757987        0.10558285165389
C            9.34339213430318       -9.56928090588904        0.11817380212860
C           10.00165258570427       -8.35981440572670        0.10014200061792
C            7.11607988542245       -6.03261355898868       -0.02792142718954
C            7.85862405871192       -7.22890098168269        0.02964506319452
C            9.27786809984315       -7.16262023131977        0.05375946715274
C            9.92908776001526       -5.90245002592285        0.03366282021447
C            7.05812298834701       -3.59756606037749       -0.07416141670771
C            7.78616140387663       -4.79879805549544       -0.03987323065140
C            9.20748546752844       -4.74236181252130       -0.00611531507184
C            7.06074667365312       -1.16431478302656       -0.05790463049393
C            7.76411314530108       -2.37571300316445       -0.05765914241037
C            9.17911056562594       -2.37088664281409       -0.03185270589230
C            9.87041261654337       -1.18039781798903       -0.02103740944750
C            7.04904559755530        1.26397971876455       -0.03129174587040
C            7.76968300843509        0.05245142279666       -0.04016444395783
C            9.18767430530623        0.05886324363220       -0.02690993824767
C            9.85861549684195        1.30244497746217       -0.01482014685229
C            7.02184120326234        3.69873046706048       -0.00886358589459
C            7.74169908008754        2.48080035446657       -0.01801318991721
C            9.15639483744840        2.48819342017955       -0.01296761253880
C            7.06227754930706        6.13297253904485        0.00166877999595
C            7.74512468332266        4.90460484455862       -0.00234309704998
C            9.16630150424234        4.85812480592203       -0.00320595670088
C            9.87856626142972        6.02431768372856       -0.00346125972328
C            7.12364575560014        8.58645679802726        0.00194431184089
C            7.79872193446540        7.34075287749988        0.00099472532408
C            9.21759041439677        7.27986580168821       -0.00292462988502
C            9.94137773246715        8.47912042349620       -0.00738006074903
C            7.89593561700504        9.74594337930518       -0.00232644715254
C            9.28217087409934        9.68713278658388       -0.00740390464420
H          -11.01748112624337       -8.34890338514580       -0.03512117026984
H           -9.87806779718280      -10.54577420742893       -0.03622359779187
H           -7.45751881733792      -10.69877266882379       -0.02693980144465
H          -10.95021879277055       -3.73670566947795       -0.01972937065128
H          -10.96075145214095       -1.24899217772971       -0.01137600287562
H          -10.96552017728603        1.24161113707285       -0.00454997370360
H          -11.02358404141403        5.90045250006893        0.00862302292843
H          -11.10860114140683        8.34849140889630        0.01771535438814
H           -5.45504902973912      -10.72011927833653       -0.00847606973099
H           -3.07081914090496      -10.73049411446612        0.00329937124138
H           -1.12280729176631      -10.72155787494764        0.05344193007539
H            1.25429440683457      -10.69812884370976        0.07374823086907
H            3.12803507570958      -10.55756404298617        0.59231639743688
H            5.53292613242319      -10.62172543123468        0.43903830802435
H            7.49139936145997      -10.60368034341692        0.11009316922883
H            9.91091376754184      -10.48810158255242        0.14268918377631
H           11.08062312493078       -8.32310163230679        0.11831909960881
H           11.00675612063158       -5.86389045244868        0.05483418355820
H           10.94889273888702       -1.19593866248263       -0.00437337393888
H           10.93700272888186        1.32855165713735       -0.00658442681927
H           10.95688616684247        5.99493596455788       -0.00497550747804
H           11.02068191093290        8.44323464773476       -0.01147224489995
H            9.84819029063249       10.60749514061147       -0.01158862992369
H           -9.95366500579909       10.52275100718074        0.02750053498383
H           -7.53588351893056       10.65152874986598        0.03023263150699
H           -5.56027594371682       10.69058653179498        0.02222269413111
H           -3.18071940726471       10.72550540675565        0.02180107917366
H           -1.24409169007290       10.74127244878147        0.01744374746465
H            1.13351162257540       10.75223069611849        0.01382354698950
H            3.07139876565676       10.75433268747623        0.01175274946731
H            5.45121039303095       10.74042003707270        0.00572822000607
H            7.42947412509846       10.71770870893111       -0.00232474054783
O           -9.89011820567061        3.58643447875980        0.00591502232133
O            9.84257779166413        3.66776904086852       -0.00400040915484
O            9.87346745931895       -3.54760459939810       -0.01577250966077
O            3.58606935914623       -7.31831550647053       -0.38621951686757
O           -9.86396346347024       -6.06739116056775       -0.02519094002934
