202
 energy: -391.410797281176 gnorm: 0.071567211897 xtb: 6.7.1pre (5071a88)
C          -10.02687900000000       -8.45348700000000       -0.03744100000000
C           -9.37315600000000       -9.69459700000000       -0.03835600000000
C           -7.98768700000000       -9.78459700000000       -0.03248700000000
C           -7.18896100000000       -8.62004400000000       -0.02609900000000
C           -9.25792900000000       -7.30183000000000       -0.03146200000000
C           -7.84803100000000       -7.36384000000000       -0.02632200000000
C           -7.10065500000000       -6.14176000000000       -0.02158600000000
C           -9.94752900000000       -3.73874500000000       -0.01994700000000
C           -9.23551000000000       -4.90837700000000       -0.02327500000000
C           -7.80580700000000       -4.92274400000000       -0.02036000000000
C           -7.10929600000000       -3.69373700000000       -0.01350400000000
C           -9.95301000000000       -1.25056400000000       -0.00904500000000
C           -9.26824500000000       -2.47536400000000       -0.01339600000000
C           -7.83122800000000       -2.46920600000000       -0.01179900000000
C           -7.12419400000000       -1.24470200000000       -0.00438500000000
C           -9.95781300000000        1.24111000000000        0.00081400000000
C           -9.27307700000000       -0.01712100000000       -0.00342600000000
C           -7.83872100000000       -0.02161000000000       -0.00253700000000
C           -7.12533000000000        1.20646900000000        0.00347800000000
C           -9.24927300000000        2.41758400000000        0.00549200000000
C           -7.82567900000000        2.42726900000000        0.00607600000000
C           -7.11954100000000        3.65615400000000        0.01003500000000
C          -10.01988800000000        5.96795600000000        0.01668500000000
C           -9.27994300000000        4.81819400000000        0.01297400000000
C           -7.85389400000000        4.86377700000000        0.01348200000000
C           -7.18406400000000        6.10602100000000        0.01650700000000
C          -10.10771500000000        8.44387300000000        0.02431900000000
C           -9.36899500000000        7.24328300000000        0.02039900000000
C           -7.93780200000000        7.31646000000000        0.02038200000000
C           -7.27078300000000        8.57815000000000        0.02359200000000
C           -9.45374400000000        9.66749000000000        0.02784200000000
C           -8.05649200000000        9.73922200000000        0.02750700000000
C           -5.72701600000000       -8.63420500000000       -0.01785000000000
C           -4.98852300000000       -9.83571100000000       -0.01142100000000
C           -3.60972100000000       -9.84134900000000        0.00120700000000
C           -2.85527400000000       -8.64515300000000        0.00511600000000
C           -5.69127000000000       -6.15902500000000       -0.01825700000000
C           -4.99542300000000       -7.41339500000000       -0.01565200000000
C           -3.56514300000000       -7.41444300000000       -0.00833100000000
C           -2.83918600000000       -6.17102900000000       -0.00942600000000
C           -5.68345700000000       -3.70245500000000       -0.01318400000000
C           -4.97589600000000       -4.93071400000000       -0.01170600000000
C           -3.54377200000000       -4.93715700000000       -0.01187800000000
C           -2.83437000000000       -3.70402200000000       -0.00356900000000
C           -5.68964100000000       -1.24344400000000       -0.00628100000000
C           -4.97437500000000       -2.46620500000000       -0.00370000000000
C           -3.54912300000000       -2.46664400000000       -0.00825400000000
C           -2.84568100000000       -1.23454400000000        0.00351400000000
C           -5.69511200000000        1.21841600000000        0.00175100000000
C           -4.98102600000000       -0.01092800000000        0.00355400000000
C           -3.55943900000000       -0.00370800000000       -0.00236900000000
C           -2.85583400000000        1.23692100000000        0.00814000000000
C           -5.70953900000000        3.67723000000000        0.00961900000000
C           -4.99229300000000        2.44761200000000        0.00881300000000
C           -3.56816900000000        2.46156000000000        0.00420900000000
C           -2.86883900000000        3.70785400000000        0.01113700000000
C           -5.75202500000000        6.13301700000000        0.01646300000000
C           -5.02113200000000        4.92435200000000        0.01340000000000
C           -3.58814900000000        4.93756800000000        0.01131100000000
C           -2.89429000000000        6.17320400000000        0.01462500000000
C           -5.80465800000000        8.60541800000000        0.02290200000000
C           -5.06456900000000        7.38951600000000        0.01900400000000
C           -3.63062300000000        7.40655700000000        0.01802600000000
C           -2.93429500000000        8.64515400000000        0.02020300000000
C           -5.07834800000000        9.81030800000000        0.02532400000000
C           -3.69658600000000        9.83008100000000        0.02417000000000
C           -1.40773500000000       -8.63975300000000        0.02277400000000
C           -0.65076200000000       -9.83203400000000        0.06765000000000
C            0.72216100000000       -9.83064700000000        0.08425000000000
C            1.46645500000000       -8.61962700000000        0.04797400000000
C           -1.41362500000000       -6.16795100000000       -0.01165400000000
C           -0.69093800000000       -7.40978300000000       -0.00383700000000
C            0.73182900000000       -7.40439800000000       -0.00654600000000
C            1.45653000000000       -6.16328100000000       -0.02282300000000
C           -1.41097400000000       -3.70300700000000       -0.00702000000000
C           -0.70002300000000       -4.93719400000000       -0.00519800000000
C            0.73770800000000       -4.92905800000000       -0.00726900000000
C            1.43557100000000       -3.68920100000000       -0.00836100000000
C           -1.41879700000000       -1.22980400000000       -0.00469600000000
C           -0.70664100000000       -2.45870500000000        0.00118700000000
C            0.71571000000000       -2.45045300000000       -0.00833000000000
C            1.41487800000000       -1.21637800000000       -0.00423100000000
C           -1.43026400000000        1.24589200000000       -0.00122400000000
C           -0.71682600000000        0.01083600000000        0.00479100000000
C            0.70181200000000        0.01808900000000       -0.00774700000000
C            1.40362600000000        1.25971200000000       -0.00096700000000
C           -1.44780100000000        3.71799600000000        0.00450400000000
C           -0.73105000000000        2.48182400000000        0.00737500000000
C            0.69395900000000        2.48867500000000       -0.00397100000000
C            1.40042700000000        3.73173900000000        0.00234300000000
C           -1.46552000000000        6.18330200000000        0.01159900000000
C           -0.74667500000000        4.95932700000000        0.00990500000000
C            0.68838800000000        4.96622700000000        0.00317900000000
C            1.39654400000000        6.19694100000000        0.00668500000000
C           -1.47799700000000        8.65611600000000        0.01850500000000
C           -0.75663100000000        7.43087300000000        0.01408000000000
C            0.67644800000000        7.43777000000000        0.01112000000000
C            1.38668300000000        8.66970700000000        0.01314000000000
C           -0.74068800000000        9.85706700000000        0.02049400000000
C            0.63810400000000        9.86360500000000        0.01814800000000
C            2.87804400000000       -8.67358000000000        0.08399300000000
C            3.69802300000000       -9.77164200000000        0.18851100000000
C            5.07852700000000       -9.79017300000000        0.12297300000000
C            5.78727000000000       -8.57306100000000        0.03615700000000
C            2.85719500000000       -6.09791300000000       -0.04706100000000
C            5.12690700000000       -7.34957100000000       -0.03498800000000
C            5.73897100000000       -6.09459800000000       -0.04027200000000
C            2.85371200000000       -3.67908200000000       -0.02035400000000
C            3.58054400000000       -4.91130500000000       -0.04524300000000
C            5.01663400000000       -4.88073100000000       -0.06196100000000
C            5.69838500000000       -3.64524000000000       -0.05111100000000
C            2.84141900000000       -1.20889400000000       -0.01921300000000
C            3.55654900000000       -2.43243500000000       -0.02408300000000
C            4.97940200000000       -2.41260100000000       -0.04069900000000
C            5.68071600000000       -1.18620500000000       -0.03538600000000
C            2.82927400000000        1.26477700000000       -0.01519600000000
C            3.54356600000000        0.03138900000000       -0.01630200000000
C            4.96285800000000        0.03995600000000       -0.02861300000000
C            5.66897900000000        1.27416300000000       -0.02393100000000
C            2.82128100000000        3.73542500000000       -0.00731100000000
C            3.53181500000000        2.49531000000000       -0.00949000000000
C            4.95563500000000        2.49496000000000       -0.01903300000000
C            5.66345800000000        3.73220100000000       -0.01491600000000
C            2.82511400000000        6.20039900000000        0.00167100000000
C            3.52990900000000        4.97137900000000       -0.00314400000000
C            4.96334000000000        4.97182000000000       -0.00885600000000
C            5.68383000000000        6.18668400000000       -0.00614100000000
C            2.84310300000000        8.67261000000000        0.01015700000000
C            3.55070300000000        7.44089200000000        0.00401200000000
C            4.98478600000000        7.43722800000000        0.00038300000000
C            5.71424800000000        8.65899400000000        0.00267800000000
C            3.59498400000000        9.86486100000000        0.01254000000000
C            4.97660800000000        9.85768200000000        0.00915900000000
C            7.25594000000000       -8.52645400000000        0.05801600000000
C            8.03598400000000       -9.69197800000000        0.09325200000000
C            9.43200800000000       -9.62207500000000        0.10695600000000
C           10.09106600000000       -8.39934900000000        0.08808600000000
C            7.17793600000000       -6.06307600000000       -0.00383800000000
C            7.92668300000000       -7.26834000000000        0.03344300000000
C            9.35891200000000       -7.19764000000000        0.05089000000000
C           10.00990900000000       -5.92108600000000        0.03250600000000
C            7.11054600000000       -3.61624200000000       -0.03906800000000
C            7.84249900000000       -4.81871900000000       -0.01674100000000
C            9.27043900000000       -4.77174900000000        0.00154900000000
C            7.11390000000000       -1.16900800000000       -0.03734200000000
C            7.81609500000000       -2.38561000000000       -0.03526800000000
C            9.23433900000000       -2.36961100000000       -0.02398400000000
C            9.94292100000000       -1.18521200000000       -0.02333600000000
C            7.10076600000000        1.27585000000000       -0.02889100000000
C            7.82565100000000        0.05652400000000       -0.03229800000000
C            9.25439900000000        0.06444500000000       -0.02838100000000
C            9.93039300000000        1.32082800000000       -0.02599700000000
C            7.07209900000000        3.72448300000000       -0.01886900000000
C            7.79191700000000        2.49944500000000       -0.02472600000000
C            9.21070000000000        2.49827400000000       -0.02491200000000
C            7.11517600000000        6.17223800000000       -0.00942300000000
C            7.79632400000000        4.93499700000000       -0.01563600000000
C            9.22388000000000        4.89965200000000       -0.01791700000000
C            9.95323800000000        6.05584600000000       -0.01571100000000
C            7.18067100000000        8.64445300000000       -0.00104800000000
C            7.85887900000000        7.38856900000000       -0.00703600000000
C            9.29083500000000        7.32639800000000       -0.01030500000000
C           10.01890200000000        8.53304100000000       -0.00807100000000
C            7.95690300000000        9.81222700000000        0.00072200000000
C            9.35439000000000        9.75147100000000       -0.00272700000000
H          -11.10910200000000       -8.37987000000000       -0.04146400000000
H           -9.96746400000000      -10.60347600000000       -0.04342100000000
H           -7.53014100000000      -10.76675900000000       -0.03353800000000
H          -11.03242000000000       -3.77004700000000       -0.02254200000000
H          -11.04005100000000       -1.25340800000000       -0.01084800000000
H          -11.04292800000000        1.26683200000000       -0.00016300000000
H          -11.10397100000000        5.91599500000000        0.01645100000000
H          -11.19334500000000        8.39940500000000        0.02451500000000
H           -5.50300400000000      -10.78985000000000       -0.01481600000000
H           -3.10807400000000      -10.80145300000000        0.00396500000000
H           -1.14913700000000      -10.79379900000000        0.08843300000000
H            1.23283500000000      -10.78513600000000        0.10648600000000
H            3.18397000000000      -10.71128600000000        0.35436100000000
H            5.59467000000000      -10.73278800000000        0.22483900000000
H            7.56855700000000      -10.66875000000000        0.10257300000000
H           10.00753400000000      -10.54295600000000        0.13263000000000
H           11.17677100000000       -8.35995600000000        0.10138800000000
H           11.09390800000000       -5.86979200000000        0.04595300000000
H           11.02796800000000       -1.21042300000000       -0.01604800000000
H           11.01514800000000        1.35661000000000       -0.02370100000000
H           11.03777200000000        6.01426900000000       -0.01763800000000
H           11.10489000000000        8.49822100000000       -0.01056600000000
H            9.92473000000000       10.67605100000000       -0.00116900000000
H          -10.03142100000000       10.58747600000000        0.03090600000000
H           -7.59283000000000       10.71868800000000        0.03027600000000
H           -5.59882200000000       10.76082700000000        0.02833900000000
H           -3.20598400000000       10.79572000000000        0.02599400000000
H           -1.25133100000000       10.81222000000000        0.02426200000000
H            1.13980900000000       10.82347800000000        0.01962300000000
H            3.09557200000000       10.82600700000000        0.01750500000000
H            5.48860300000000       10.81281500000000        0.01140600000000
H            7.48527200000000       10.78792200000000        0.00483300000000
O           -9.94443100000000        3.60765700000000        0.00919900000000
O            9.89819500000000        3.69286800000000       -0.02242300000000
O            9.93266300000000       -3.55852900000000       -0.01311800000000
O            3.61551000000000       -7.36041800000000       -0.21828800000000
O           -9.92691400000000       -6.09721200000000       -0.03029300000000
202
 energy: -391.425893837344 gnorm: 0.038787928988 xtb: 6.7.1pre (5071a88)
C          -10.00289553776975       -8.44122200692447       -0.03729537072394
C           -9.35314895995405       -9.67356727818618       -0.03820524850729
C           -7.97519560926672       -9.76064617842994       -0.03231922299202
C           -7.17421982865061       -8.60412194888224       -0.02579284179310
C           -9.24059548059014       -7.28621105491675       -0.03127145791022
C           -7.83230633575379       -7.35301827844999       -0.02630174555800
C           -7.08522773348893       -6.13392771328715       -0.02146738444803
C           -9.92118476756990       -3.73040051962411       -0.01998343557064
C           -9.21737719473652       -4.90465724870830       -0.02326950086321
C           -7.79075992687190       -4.91530082191196       -0.02005606090118
C           -7.09518898565044       -3.68830835564943       -0.01398590883733
C           -9.92634173388366       -1.24868406468031       -0.00928898100721
C           -9.24558206679525       -2.47145174744032       -0.01341492859183
C           -7.81507966326507       -2.46672901480627       -0.01137645768056
C           -7.11018876806021       -1.24323483617906       -0.00522987264622
C           -9.93181196121275        1.23658751544965        0.00065427893653
C           -9.25091583013092       -0.01758028894079       -0.00346302654747
C           -7.82240046420894       -0.02152002662545       -0.00222641016840
C           -7.11088134524906        1.20391750193401        0.00295944338449
C           -9.23213700915479        2.41839840301783        0.00541353218634
C           -7.81058287836454        2.42383541278474        0.00607528109705
C           -7.10506352576059        3.65217624068806        0.01004456274224
C           -9.99468629791314        5.96428583799448        0.01663763457273
C           -9.26239118990780        4.80906855055221        0.01302447566670
C           -7.83894359571107        4.85947412271546        0.01331786852348
C           -7.16966984438999        6.09916096100090        0.01663224509033
C          -10.08313005489682        8.42889167168872        0.02425684226523
C           -9.34632389179588        7.23308647010374        0.02039216160660
C           -7.92190908502735        7.30499702549980        0.02025835061795
C           -7.25780126802214        8.56166563392451        0.02359131476294
C           -9.43422441606367        9.64538035731809        0.02776105816414
C           -8.04492726050888        9.71623960469170        0.02742292311614
C           -5.71817506096254       -8.61622316122613       -0.01772488316099
C           -4.97998061738956       -9.81168479199048       -0.01144615995978
C           -3.60671579098221       -9.81699988624089        0.00112648287829
C           -2.84979531900492       -8.62781642186423        0.00560171974081
C           -5.67848154685339       -6.15063741922149       -0.01788640003458
C           -4.98522441211381       -7.40066351343855       -0.01542208935204
C           -3.55858653430691       -7.40084374189194       -0.00811221288026
C           -2.83388936069773       -6.16185688252801       -0.00957547047843
C           -5.67274608069372       -3.69768824331405       -0.01185528623483
C           -4.96561380776572       -4.92394980161366       -0.01255276890614
C           -3.53780656092753       -4.93022366018836       -0.01037483712664
C           -2.83013966856428       -3.69880548261705       -0.00587350754034
C           -5.68014602031614       -1.24189117805642       -0.00446452187335
C           -4.96580898905807       -2.46349579537319       -0.00576201528773
C           -3.54361732283577       -2.46409776821078       -0.00567663482838
C           -2.84123295276426       -1.23279277603173        0.00030125186269
C           -5.68493114325742        1.21657105452999        0.00298792648018
C           -4.97294256075802       -0.01119963067629        0.00140372623895
C           -3.55353813808326       -0.00349299810108        0.00044391896479
C           -2.85118981474874        1.23510404245296        0.00521466384051
C           -5.69723011867660        3.67294642128922        0.00990927827926
C           -4.98299123110810        2.44480960551602        0.00757526157270
C           -3.56193382626014        2.45933001552256        0.00610300692271
C           -2.86455032711631        3.70330146112601        0.00950576073073
C           -5.74212219986167        6.12489480471461        0.01631079400243
C           -5.01140421207783        4.91784918965566        0.01316214394410
C           -3.58249950804495        4.93080910367089        0.01187987749282
C           -2.88989680629581        6.16492405445188        0.01433345282550
C           -5.79762529161547        8.58724448690772        0.02279135949348
C           -5.05640630898887        7.37699123182430        0.01908669181763
C           -3.62641001899617        7.39313681985694        0.01788640674656
C           -2.93007856038754        8.62714121848481        0.02023281738794
C           -5.07136112594775        9.78594413414841        0.02528995732952
C           -3.69478720962261        9.80533253495903        0.02406227797256
C           -1.40566178060259       -8.62268194690343        0.02253014560909
C           -0.64744843721337       -9.80904869229697        0.06613253516671
C            0.72107299088787       -9.80668942900469        0.08703720877794
C            1.46659652622575       -8.60194854446146        0.05032612311648
C           -1.41137105181847       -6.15766840110768       -0.01038366288534
C           -0.68954655567751       -7.39514671224497       -0.00124865758017
C            0.72933527440137       -7.38942601881522       -0.00372527923207
C            1.45500621845597       -6.15091518056587       -0.01949065190396
C           -1.40922093241738       -3.69725683713023       -0.00493278406591
C           -0.69860662055668       -4.92904388443214       -0.00528324849693
C            0.73447315534701       -4.92033629224457       -0.00476844098190
C            1.43156785200995       -3.68339467938432       -0.00781632163221
C           -1.41743879291628       -1.22767440014248       -0.00168564350344
C           -0.70637899906180       -2.45570773978024       -0.00153489572500
C            0.71358742929697       -2.44729627200209       -0.00656046218577
C            1.41173230918078       -1.21395541934767       -0.00694413679216
C           -1.42843705460529        1.24449274655461        0.00170649533965
C           -0.71684650846415        0.01121445358493        0.00133640494212
C            0.70031835639864        0.01875086346053       -0.00487102366420
C            1.40056290461380        1.25839584971096       -0.00401886032697
C           -1.44530446485052        3.71360063319968        0.00637990124252
C           -0.73028259375995        2.47971879572235        0.00451067863833
C            0.69210267968635        2.48680554198115       -0.00136093296378
C            1.39712903086019        3.72726390868169        0.00036630095008
C           -1.46390739820689        6.17457223047164        0.01195192916787
C           -0.74524850291933        4.95256920264265        0.00858933200103
C            0.68636035404402        4.95957554659079        0.00434121187111
C            1.39452459998984        6.18813154806779        0.00621391995295
C           -1.47758478248084        8.63741379625676        0.01835777208966
C           -0.75515394788639        7.41721983478622        0.01397380594715
C            0.67475138060979        7.42414721307123        0.01108674993570
C            1.38620673711446        8.65094367162560        0.01311585867543
C           -0.73825729540354        9.83166659330661        0.02045853235671
C            0.63574944435351        9.83818226396088        0.01797905274801
C            2.87881218514704       -8.64306509835088        0.07021204349808
C            3.69077605489776       -9.74761356921621        0.18834098824681
C            5.06901713957429       -9.76353381027723        0.12890791860613
C            5.78219812738591       -8.55197275588097        0.03963498476545
C            2.85681772725481       -6.09885102037421       -0.04951323300722
C            5.10605137523766       -7.33805257177942       -0.03540168394514
C            5.72962691370881       -6.08857304972652       -0.03525533982967
C            2.84749547759685       -3.67309566817994       -0.01812602096955
C            3.57122779341273       -4.90455433014177       -0.04169958792574
C            5.00636982750172       -4.87354802951431       -0.05802432113628
C            5.68536290465350       -3.64035123583361       -0.04864082983694
C            2.83505232302459       -1.20613580777138       -0.01722544569013
C            3.54835222393941       -2.42956467472784       -0.02424239921390
C            4.96836097328651       -2.40959314796979       -0.03941877626249
C            5.66917399621119       -1.18433858996029       -0.03552704844003
C            2.82329666817911        1.26344466393395       -0.01286192780756
C            3.53593346299407        0.03175419753347       -0.01839390666830
C            4.95315159888414        0.04019393605102       -0.02727675947695
C            5.65783298282038        1.27213538022620       -0.02451413329328
C            2.81625069997282        3.73097853577319       -0.00582078422881
C            3.52461265754595        2.49316660716125       -0.01118491428582
C            4.94543895559377        2.49237954410525       -0.01803268882518
C            5.65051217030620        3.72750334019587       -0.01511827423465
C            2.82036384916179        6.19210242430694        0.00189090712431
C            3.52378202836749        4.96449103081705       -0.00374921208290
C            4.95310584393364        4.96518798061916       -0.00862744498298
C            5.67371002686246        6.17823574882457       -0.00605667576938
C            2.83883503344612        8.65448077706590        0.00997743788794
C            3.54635328096068        7.42722860533600        0.00403097969499
C            4.97651398092524        7.42443113268580        0.00025184129827
C            5.70726365743338        8.64055848502787        0.00266398609791
C            3.59329230538398        9.83981965824202        0.01246437692643
C            4.96978174578313        9.83297834427692        0.00903100411101
C            7.24540986137064       -8.51195603221013        0.06004741033649
C            8.02758495671853       -9.67001571937246        0.09298105105283
C            9.41554007862372       -9.60068180549433        0.10615044696643
C           10.06891665537506       -8.38497490297719        0.08747032180431
C            7.16469958303957       -6.05782239154698       -0.00082718588100
C            7.91246725045716       -7.25868189717135        0.03490032047470
C            9.33810826878296       -7.18834962963557        0.05063312028269
C            9.98589298357024       -5.91800808445760        0.03215081941162
C            7.09653170355044       -3.61318753785284       -0.03803741279985
C            7.82893800267844       -4.81570016287975       -0.01556934726483
C            9.25413073949973       -4.76343322176152        0.00150607532090
C            7.09809620716132       -1.16724463774803       -0.03700700291920
C            7.80097950343687       -2.38314428083634       -0.03477200106017
C            9.21807407809433       -2.37134898557004       -0.02383642583256
C            9.91681410881839       -1.18204720788595       -0.02325511475722
C            7.08514057576078        1.27302113558136       -0.02848939501023
C            7.80870007273775        0.05593390213450       -0.03216551061851
C            9.23229561325859        0.06371992005055       -0.02829537300543
C            9.90406458138305        1.31586446411679       -0.02582939384538
C            7.05726679434028        3.72006647513165       -0.01882075149973
C            7.77618513586205        2.49570113915867       -0.02454775386112
C            9.19358179790688        2.49857853348504       -0.02480155095541
C            7.10073286146358        6.16501135130607       -0.00951793635903
C            7.78122769768809        4.93040164127271       -0.01548743613300
C            9.20607797932173        4.89010569275083       -0.01796253286527
C            9.92778282749723        6.05162463427037       -0.01563448126379
C            7.16774765062175        8.62761455625399       -0.00112086463249
C            7.84300160251750        7.37673210219126       -0.00696775230734
C            9.26814080266630        7.31573389586362       -0.01030983821799
C            9.99440627149020        8.51757427060255       -0.00806437873429
C            7.94547820653607        9.78880202118007        0.00067916114522
C            9.33504552464125        9.72888296623286       -0.00275830152219
H          -11.08119005908859       -8.37374955674746       -0.04130906963184
H           -9.94636308212245      -10.57948268953378       -0.04330634559149
H           -7.52412971674230      -10.74158740516344       -0.03331513279209
H          -11.00223135989282       -3.75887528313158       -0.02240281500651
H          -11.00989270962564       -1.25182253413237       -0.01069465150858
H          -11.01304752383921        1.25875415113093       -0.00013164900792
H          -11.07506221236681        5.91824949639338        0.01646307985053
H          -11.16513168287830        8.38750804822040        0.02445049103430
H           -5.49302331332133      -10.76324417567935       -0.01516775571004
H           -3.10968526720429      -10.77608740605514        0.00426236298561
H           -1.14323460692286      -10.76868534459727        0.08678040324813
H            1.23053449197821      -10.75829600040054        0.10997904113836
H            3.18244692833942      -10.68700650755834        0.35610246130685
H            5.58112097014149      -10.70507120876868        0.22150893019964
H            7.56824171255808      -10.64649584318293        0.10259412951296