      -----------------------------------------------------------      
     |                   =====================                   |     
     |                           x T B                           |     
     |                   =====================                   |     
     |                         S. Grimme                         |     
     |          Mulliken Center for Theoretical Chemistry        |     
     |                    University of Bonn                     |     
      -----------------------------------------------------------      

   * xtb version 6.7.1pre (5071a88) compiled by 'Marcel@Raven' on 2024-07-23

   xtb is free software: you can redistribute it and/or modify it under
   the terms of the GNU Lesser General Public License as published by
   the Free Software Foundation, either version 3 of the License, or
   (at your option) any later version.
   
   xtb is distributed in the hope that it will be useful,
   but WITHOUT ANY WARRANTY; without even the implied warranty of
   MERCHANTABILITY or FITNESS FOR A PARTICULAR PURPOSE.  See the
   GNU Lesser General Public License for more details.
   
   Cite this work as:
   * C. Bannwarth, E. Caldeweyher, S. Ehlert, A. Hansen, P. Pracht,
     J. Seibert, S. Spicher, S. Grimme, WIREs Comput. Mol. Sci., 2020, 11,
     e01493. DOI: 10.1002/wcms.1493
   
   for GFN2-xTB:
   * C. Bannwarth, S. Ehlert and S. Grimme., J. Chem. Theory Comput., 2019,
     15, 1652-1671. DOI: 10.1021/acs.jctc.8b01176
   for GFN1-xTB:
   * S. Grimme, C. Bannwarth, P. Shushkov, J. Chem. Theory Comput., 2017,
     13, 1989-2009. DOI: 10.1021/acs.jctc.7b00118
   for GFN0-xTB:
   * P. Pracht, E. Caldeweyher, S. Ehlert, S. Grimme, ChemRxiv, 2019, preprint.
     DOI: 10.26434/chemrxiv.8326202.v1
   for GFN-FF:
   * S. Spicher and S. Grimme, Angew. Chem. Int. Ed., 2020, 59, 15665-15673.
     DOI: 10.1002/anie.202004239
   
   for ALPB and GBSA implicit solvation:
   * S. Ehlert, M. Stahn, S. Spicher, S. Grimme, J. Chem. Theory Comput.,
     2021, 17, 4250-4261. DOI: 10.1021/acs.jctc.1c00471
   
   for ddCOSMO and CPCM-X implicit solvation:
   * M. Stahn, S. Ehlert, S. Grimme, J. Phys. Chem. A,
     2023, XX, XXXX-XXXX. DOI: 10.1021/acs.jpca.3c04382
   
   for DFT-D4:
   * E. Caldeweyher, C. Bannwarth and S. Grimme, J. Chem. Phys., 2017,
     147, 034112. DOI: 10.1063/1.4993215
   * E. Caldeweyher, S. Ehlert, A. Hansen, H. Neugebauer, S. Spicher,
     C. Bannwarth and S. Grimme, J. Chem. Phys., 2019, 150, 154122.
     DOI: 10.1063/1.5090222
   * E. Caldeweyher, J.-M. Mewes, S. Ehlert and S. Grimme, Phys. Chem. Chem. Phys.
     2020, 22, 8499-8512. DOI: 10.1039/D0CP00502A
   
   for sTDA-xTB:
   * S. Grimme and C. Bannwarth, J. Chem. Phys., 2016, 145, 054103.
     DOI: 10.1063/1.4959605
   
   in the mass-spec context:
   * V. Asgeirsson, C. Bauer and S. Grimme, Chem. Sci., 2017, 8, 4879.
     DOI: 10.1039/c7sc00601b
   * J. Koopman and S. Grimme, ACS Omega 2019, 4, 12, 15120-15133.
     DOI: 10.1021/acsomega.9b02011
   
   for metadynamics refer to:
   * S. Grimme, J. Chem. Theory Comput., 2019, 155, 2847-2862
     DOI: 10.1021/acs.jctc.9b00143
   
   for SPH calculations refer to:
   * S. Spicher and S. Grimme, J. Chem. Theory Comput., 2021, 17, 1701-1714
     DOI: 10.1021/acs.jctc.0c01306
   
   for ONIOM refer to:
   * C. Plett, A. Katbashev, S. Ehlert, S. Grimme, M. Bursch,
     Phys. Chem. Chem. Phys., 2023, 25, 17860-17868. DOI: 10.1039/D3CP02178E
   
   for DIPRO refer to:
   * J. Kohn, N. Gildemeister, S. Grimme, D. Fazzi, A. Hansen,
     J. Chem. Phys., 2023, just accepted.
   
   for PTB refer to:
   * S. Grimme, M. Mueller, A. Hansen, J. Chem. Phys., 2023, 158, 124111.
     DOI: 10.1063/5.0137838
   
   with help from (in alphabetical order)
   P. Atkinson, C. Bannwarth, F. Bohle, G. Brandenburg, E. Caldeweyher
   M. Checinski, S. Dohm, S. Ehlert, S. Ehrlich, I. Gerasimov, C. Hölzer
   A. Katbashev, J. Kohn, J. Koopman, C. Lavigne, S. Lehtola, F. März, M. Müller,
   F. Musil, H. Neugebauer, J. Pisarek, C. Plett, P. Pracht, F. Pultar,
   J. Seibert, P. Shushkov, S. Spicher, M. Stahn, M. Steiner, T. Strunk,
   J. Stückrath, T. Rose, and J. Unsleber
   
 * started run on 2025/12/08 at 00:30:03.249     
   ID    Z sym.   atoms
    1    6 C      1-94
    2    1 H      95-122
    3    5 B      123-132

           -------------------------------------------------
          |                Calculation Setup                |
           -------------------------------------------------

          program call               : xtb "C:\Users\LENOVO GAMING\Documents\GitHub\molecular-conductivity-sim\dataset\1.5nm-10Bdoped-7percent.xyz" --opt --parallel 4
          coordinate file            : C:\Users\LENOVO GAMING\Documents\GitHub\molecular-conductivity-sim\dataset\1.5nm-10Bdoped-7percent.xyz
          omp threads                :                     4


           -------------------------------------------------
          |                 G F N 2 - x T B                 |
           -------------------------------------------------

        Reference                      10.1021/acs.jctc.8b01176
      * Hamiltonian:
        H0-scaling (s, p, d)           1.850000    2.230000    2.230000
        zeta-weighting                 0.500000
      * Dispersion:
        s8                             2.700000
        a1                             0.520000
        a2                             5.000000
        s9                             5.000000
      * Repulsion:
        kExp                           1.500000    1.000000
        rExp                           1.000000
      * Coulomb:
        alpha                          2.000000
        third order                    shell-resolved
        anisotropic                    true
        a3                             3.000000
        a5                             4.000000
        cn-shift                       1.200000
        cn-exp                         4.000000
        max-rad                        5.000000


          ...................................................
          :                      SETUP                      :
          :.................................................:
          :  # basis functions                 444          :
          :  # atomic orbitals                 444          :
          :  # shells                          236          :
          :  # electrons                       434          :
          :  max. iterations                   250          :
          :  Hamiltonian                  GFN2-xTB          :
          :  restarted?                      false          :
          :  GBSA solvation                  false          :
          :  PC potential                    false          :
          :  electronic temp.          300.0000000     K    :
          :  accuracy                    1.0000000          :
          :  -> integral cutoff          0.2500000E+02      :
          :  -> integral neglect         0.1000000E-07      :
          :  -> SCF convergence          0.1000000E-05 Eh   :
          :  -> wf. convergence          0.1000000E-03 e    :
          :  Broyden damping             0.4000000          :
          :  net charge                          0          :
          :  unpaired electrons                  0          :
          ...................................................

 iter      E             dE          RMSdq      gap      omega  full diag
   1   -231.3399446 -0.231340E+03  0.768E+00    0.20       0.0  T
   2   -230.7660603  0.573884E+00  0.534E+00    0.10       1.0  T
   3   -182.1042661  0.486618E+02  0.798E+00    0.10       1.0  T
   4   -156.7400236  0.253642E+02  0.924E+00    0.05       1.0  T
   5   -224.7861188 -0.680461E+02  0.360E+00    0.26       1.0  T
   6   -224.6485571  0.137562E+00  0.375E+00    0.06       1.0  T
   7   -231.6544031 -0.700585E+01  0.192E+00    0.10       1.0  T
   8   -232.0006194 -0.346216E+00  0.176E+00    0.04       1.0  T
   9   -232.1077672 -0.107148E+00  0.144E+00    0.19       1.0  T
  10   -232.1041511  0.361612E-02  0.137E+00    0.16       1.0  T
  11   -232.0590066  0.451445E-01  0.119E+00    0.14       1.0  T
  12   -232.0812704 -0.222638E-01  0.859E-01    0.21       1.0  T
  13   -232.1510382 -0.697677E-01  0.539E-01    0.14       1.0  T
  14   -232.2699471 -0.118909E+00  0.472E-01    0.03       1.0  T
  15   -232.2841654 -0.142183E-01  0.390E-01    0.04       1.0  T
  16   -232.2927059 -0.854050E-02  0.490E-01    0.02       1.0  T
  17   -232.3042824 -0.115765E-01  0.374E-01    0.03       1.0  T
  18   -232.3078434 -0.356100E-02  0.391E-01    0.03       1.0  T
  19   -232.3189148 -0.110714E-01  0.212E-01    0.06       1.0  T
  20   -232.3085836  0.103312E-01  0.308E-01    0.10       1.0  T
  21   -232.3018579  0.672568E-02  0.346E-01    0.11       1.0  T
  22   -232.3081131 -0.625515E-02  0.301E-01    0.11       1.0  T
  23   -232.3215031 -0.133900E-01  0.204E-01    0.10       1.0  T
  24   -232.3311790 -0.967591E-02  0.820E-02    0.08       1.0  T
  25   -232.3322576 -0.107857E-02  0.485E-02    0.08       1.0  T
  26   -232.3326407 -0.383130E-03  0.266E-02    0.07       1.0  T
  27   -232.3327043 -0.636658E-04  0.165E-02    0.07       1.0  T
  28   -232.3327301 -0.257467E-04  0.128E-02    0.07       1.0  T
  29   -232.3327657 -0.356485E-04  0.764E-03    0.07       1.1  T
  30   -232.3327727 -0.698104E-05  0.585E-03    0.07       1.5  T
  31   -232.3327787 -0.597923E-05  0.457E-03    0.07       1.9  T
  32   -232.3327809 -0.220697E-05  0.338E-03    0.07       2.6  T
  33   -232.3327821 -0.121289E-05  0.186E-03    0.07       4.7  T
  34   -232.3327828 -0.625547E-06  0.578E-04    0.07      15.1  T
  35   -232.3327828 -0.369867E-07  0.323E-04    0.07      26.9  T

   *** convergence criteria satisfied after 35 iterations ***

         #    Occupation            Energy/Eh            Energy/eV
      -------------------------------------------------------------
         1        2.0000           -0.6654001             -18.1065
       ...           ...                  ...                  ...
       211        2.0000           -0.3701850             -10.0732
       212        2.0000           -0.3692656             -10.0482
       213        2.0000           -0.3665786              -9.9751
       214        2.0000           -0.3650779              -9.9343
       215        2.0000           -0.3644115              -9.9161
       216        2.0000           -0.3636238              -9.8947
       217        1.5959           -0.3530642              -9.6074 (HOMO)
       218        0.4041           -0.3504544              -9.5363 (LUMO)
       219        0.0000           -0.3411228              -9.2824
       220                         -0.3314023              -9.0179
       221                         -0.3072906              -8.3618
       222                         -0.3021297              -8.2214
       ...                                ...                  ...
       444                          0.7441918              20.2505
      -------------------------------------------------------------
                  HL-Gap            0.0026098 Eh            0.0710 eV
             Fermi-level           -0.3517593 Eh           -9.5719 eV

 SCC (total)                   0 d,  0 h,  0 min,  1.673 sec
 SCC setup                      ...        0 min,  0.002 sec (  0.120%)
 Dispersion                     ...        0 min,  0.006 sec (  0.359%)
 classical contributions        ...        0 min,  0.000 sec (  0.000%)
 integral evaluation            ...        0 min,  0.036 sec (  2.152%)
 iterations                     ...        0 min,  1.504 sec ( 89.898%)
 molecular gradient             ...        0 min,  0.120 sec (  7.173%)
 printout                       ...        0 min,  0.005 sec (  0.299%)

         :::::::::::::::::::::::::::::::::::::::::::::::::::::
         ::                     SUMMARY                     ::
         :::::::::::::::::::::::::::::::::::::::::::::::::::::
         :: total energy            -228.278675175644 Eh    ::
         :: gradient norm              0.084993665944 Eh/a0 ::
         :: HOMO-LUMO gap              0.071016773161 eV    ::
         ::.................................................::
         :: SCC energy              -232.339952093546 Eh    ::
         :: -> isotropic ES            0.196712808170 Eh    ::
         :: -> anisotropic ES          0.028779442143 Eh    ::
         :: -> anisotropic XC          0.089340769767 Eh    ::
         :: -> dispersion             -0.275286290297 Eh    ::
         :: repulsion energy           4.061276917902 Eh    ::
         :: add. restraining           0.000000000000 Eh    ::
         :: total charge               0.000000000000 e     ::
         :::::::::::::::::::::::::::::::::::::::::::::::::::::

      ----------------------------------------------------------- 
     |                   =====================                   |
     |                        A N C O P T                        |
     |                   =====================                   |
     |               Approximate Normal Coordinate               |
     |                Rational Function Optimizer                |
      ----------------------------------------------------------- 
      ----------------------------------------------------------- 
     |                   =====================                   |
     |                        A N C O P T                        |
     |                   =====================                   |
     |               Approximate Normal Coordinate               |
     |                Rational Function Optimizer                |
      ----------------------------------------------------------- 

          ...................................................
          :                      SETUP                      :
          :.................................................:
          :   optimization level            normal          :
          :   max. optcycles                   396          :
          :   ANC micro-cycles                  20          :
          :   degrees of freedom               390          :
          :.................................................:
          :   RF solver                   davidson          :
          :   write xtbopt.log                true          :
          :   linear?                        false          :
          :   energy convergence         0.5000000E-05 Eh   :
          :   grad. convergence          0.1000000E-02 Eh/α :
          :   maxmium RF displ.          1.0000000          :
          :   Hlow (freq-cutoff)         0.1000000E-01      :
          :   Hmax (freq-cutoff)         5.0000000          :
          :   S6 in model hess.         20.0000000          :
          ...................................................

generating ANC from exact Hessian ...
Using Lindh-Hessian (1995)
 Shifting diagonal of input Hessian by   9.903143920528736E-003
 Lowest  eigenvalues of input Hessian
    0.000000    0.000000    0.000000    0.000000    0.000000    0.000000
    0.010000    0.010115    0.010177    0.010314    0.010353    0.010991
    0.011016    0.011168    0.011250    0.011440    0.012049    0.012441
 Highest eigenvalues
    2.005986    2.026116    2.029277    2.056836    2.073334    2.086950
 

........................................................................
.............................. CYCLE    1 ..............................
........................................................................

 iter      E             dE          RMSdq      gap      omega  full diag
   1   -232.3327828 -0.232333E+03  0.957E-05    0.07       0.0  T
   2   -232.3327822  0.647720E-06  0.138E-03    0.07       6.3  T
   3   -232.3327828 -0.644358E-06  0.144E-04    0.07      60.3  T
   4   -232.3327828  0.757439E-09  0.146E-04    0.07      59.6  T
     SCC iter.                  ...        0 min,  0.176 sec
     gradient                   ...        0 min,  0.155 sec
 * total energy  :  -228.2786752 Eh     change       -0.4328882E-07 Eh
   gradient norm :     0.0849985 Eh/α   predicted     0.0000000E+00 (-100.00%)
   displ. norm   :     0.4417094 α      lambda       -0.1719758E-01
   maximum displ.:     0.2303468 α      in ANC's #46, #48, #72, ...

........................................................................
.............................. CYCLE    2 ..............................
........................................................................

 iter      E             dE          RMSdq      gap      omega  full diag
   1   -232.4492196 -0.232449E+03  0.212E-01    0.06       0.0  T
   2   -232.2975729  0.151647E+00  0.666E-01    0.35       1.0  T
   3   -232.4497463 -0.152173E+00  0.183E-01    0.10       1.0  T
   4   -232.4552188 -0.547248E-02  0.113E-01    0.05       1.0  T
   5   -232.4360904  0.191284E-01  0.267E-01    0.07       1.0  T
   6   -232.4580297 -0.219393E-01  0.326E-02    0.07       1.0  T
   7   -232.4567800  0.124971E-02  0.731E-02    0.07       1.0  T
   8   -232.4579643 -0.118426E-02  0.406E-02    0.07       1.0  T
   9   -232.4584483 -0.484016E-03  0.973E-03    0.07       1.0  T
  10   -232.4584740 -0.256868E-04  0.334E-03    0.07       2.6  T
  11   -232.4584652  0.872479E-05  0.592E-03    0.07       1.5  T
  12   -232.4584762 -0.109051E-04  0.864E-04    0.07      10.1  T
  13   -232.4584764 -0.199156E-06  0.417E-04    0.07      20.8  T
  14   -232.4584764 -0.108950E-07  0.321E-04    0.07      27.1  T
     SCC iter.                  ...        0 min,  0.651 sec
     gradient                   ...        0 min,  0.107 sec
 * total energy  :  -228.2913014 Eh     change       -0.1262620E-01 Eh
   gradient norm :     0.0366546 Eh/α   predicted    -0.1027761E-01 ( -18.60%)
   displ. norm   :     0.4539737 α      lambda       -0.7452439E-02
   maximum displ.:     0.2638290 α      in ANC's #46, #48, #47, ...

........................................................................
.............................. CYCLE    3 ..............................
........................................................................

 iter      E             dE          RMSdq      gap      omega  full diag
   1   -232.5549509 -0.232555E+03  0.180E-01    0.06       0.0  T
   2   -232.4101941  0.144757E+00  0.643E-01    0.33       1.0  T
   3   -232.5574115 -0.147217E+00  0.120E-01    0.09       1.0  T
   4   -232.5590567 -0.164517E-02  0.960E-02    0.05       1.0  T
   5   -232.5576627  0.139403E-02  0.112E-01    0.06       1.0  T
   6   -232.5609742 -0.331152E-02  0.279E-02    0.06       1.0  T
   7   -232.5601692  0.805000E-03  0.600E-02    0.07       1.0  T
   8   -232.5611992 -0.102999E-02  0.215E-02    0.06       1.0  T
   9   -232.5613350 -0.135812E-03  0.480E-03    0.06       1.8  T
  10   -232.5613408 -0.579415E-05  0.165E-03    0.06       5.3  T
  11   -232.5613377  0.313392E-05  0.342E-03    0.06       2.5  T
  12   -232.5613410 -0.329177E-05  0.108E-03    0.06       8.0  T
  13   -232.5613413 -0.358349E-06  0.316E-04    0.06      27.5  T
  14   -232.5613413 -0.192130E-07  0.185E-04    0.06      47.0  T
     SCC iter.                  ...        0 min,  0.638 sec
     gradient                   ...        0 min,  0.141 sec
 * total energy  :  -228.2958926 Eh     change       -0.4591221E-02 Eh
   gradient norm :     0.0111793 Eh/α   predicted    -0.4494644E-02 (  -2.10%)
   displ. norm   :     0.2438909 α      lambda       -0.1116859E-02
   maximum displ.:     0.1274265 α      in ANC's #46, #48, #47, ...

........................................................................
.............................. CYCLE    4 ..............................
........................................................................

 iter      E             dE          RMSdq      gap      omega  full diag
   1   -232.5963345 -0.232596E+03  0.800E-02    0.06       0.0  T
   2   -232.5456675  0.506669E-01  0.381E-01    0.13       1.0  T
   3   -232.5856005 -0.399330E-01  0.184E-01    0.06       1.0  T
   4   -232.5943386 -0.873809E-02  0.799E-02    0.05       1.0  T
   5   -232.5949986 -0.660062E-03  0.709E-02    0.07       1.0  T
   6   -232.5957780 -0.779362E-03  0.497E-02    0.06       1.0  T
   7   -232.5964032 -0.625235E-03  0.264E-02    0.06       1.0  T
   8   -232.5965104 -0.107210E-03  0.185E-02    0.06       1.0  T
   9   -232.5965950 -0.845255E-04  0.875E-03    0.06       1.0  T
  10   -232.5966155 -0.205684E-04  0.318E-03    0.06       2.7  T
  11   -232.5966188 -0.332217E-05  0.397E-04    0.06      21.9  T
  12   -232.5966188  0.214386E-07  0.389E-04    0.06      22.4  T
  13   -232.5966189 -0.483207E-07  0.114E-04    0.06      76.4  T
     SCC iter.                  ...        0 min,  0.595 sec
     gradient                   ...        0 min,  0.139 sec
 * total energy  :  -228.2966264 Eh     change       -0.7337370E-03 Eh
   gradient norm :     0.0068222 Eh/α   predicted    -0.5916525E-03 ( -19.36%)
   displ. norm   :     0.2100323 α      lambda       -0.4075885E-03
   maximum displ.:     0.0919634 α      in ANC's #11, #6, #46, ...

........................................................................
.............................. CYCLE    5 ..............................
........................................................................

 iter      E             dE          RMSdq      gap      omega  full diag
   1   -232.6091702 -0.232609E+03  0.841E-02    0.06       0.0  T
   2   -232.6059378  0.323244E-02  0.109E-01    0.07       1.0  T
   3   -232.5442407  0.616971E-01  0.436E-01    0.09       1.0  T
   4   -232.6084142 -0.641736E-01  0.522E-02    0.06       1.0  T
   5   -232.6090982 -0.683943E-03  0.157E-02    0.06       1.0  T
   6   -232.6091717 -0.734900E-04  0.723E-03    0.06       1.2  T
   7   -232.6091819 -0.102205E-04  0.381E-03    0.06       2.3  T
   8   -232.6091829 -0.100883E-05  0.321E-03    0.06       2.7  T
   9   -232.6091840 -0.112852E-05  0.202E-03    0.06       4.3  T
  10   -232.6091845 -0.421775E-06  0.102E-03    0.06       8.6  T
  11   -232.6091847 -0.271798E-06  0.235E-04    0.06      37.1  T
  12   -232.6091847  0.276825E-08  0.220E-04    0.06      39.7  T
     SCC iter.                  ...        0 min,  0.559 sec
     gradient                   ...        0 min,  0.135 sec
 * total energy  :  -228.2969280 Eh     change       -0.3016062E-03 Eh
   gradient norm :     0.0031094 Eh/α   predicted    -0.2127915E-03 ( -29.45%)
   displ. norm   :     0.3324981 α      lambda       -0.4248962E-03
   maximum displ.:     0.1558001 α      in ANC's #11, #6, #4, ...

........................................................................
.............................. CYCLE    6 ..............................
........................................................................

 iter      E             dE          RMSdq      gap      omega  full diag
   1   -232.6146320 -0.232615E+03  0.148E-01    0.06       0.0  T
   2   -232.6059310  0.870109E-02  0.183E-01    0.08       1.0  T
   3   -232.4806972  0.125234E+00  0.626E-01    0.15       1.0  T
   4   -232.6075564 -0.126859E+00  0.148E-01    0.08       1.0  T
   5   -232.6145125 -0.695611E-02  0.240E-02    0.06       1.0  T
   6   -232.6144370  0.755112E-04  0.272E-02    0.06       1.0  T
   7   -232.6145706 -0.133570E-03  0.182E-02    0.06       1.0  T
   8   -232.6146082 -0.376313E-04  0.143E-02    0.06       1.0  T
   9   -232.6146614 -0.531483E-04  0.603E-03    0.06       1.4  T
  10   -232.6146679 -0.651567E-05  0.219E-03    0.06       4.0  T
  11   -232.6146696 -0.169567E-05  0.444E-04    0.06      19.6  T
  12   -232.6146696  0.219111E-08  0.392E-04    0.06      22.2  T
  13   -232.6146696 -0.153528E-07  0.307E-04    0.06      28.4  T
     SCC iter.                  ...        0 min,  0.603 sec
     gradient                   ...        0 min,  0.135 sec
 * total energy  :  -228.2972569 Eh     change       -0.3288927E-03 Eh
   gradient norm :     0.0064536 Eh/α   predicted    -0.2359484E-03 ( -28.26%)
   displ. norm   :     0.4543310 α      lambda       -0.4969508E-03
   maximum displ.:     0.2042931 α      in ANC's #11, #6, #10, ...

........................................................................
.............................. CYCLE    7 ..............................
........................................................................

 iter      E             dE          RMSdq      gap      omega  full diag
   1   -232.6122721 -0.232612E+03  0.203E-01    0.06       0.0  T
   2   -232.5681327  0.441394E-01  0.376E-01    0.12       1.0  T
   3   -232.5000300  0.681028E-01  0.576E-01    0.13       1.0  T
   4   -232.5997082 -0.996782E-01  0.211E-01    0.10       1.0  T
   5   -232.6117665 -0.120583E-01  0.513E-02    0.06       1.0  T
   6   -232.6121865 -0.420032E-03  0.365E-02    0.07       1.0  T
   7   -232.6123576 -0.171095E-03  0.262E-02    0.06       1.0  T
   8   -232.6124345 -0.769066E-04  0.189E-02    0.06       1.0  T
   9   -232.6124552 -0.206690E-04  0.147E-02    0.06       1.0  T
  10   -232.6124906 -0.354161E-04  0.465E-03    0.06       1.9  T
  11   -232.6124969 -0.631867E-05  0.193E-03    0.06       4.5  T
  12   -232.6124974 -0.428426E-06  0.972E-04    0.06       9.0  T
  13   -232.6124975 -0.103254E-06  0.656E-04    0.06      13.3  T
     SCC iter.                  ...        0 min,  0.594 sec
     gradient                   ...        0 min,  0.139 sec
 * total energy  :  -228.2976304 Eh     change       -0.3735692E-03 Eh
   gradient norm :     0.0099705 Eh/α   predicted    -0.2997832E-03 ( -19.75%)
   displ. norm   :     0.4092195 α      lambda       -0.4620071E-03
   maximum displ.:     0.1560706 α      in ANC's #11, #10, #4, ...

........................................................................
.............................. CYCLE    8 ..............................
........................................................................

 iter      E             dE          RMSdq      gap      omega  full diag
   1   -232.6043322 -0.232604E+03  0.181E-01    0.06       0.0  T
   2   -232.5369058  0.674264E-01  0.449E-01    0.15       1.0  T
   3   -232.5547434 -0.178375E-01  0.386E-01    0.09       1.0  T
   4   -232.5939989 -0.392556E-01  0.199E-01    0.09       1.0  T
   5   -232.5997955 -0.579661E-02  0.121E-01    0.07       1.0  T
   6   -232.6028550 -0.305946E-02  0.782E-02    0.07       1.0  T
   7   -232.6035779 -0.722875E-03  0.615E-02    0.07       1.0  T
   8   -232.6043526 -0.774727E-03  0.380E-02    0.06       1.0  T
   9   -232.6045708 -0.218256E-03  0.253E-02    0.06       1.0  T
  10   -232.6047584 -0.187576E-03  0.708E-03    0.06       1.2  T
  11   -232.6047720 -0.135715E-04  0.181E-03    0.06       4.8  T
  12   -232.6047726 -0.594316E-06  0.582E-04    0.06      15.0  T
  13   -232.6047726 -0.355617E-07  0.326E-04    0.06      26.7  T
     SCC iter.                  ...        0 min,  0.595 sec
     gradient                   ...        0 min,  0.141 sec
 * total energy  :  -228.2979743 Eh     change       -0.3438858E-03 Eh
   gradient norm :     0.0088603 Eh/α   predicted    -0.2696893E-03 ( -21.58%)
   displ. norm   :     0.3242356 α      lambda       -0.4094242E-03
   maximum displ.:     0.1273676 α      in ANC's #10, #4, #7, ...

........................................................................
.............................. CYCLE    9 ..............................
........................................................................

 iter      E             dE          RMSdq      gap      omega  full diag
   1   -232.5976214 -0.232598E+03  0.138E-01    0.06       0.0  T
   2   -232.5254679  0.721536E-01  0.457E-01    0.16       1.0  T
   3   -232.5886584 -0.631905E-01  0.177E-01    0.06       1.0  T
   4   -232.5915907 -0.293226E-02  0.141E-01    0.07       1.0  T
   5   -232.5966150 -0.502430E-02  0.665E-02    0.06       1.0  T
   6   -232.5976047 -0.989672E-03  0.383E-02    0.06       1.0  T
   7   -232.5979881 -0.383414E-03  0.195E-02    0.06       1.0  T
   8   -232.5980582 -0.701219E-04  0.136E-02    0.06       1.0  T
   9   -232.5981090 -0.508145E-04  0.454E-03    0.06       1.9  T
  10   -232.5981135 -0.448406E-05  0.309E-03    0.06       2.8  T
  11   -232.5981163 -0.283889E-05  0.478E-04    0.06      18.2  T
  12   -232.5981163  0.358178E-07  0.524E-04    0.06      16.6  T
  13   -232.5981163 -0.506856E-07  0.326E-04    0.06      26.7  T
     SCC iter.                  ...        0 min,  0.589 sec
     gradient                   ...        0 min,  0.145 sec
 * total energy  :  -228.2982488 Eh     change       -0.2744254E-03 Eh
   gradient norm :     0.0036940 Eh/α   predicted    -0.2262346E-03 ( -17.56%)
   displ. norm   :     0.3108145 α      lambda       -0.2377866E-03
   maximum displ.:     0.1257394 α      in ANC's #10, #4, #7, ...

........................................................................
.............................. CYCLE   10 ..............................
........................................................................

 iter      E             dE          RMSdq      gap      omega  full diag
   1   -232.5964449 -0.232596E+03  0.156E-01    0.06       0.0  T
   2   -232.5150588  0.813860E-01  0.484E-01    0.18       1.0  T
   3   -232.5776932 -0.626343E-01  0.244E-01    0.07       1.0  T
   4   -232.5871263 -0.943313E-02  0.178E-01    0.08       1.0  T
   5   -232.5928412 -0.571494E-02  0.110E-01    0.06       1.0  T
   6   -232.5956658 -0.282459E-02  0.644E-02    0.06       1.0  T
   7   -232.5962321 -0.566334E-03  0.498E-02    0.06       1.0  T
   8   -232.5967828 -0.550679E-03  0.312E-02    0.06       1.0  T
   9   -232.5969869 -0.204102E-03  0.172E-02    0.06       1.0  T
  10   -232.5970748 -0.878317E-04  0.644E-03    0.06       1.4  T
  11   -232.5970881 -0.133101E-04  0.722E-04    0.06      12.1  T
  12   -232.5970881 -0.301422E-07  0.506E-04    0.06      17.2  T
  13   -232.5970881 -0.500962E-07  0.271E-04    0.06      32.1  T
     SCC iter.                  ...        0 min,  0.601 sec
     gradient                   ...        0 min,  0.141 sec
 * total energy  :  -228.2984028 Eh     change       -0.1540653E-03 Eh
   gradient norm :     0.0051290 Eh/α   predicted    -0.1303797E-03 ( -15.37%)
   displ. norm   :     0.2628196 α      lambda       -0.2442173E-03
   maximum displ.:     0.1021896 α      in ANC's #4, #10, #7, ...

........................................................................
.............................. CYCLE   11 ..............................
........................................................................

 iter      E             dE          RMSdq      gap      omega  full diag
   1   -232.6003104 -0.232600E+03  0.101E-01    0.06       0.0  T
   2   -232.5421361  0.581743E-01  0.407E-01    0.14       1.0  T
   3   -232.5983179 -0.561818E-01  0.954E-02    0.06       1.0  T
   4   -232.5975198  0.798116E-03  0.933E-02    0.05       1.0  T
   5   -232.6004373 -0.291749E-02  0.244E-02    0.06       1.0  T
   6   -232.6005721 -0.134851E-03  0.128E-02    0.06       1.0  T
   7   -232.6006024 -0.302146E-04  0.844E-03    0.06       1.0  T
   8   -232.6006230 -0.206872E-04  0.244E-03    0.06       3.6  T
   9   -232.6006241 -0.109395E-05  0.134E-03    0.06       6.5  T
  10   -232.6006245 -0.315852E-06  0.578E-04    0.06      15.1  T
  11   -232.6006245 -0.514420E-07  0.370E-04    0.06      23.5  T
     SCC iter.                  ...        0 min,  0.501 sec
     gradient                   ...        0 min,  0.139 sec
 * total energy  :  -228.2985590 Eh     change       -0.1561698E-03 Eh
   gradient norm :     0.0067087 Eh/α   predicted    -0.1305527E-03 ( -16.40%)
   displ. norm   :     0.3120070 α      lambda       -0.2238371E-03
   maximum displ.:     0.1242966 α      in ANC's #4, #10, #14, ...

........................................................................
.............................. CYCLE   12 ..............................
........................................................................

 iter      E             dE          RMSdq      gap      omega  full diag
   1   -232.6040170 -0.232604E+03  0.141E-01    0.05       0.0  T
   2   -232.5226863  0.813307E-01  0.479E-01    0.17       1.0  T
   3   -232.5913957 -0.687094E-01  0.203E-01    0.06       1.0  T
   4   -232.5965857 -0.519000E-02  0.153E-01    0.07       1.0  T
   5   -232.6020423 -0.545660E-02  0.866E-02    0.06       1.0  T
   6   -232.6036647 -0.162235E-02  0.520E-02    0.06       1.0  T
   7   -232.6043850 -0.720324E-03  0.279E-02    0.06       1.0  T
   8   -232.6045416 -0.156629E-03  0.168E-02    0.06       1.0  T
   9   -232.6045814 -0.397562E-04  0.125E-02    0.06       1.0  T
  10   -232.6046288 -0.473861E-04  0.377E-03    0.06       2.3  T
  11   -232.6046333 -0.449779E-05  0.831E-04    0.06      10.5  T
  12   -232.6046332  0.869042E-07  0.895E-04    0.06       9.7  T
  13   -232.6046334 -0.255295E-06  0.316E-04    0.06      27.5  T
     SCC iter.                  ...        0 min,  0.599 sec
     gradient                   ...        0 min,  0.149 sec
 * total energy  :  -228.2987019 Eh     change       -0.1429075E-03 Eh
   gradient norm :     0.0056892 Eh/α   predicted    -0.1228148E-03 ( -14.06%)
   displ. norm   :     0.2942248 α      lambda       -0.2464713E-03
   maximum displ.:     0.1057047 α      in ANC's #12, #4, #15, ...

........................................................................
.............................. CYCLE   13 ..............................
........................................................................

 iter      E             dE          RMSdq      gap      omega  full diag
   1   -232.6099532 -0.232610E+03  0.122E-01    0.05       0.0  T
   2   -232.5640150  0.459382E-01  0.362E-01    0.12       1.0  T
   3   -232.5919331 -0.279181E-01  0.232E-01    0.06       1.0  T
   4   -232.6092527 -0.173196E-01  0.574E-02    0.06       1.0  T
   5   -232.6092698 -0.170685E-04  0.497E-02    0.06       1.0  T
   6   -232.6098799 -0.610059E-03  0.297E-02    0.06       1.0  T
   7   -232.6100586 -0.178746E-03  0.182E-02    0.06       1.0  T
   8   -232.6101062 -0.476293E-04  0.135E-02    0.06       1.0  T
   9   -232.6101511 -0.448725E-04  0.570E-03    0.06       1.5  T
  10   -232.6101601 -0.898243E-05  0.156E-03    0.06       5.6  T
  11   -232.6101608 -0.717823E-06  0.482E-04    0.06      18.1  T
  12   -232.6101608  0.145099E-07  0.481E-04    0.06      18.1  T
     SCC iter.                  ...        0 min,  0.608 sec
     gradient                   ...        0 min,  0.137 sec
 * total energy  :  -228.2988342 Eh     change       -0.1323543E-03 Eh
   gradient norm :     0.0059971 Eh/α   predicted    -0.1339044E-03 (   1.17%)
   displ. norm   :     0.1593214 α      lambda       -0.1629132E-03
   maximum displ.:     0.0685950 α      in ANC's #11, #6, #12, ...

........................................................................
.............................. CYCLE   14 ..............................
........................................................................

 iter      E             dE          RMSdq      gap      omega  full diag
   1   -232.6121971 -0.232612E+03  0.540E-02    0.06       0.0  T
   2   -232.6110872  0.110992E-02  0.627E-02    0.05       1.0  T
   3   -232.5780067  0.330805E-01  0.307E-01    0.10       1.0  T
   4   -232.6117942 -0.337876E-01  0.385E-02    0.06       1.0  T
   5   -232.6120696 -0.275336E-03  0.191E-02    0.06       1.0  T
   6   -232.6121669 -0.973691E-04  0.103E-02    0.06       1.0  T
   7   -232.6121920 -0.250895E-04  0.562E-03    0.06       1.5  T
   8   -232.6122019 -0.991044E-05  0.190E-03    0.06       4.6  T
   9   -232.6122026 -0.700291E-06  0.907E-04    0.06       9.6  T
  10   -232.6122026  0.577203E-07  0.878E-04    0.06       9.9  T
     SCC iter.                  ...        0 min,  0.467 sec
     gradient                   ...        0 min,  0.148 sec
 * total energy  :  -228.2989114 Eh     change       -0.7717119E-04 Eh
   gradient norm :     0.0049779 Eh/α   predicted    -0.8352441E-04 (   8.23%)
   displ. norm   :     0.2033322 α      lambda       -0.1392196E-03
   maximum displ.:     0.0792911 α      in ANC's #14, #4, #12, ...

........................................................................
.............................. CYCLE   15 ..............................
........................................................................

 iter      E             dE          RMSdq      gap      omega  full diag
   1   -232.6075529 -0.232608E+03  0.920E-02    0.05       0.0  T
   2   -232.5337977  0.737553E-01  0.450E-01    0.16       1.0  T
   3   -232.6062491 -0.724514E-01  0.837E-02    0.06       1.0  T
   4   -232.6046706  0.157855E-02  0.932E-02    0.04       1.0  T
   5   -232.6077888 -0.311821E-02  0.263E-02    0.06       1.0  T
   6   -232.6080175 -0.228753E-03  0.540E-03    0.06       1.6  T
   7   -232.6080056  0.119202E-04  0.755E-03    0.06       1.2  T
   8   -232.6080224 -0.168145E-04  0.325E-03    0.06       2.7  T
   9   -232.6080253 -0.284549E-05  0.133E-03    0.06       6.5  T
  10   -232.6080257 -0.391316E-06  0.454E-04    0.06      19.2  T
  11   -232.6080257  0.729551E-08  0.435E-04    0.06      20.0  T
     SCC iter.                  ...        0 min,  0.509 sec
     gradient                   ...        0 min,  0.135 sec
 * total energy  :  -228.2990036 Eh     change       -0.9213437E-04 Eh
   gradient norm :     0.0037859 Eh/α   predicted    -0.7249139E-04 ( -21.32%)
   displ. norm   :     0.1974939 α      lambda       -0.1288690E-03
   maximum displ.:     0.0867565 α      in ANC's #6, #11, #12, ...

........................................................................
.............................. CYCLE   16 ..............................
........................................................................

 iter      E             dE          RMSdq      gap      omega  full diag
   1   -232.6037447 -0.232604E+03  0.846E-02    0.05       0.0  T
   2   -232.5938164  0.992824E-02  0.174E-01    0.07       1.0  T
   3   -232.5836186  0.101978E-01  0.237E-01    0.06       1.0  T
   4   -232.6024020 -0.187834E-01  0.737E-02    0.06       1.0  T
   5   -232.6037184 -0.131645E-02  0.142E-02    0.05       1.0  T
   6   -232.6037741 -0.556330E-04  0.697E-03    0.06       1.2  T
   7   -232.6037791 -0.500669E-05  0.494E-03    0.06       1.8  T
   8   -232.6037846 -0.547055E-05  0.306E-03    0.06       2.8  T
   9   -232.6037854 -0.890917E-06  0.176E-03    0.06       5.0  T
  10   -232.6037859 -0.441050E-06  0.116E-03    0.06       7.5  T
  11   -232.6037863 -0.456528E-06  0.329E-04    0.06      26.5  T
  12   -232.6037864 -0.256766E-07  0.163E-04    0.06      53.3  T
     SCC iter.                  ...        0 min,  0.549 sec
     gradient                   ...        0 min,  0.147 sec
 * total energy  :  -228.2990826 Eh     change       -0.7903477E-04 Eh
   gradient norm :     0.0038620 Eh/α   predicted    -0.6695036E-04 ( -15.29%)
   displ. norm   :     0.1667364 α      lambda       -0.7458152E-04
   maximum displ.:     0.0599622 α      in ANC's #5, #6, #12, ...

........................................................................
.............................. CYCLE   17 ..............................
........................................................................

 iter      E             dE          RMSdq      gap      omega  full diag
   1   -232.6023209 -0.232602E+03  0.687E-02    0.05       0.0  T
   2   -232.5796324  0.226885E-01  0.252E-01    0.09       1.0  T
   3   -232.6000479 -0.204155E-01  0.878E-02    0.05       1.0  T
   4   -232.6018106 -0.176263E-02  0.473E-02    0.06       1.0  T
   5   -232.6023717 -0.561179E-03  0.993E-03    0.06       1.0  T
   6   -232.6023849 -0.131283E-04  0.685E-03    0.06       1.3  T
   7   -232.6023967 -0.118189E-04  0.396E-03    0.06       2.2  T
   8   -232.6024009 -0.423006E-05  0.158E-03    0.06       5.5  T
   9   -232.6024013 -0.397151E-06  0.978E-04    0.06       8.9  T
  10   -232.6024015 -0.228196E-06  0.380E-04    0.06      22.9  T
     SCC iter.                  ...        0 min,  0.454 sec
     gradient                   ...        0 min,  0.145 sec
 * total energy  :  -228.2991350 Eh     change       -0.5237707E-04 Eh
   gradient norm :     0.0028934 Eh/α   predicted    -0.3832924E-04 ( -26.82%)
   displ. norm   :     0.1778969 α      lambda       -0.6823117E-04
   maximum displ.:     0.0699766 α      in ANC's #5, #6, #4, ...

........................................................................
.............................. CYCLE   18 ..............................
........................................................................

 iter      E             dE          RMSdq      gap      omega  full diag
   1   -232.6037891 -0.232604E+03  0.699E-02    0.05       0.0  T
   2   -232.5889385  0.148506E-01  0.206E-01    0.08       1.0  T
   3   -232.5991455 -0.102070E-01  0.118E-01    0.05       1.0  T
   4   -232.6032314 -0.408584E-02  0.498E-02    0.06       1.0  T
   5   -232.6037788 -0.547466E-03  0.133E-02    0.06       1.0  T
   6   -232.6038222 -0.433942E-04  0.743E-03    0.06       1.2  T
   7   -232.6038305 -0.824925E-05  0.513E-03    0.06       1.7  T
   8   -232.6038386 -0.809463E-05  0.235E-03    0.06       3.7  T
   9   -232.6038397 -0.116602E-05  0.920E-04    0.06       9.5  T
  10   -232.6038398 -0.838864E-07  0.601E-04    0.06      14.5  T
  11   -232.6038399 -0.114301E-06  0.247E-04    0.06      35.3  T
     SCC iter.                  ...        0 min,  0.512 sec
     gradient                   ...        0 min,  0.138 sec
 * total energy  :  -228.2991832 Eh     change       -0.4821101E-04 Eh
   gradient norm :     0.0022362 Eh/α   predicted    -0.3519745E-04 ( -26.99%)
   displ. norm   :     0.1903459 α      lambda       -0.5382185E-04
   maximum displ.:     0.0832962 α      in ANC's #5, #4, #3, ...

........................................................................
.............................. CYCLE   19 ..............................
........................................................................

 iter      E             dE          RMSdq      gap      omega  full diag
   1   -232.6058915 -0.232606E+03  0.709E-02    0.05       0.0  T
   2   -232.5764525  0.294390E-01  0.286E-01    0.09       1.0  T
   3   -232.6044780 -0.280256E-01  0.744E-02    0.05       1.0  T
   4   -232.6054386 -0.960536E-03  0.439E-02    0.05       1.0  T
   5   -232.6059677 -0.529131E-03  0.101E-02    0.06       1.0  T
   6   -232.6059839 -0.162388E-04  0.650E-03    0.05       1.3  T
   7   -232.6059955 -0.115774E-04  0.344E-03    0.06       2.5  T
   8   -232.6059986 -0.307623E-05  0.134E-03    0.05       6.5  T
   9   -232.6059988 -0.229513E-06  0.101E-03    0.05       8.6  T
  10   -232.6059990 -0.220353E-06  0.317E-04    0.05      27.5  T
  11   -232.6059991 -0.235991E-07  0.907E-05    0.05      96.0  T
     SCC iter.                  ...        0 min,  0.508 sec
     gradient                   ...        0 min,  0.138 sec
 * total energy  :  -228.2992217 Eh     change       -0.3848263E-04 Eh
   gradient norm :     0.0023027 Eh/α   predicted    -0.2788910E-04 ( -27.53%)
   displ. norm   :     0.1802470 α      lambda       -0.5157987E-04
   maximum displ.:     0.0830549 α      in ANC's #5, #13, #3, ...

........................................................................
.............................. CYCLE   20 ..............................
........................................................................

 iter      E             dE          RMSdq      gap      omega  full diag
   1   -232.6084361 -0.232608E+03  0.632E-02    0.05       0.0  T
   2   -232.5984579  0.997821E-02  0.170E-01    0.07       1.0  T
   3   -232.6039666 -0.550876E-02  0.114E-01    0.05       1.0  T
   4   -232.6080540 -0.408741E-02  0.411E-02    0.06       1.0  T
   5   -232.6084329 -0.378826E-03  0.100E-02    0.05       1.0  T
   6   -232.6084550 -0.221854E-04  0.620E-03    0.06       1.4  T
   7   -232.6084625 -0.749861E-05  0.381E-03    0.05       2.3  T
   8   -232.6084669 -0.432754E-05  0.169E-03    0.05       5.1  T
   9   -232.6084672 -0.372294E-06  0.100E-03    0.05       8.7  T
  10   -232.6084675 -0.259771E-06  0.405E-04    0.05      21.5  T
  11   -232.6084676 -0.427500E-07  0.126E-04    0.05      69.1  T
     SCC iter.                  ...        0 min,  0.505 sec
     gradient                   ...        0 min,  0.140 sec
 * total energy  :  -228.2992611 Eh     change       -0.3939403E-04 Eh
   gradient norm :     0.0028817 Eh/α   predicted    -0.2663153E-04 ( -32.40%)
   displ. norm   :     0.2766699 α      lambda       -0.7506148E-04
   maximum displ.:     0.1318207 α      in ANC's #5, #13, #3, ...
 * RMSD in coord.:     0.3154242 α      energy gain  -0.2058588E-01 Eh

generating ANC from exact Hessian ...
Using Lindh-Hessian (1995)
 Shifting diagonal of input Hessian by   9.890978439971746E-003
 Lowest  eigenvalues of input Hessian
    0.000000    0.000000    0.000000    0.000000    0.000000    0.000000
    0.010000    0.010124    0.010192    0.010373    0.010403    0.011136
    0.011258    0.011323    0.011393    0.011652    0.012597    0.012783
 Highest eigenvalues
    2.089950    2.097912    2.110641    2.136247    2.164702    2.169049
 

........................................................................
.............................. CYCLE   21 ..............................
........................................................................

 iter      E             dE          RMSdq      gap      omega  full diag
   1   -232.6098123 -0.232610E+03  0.986E-02    0.05       0.0  T
   2   -232.5955792  0.142331E-01  0.207E-01    0.07       1.0  T
   3   -232.5844994  0.110798E-01  0.264E-01    0.07       1.0  T
   4   -232.6083088 -0.238093E-01  0.801E-02    0.07       1.0  T
   5   -232.6097160 -0.140718E-02  0.204E-02    0.05       1.0  T
   6   -232.6098175 -0.101500E-03  0.121E-02    0.06       1.0  T
   7   -232.6098388 -0.212918E-04  0.855E-03    0.06       1.0  T
   8   -232.6098563 -0.175812E-04  0.488E-03    0.06       1.8  T
   9   -232.6098586 -0.230659E-05  0.322E-03    0.05       2.7  T
  10   -232.6098616 -0.294138E-05  0.803E-04    0.05      10.8  T
  11   -232.6098618 -0.204087E-06  0.241E-04    0.05      36.1  T
  12   -232.6098618  0.459380E-09  0.208E-04    0.05      41.8  T
     SCC iter.                  ...        0 min,  0.550 sec
     gradient                   ...        0 min,  0.147 sec
 * total energy  :  -228.2993211 Eh     change       -0.6000834E-04 Eh
   gradient norm :     0.0036750 Eh/α   predicted     0.0000000E+00 (-100.00%)
   displ. norm   :     0.0451951 α      lambda       -0.5105996E-04
   maximum displ.:     0.0178694 α      in ANC's #13, #23, #5, ...

........................................................................
.............................. CYCLE   22 ..............................
........................................................................

 iter      E             dE          RMSdq      gap      omega  full diag
   1   -232.6082243 -0.232608E+03  0.288E-02    0.06       0.0  T
   2   -232.5774597  0.307645E-01  0.288E-01    0.07       1.0  T
   3   -232.6081626 -0.307028E-01  0.248E-02    0.06       1.0  T
   4   -232.6082530 -0.904429E-04  0.145E-02    0.06       1.0  T
   5   -232.6082982 -0.451566E-04  0.558E-03    0.05       1.6  T
   6   -232.6083050 -0.680008E-05  0.350E-03    0.06       2.5  T
   7   -232.6083078 -0.281745E-05  0.159E-03    0.05       5.5  T
   8   -232.6083079 -0.798260E-07  0.131E-03    0.05       6.6  T
   9   -232.6083084 -0.560411E-06  0.476E-04    0.05      18.3  T
  10   -232.6083085 -0.770031E-07  0.194E-04    0.05      45.0  T
     SCC iter.                  ...        0 min,  0.464 sec
     gradient                   ...        0 min,  0.147 sec
 * total energy  :  -228.2993613 Eh     change       -0.4021951E-04 Eh
   gradient norm :     0.0016658 Eh/α   predicted    -0.2602366E-04 ( -35.30%)
   displ. norm   :     0.1710973 α      lambda       -0.7314375E-04
   maximum displ.:     0.0755547 α      in ANC's #13, #5, #16, ...

........................................................................
.............................. CYCLE   23 ..............................
........................................................................

 iter      E             dE          RMSdq      gap      omega  full diag
   1   -232.6031570 -0.232603E+03  0.938E-02    0.06       0.0  T
   2   -232.4729730  0.130184E+00  0.597E-01    0.16       1.0  T
   3   -232.6028368 -0.129864E+00  0.722E-02    0.06       1.0  T
   4   -232.6032746 -0.437811E-03  0.486E-02    0.06       1.0  T
   5   -232.6037834 -0.508800E-03  0.119E-02    0.06       1.0  T
   6   -232.6038136 -0.301609E-04  0.588E-03    0.05       1.5  T
   7   -232.6037710  0.426475E-04  0.118E-02    0.06       1.0  T
   8   -232.6038128 -0.418784E-04  0.531E-03    0.06       1.6  T
   9   -232.6038177 -0.489371E-05  0.354E-03    0.06       2.5  T
  10   -232.6038228 -0.502394E-05  0.784E-04    0.06      11.1  T
  11   -232.6038230 -0.204762E-06  0.212E-04    0.06      41.1  T
  12   -232.6038230 -0.448688E-08  0.139E-04    0.06      62.7  T
     SCC iter.                  ...        0 min,  0.545 sec
     gradient                   ...        0 min,  0.147 sec
 * total energy  :  -228.2994105 Eh     change       -0.4918850E-04 Eh
   gradient norm :     0.0037343 Eh/α   predicted    -0.3704867E-04 ( -24.68%)
   displ. norm   :     0.0478842 α      lambda       -0.2659043E-04
   maximum displ.:     0.0240147 α      in ANC's #13, #5, #7, ...

........................................................................
.............................. CYCLE   24 ..............................
........................................................................

 iter      E             dE          RMSdq      gap      omega  full diag
   1   -232.6044217 -0.232604E+03  0.216E-02    0.06       0.0  T
   2   -232.6020680  0.235364E-02  0.807E-02    0.05       1.0  T
   3   -232.6039328 -0.186475E-02  0.386E-02    0.06       1.0  T
   4   -232.6043231 -0.390358E-03  0.207E-02    0.06       1.0  T
   5   -232.6044237 -0.100573E-03  0.365E-03    0.06       2.4  T
   6   -232.6044273 -0.363943E-05  0.176E-03    0.06       4.9  T
   7   -232.6044281 -0.761442E-06  0.790E-04    0.06      11.0  T
   8   -232.6044283 -0.167747E-06  0.343E-04    0.06      25.3  T
     SCC iter.                  ...        0 min,  0.367 sec
     gradient                   ...        0 min,  0.141 sec
 * total energy  :  -228.2994337 Eh     change       -0.2319013E-04 Eh
   gradient norm :     0.0027020 Eh/α   predicted    -0.1332851E-04 ( -42.53%)
   displ. norm   :     0.1970754 α      lambda       -0.8403461E-04
   maximum displ.:     0.1022320 α      in ANC's #13, #5, #7, ...

........................................................................
.............................. CYCLE   25 ..............................
........................................................................

 iter      E             dE          RMSdq      gap      omega  full diag
   1   -232.6070782 -0.232607E+03  0.867E-02    0.06       0.0  T
   2   -232.5952100  0.118681E-01  0.187E-01    0.06       1.0  T
   3   -232.5853912  0.981880E-02  0.246E-01    0.08       1.0  T
   4   -232.6050159 -0.196246E-01  0.918E-02    0.07       1.0  T
   5   -232.6067108 -0.169498E-02  0.333E-02    0.06       1.0  T
   6   -232.6070050 -0.294154E-03  0.184E-02    0.06       1.0  T
   7   -232.6070620 -0.570417E-04  0.128E-02    0.06       1.0  T
   8   -232.6071019 -0.398337E-04  0.738E-03    0.06       1.2  T
   9   -232.6071093 -0.740793E-05  0.508E-03    0.06       1.7  T
  10   -232.6071184 -0.916062E-05  0.847E-04    0.06      10.3  T
  11   -232.6071186 -0.181603E-06  0.326E-04    0.06      26.7  T
  12   -232.6071186 -0.179079E-07  0.221E-04    0.06      39.4  T
     SCC iter.                  ...        0 min,  0.541 sec
     gradient                   ...        0 min,  0.142 sec
 * total energy  :  -228.2994865 Eh     change       -0.5286501E-04 Eh
   gradient norm :     0.0019606 Eh/α   predicted    -0.4364978E-04 ( -17.43%)
   displ. norm   :     0.2984397 α      lambda        0.2802236E-04
   maximum displ.:     0.1548251 α      in ANC's #13, #5, #7, ...

........................................................................
.............................. CYCLE   26 ..............................
........................................................................

 iter      E             dE          RMSdq      gap      omega  full diag
   1   -232.6102114 -0.232610E+03  0.132E-01    0.06       0.0  T
   2   -232.5859396  0.242718E-01  0.269E-01    0.06       1.0  T
   3   -232.5651606  0.207791E-01  0.354E-01    0.11       1.0  T
   4   -232.6047331 -0.395725E-01  0.149E-01    0.08       1.0  T
   5   -232.6083391 -0.360606E-02  0.732E-02    0.06       1.0  T
   6   -232.6097320 -0.139282E-02  0.412E-02    0.06       1.0  T
   7   -232.6099840 -0.252043E-03  0.305E-02    0.06       1.0  T
   8   -232.6101726 -0.188574E-03  0.201E-02    0.06       1.0  T
   9   -232.6102514 -0.788418E-04  0.122E-02    0.06       1.0  T
  10   -232.6103020 -0.505724E-04  0.168E-03    0.06       5.2  T
  11   -232.6103025 -0.475338E-06  0.848E-04    0.06      10.3  T
  12   -232.6103026 -0.142183E-06  0.538E-04    0.06      16.2  T
     SCC iter.                  ...        0 min,  0.546 sec
     gradient                   ...        0 min,  0.145 sec
 * total energy  :  -228.2994240 Eh     change        0.6249739E-04 Eh
   gradient norm :     0.0082687 Eh/α   predicted     0.1456333E-04 ( -76.70%)
   displ. norm   :     0.1060106 α      lambda       -0.1124468E-03
   maximum displ.:     0.0541912 α      in ANC's #13, #5, #16, ...

........................................................................
.............................. CYCLE   27 ..............................
........................................................................

 iter      E             dE          RMSdq      gap      omega  full diag
   1   -232.6089439 -0.232609E+03  0.514E-02    0.06       0.0  T
   2   -232.6075069  0.143699E-02  0.701E-02    0.06       1.0  T
   3   -232.5834386  0.240683E-01  0.263E-01    0.07       1.0  T
   4   -232.6083498 -0.249112E-01  0.503E-02    0.05       1.0  T
   5   -232.6089457 -0.595938E-03  0.564E-03    0.06       1.5  T
   6   -232.6089525 -0.674967E-05  0.152E-03    0.06       5.7  T
   7   -232.6089517  0.774211E-06  0.186E-03    0.06       4.7  T
   8   -232.6089527 -0.100383E-05  0.113E-03    0.06       7.7  T
   9   -232.6089529 -0.222116E-06  0.631E-04    0.06      13.8  T
  10   -232.6089530 -0.375283E-07  0.578E-04    0.06      15.1  T
     SCC iter.                  ...        0 min,  0.454 sec
     gradient                   ...        0 min,  0.141 sec
 * total energy  :  -228.2995026 Eh     change       -0.7852787E-04 Eh
   gradient norm :     0.0041132 Eh/α   predicted    -0.5685529E-04 ( -27.60%)
   displ. norm   :     0.0399518 α      lambda       -0.5042900E-04
   maximum displ.:     0.0137749 α      in ANC's #16, #27, #23, ...

........................................................................
.............................. CYCLE   28 ..............................
........................................................................

 iter      E             dE          RMSdq      gap      omega  full diag
   1   -232.6076470 -0.232608E+03  0.213E-02    0.06       0.0  T
   2   -232.6075879  0.591065E-04  0.185E-02    0.06       1.0  T
   3   -232.5977699  0.981795E-02  0.163E-01    0.06       1.0  T
   4   -232.6074420 -0.967205E-02  0.273E-02    0.06       1.0  T
   5   -232.6076459 -0.203902E-03  0.329E-03    0.06       2.6  T
   6   -232.6076479 -0.206500E-05  0.142E-03    0.06       6.1  T
   7   -232.6076483 -0.375808E-06  0.973E-04    0.06       8.9  T
   8   -232.6076485 -0.244789E-06  0.356E-04    0.06      24.4  T
     SCC iter.                  ...        0 min,  0.373 sec
     gradient                   ...        0 min,  0.143 sec
 * total energy  :  -228.2995360 Eh     change       -0.3341216E-04 Eh
   gradient norm :     0.0010334 Eh/α   predicted    -0.2525520E-04 ( -24.41%)
   displ. norm   :     0.1104343 α      lambda       -0.2601940E-04
   maximum displ.:     0.0582631 α      in ANC's #5, #7, #13, ...

........................................................................
.............................. CYCLE   29 ..............................
........................................................................

 iter      E             dE          RMSdq      gap      omega  full diag
   1   -232.6069189 -0.232607E+03  0.401E-02    0.06       0.0  T
   2   -232.6068361  0.827837E-04  0.298E-02    0.06       1.0  T
   3   -232.5713631  0.354730E-01  0.310E-01    0.08       1.0  T
   4   -232.6059628 -0.345997E-01  0.546E-02    0.06       1.0  T
   5   -232.6069181 -0.955307E-03  0.396E-03    0.06       2.2  T
   6   -232.6069208 -0.271659E-05  0.182E-03    0.06       4.8  T
   7   -232.6069208 -0.102150E-08  0.161E-03    0.06       5.4  T
   8   -232.6069216 -0.757941E-06  0.509E-04    0.06      17.1  T
   9   -232.6069215  0.589723E-07  0.649E-04    0.06      13.4  T
     SCC iter.                  ...        0 min,  0.412 sec
     gradient                   ...        0 min,  0.140 sec
 * total energy  :  -228.2995643 Eh     change       -0.2834492E-04 Eh
   gradient norm :     0.0013904 Eh/α   predicted    -0.1308602E-04 ( -53.83%)
   displ. norm   :     0.2508409 α      lambda       -0.3768453E-04
   maximum displ.:     0.1321778 α      in ANC's #5, #13, #7, ...

........................................................................
.............................. CYCLE   30 ..............................
........................................................................

 iter      E             dE          RMSdq      gap      omega  full diag
   1   -232.6065126 -0.232607E+03  0.967E-02    0.06       0.0  T
   2   -232.6058641  0.648457E-03  0.747E-02    0.06       1.0  T
   3   -232.4846686  0.121196E+00  0.576E-01    0.15       1.0  T
   4   -232.6023837 -0.117715E+00  0.118E-01    0.07       1.0  T
   5   -232.6064068 -0.402310E-02  0.195E-02    0.06       1.0  T
   6   -232.6065201 -0.113332E-03  0.555E-03    0.06       1.6  T
   7   -232.6064946  0.255734E-04  0.981E-03    0.06       1.0  T
   8   -232.6065225 -0.279831E-04  0.441E-03    0.06       2.0  T
   9   -232.6065266 -0.408055E-05  0.280E-03    0.06       3.1  T
  10   -232.6065286 -0.193867E-05  0.894E-04    0.06       9.7  T
  11   -232.6065288 -0.188846E-06  0.254E-04    0.06      34.2  T
  12   -232.6065288 -0.128138E-07  0.126E-04    0.06      69.1  T
     SCC iter.                  ...        0 min,  0.550 sec
     gradient                   ...        0 min,  0.155 sec
 * total energy  :  -228.2996102 Eh     change       -0.4589363E-04 Eh
   gradient norm :     0.0015677 Eh/α   predicted    -0.1936945E-04 ( -57.79%)
   displ. norm   :     0.3421487 α      lambda       -0.3849028E-04
   maximum displ.:     0.1826694 α      in ANC's #5, #13, #7, ...

........................................................................
.............................. CYCLE   31 ..............................
........................................................................

 iter      E             dE          RMSdq      gap      omega  full diag
   1   -232.6067438 -0.232607E+03  0.127E-01    0.06       0.0  T
   2   -232.6065756  0.168185E-03  0.834E-02    0.05       1.0  T
   3   -232.5601141  0.464614E-01  0.368E-01    0.09       1.0  T
   4   -232.5572968  0.281738E-02  0.363E-01    0.12       1.0  T
   5   -232.6065865 -0.492897E-01  0.246E-02    0.06       1.0  T
   6   -232.6066862 -0.997141E-04  0.152E-02    0.06       1.0  T
   7   -232.6067586 -0.724640E-04  0.699E-03    0.06       1.2  T
   8   -232.6067722 -0.135333E-04  0.199E-03    0.06       4.4  T
   9   -232.6067712  0.991372E-06  0.246E-03    0.06       3.5  T
  10   -232.6067728 -0.163542E-05  0.963E-04    0.06       9.0  T
  11   -232.6067731 -0.243211E-06  0.326E-04    0.06      26.7  T
  12   -232.6067731 -0.266056E-07  0.114E-04    0.06      76.3  T
     SCC iter.                  ...        0 min,  0.578 sec
     gradient                   ...        0 min,  0.145 sec
 * total energy  :  -228.2996422 Eh     change       -0.3195904E-04 Eh
   gradient norm :     0.0012471 Eh/α   predicted    -0.2024700E-04 ( -36.65%)
   displ. norm   :     0.0899491 α      lambda       -0.1385804E-04
   maximum displ.:     0.0527784 α      in ANC's #5, #1, #7, ...

........................................................................
.............................. CYCLE   32 ..............................
........................................................................

 iter      E             dE          RMSdq      gap      omega  full diag
   1   -232.6079659 -0.232608E+03  0.291E-02    0.06       0.0  T
   2   -232.6039993  0.396655E-02  0.105E-01    0.06       1.0  T
   3   -232.6068933 -0.289392E-02  0.562E-02    0.05       1.0  T
   4   -232.6079124 -0.101918E-02  0.135E-02    0.06       1.0  T
   5   -232.6079748 -0.623822E-04  0.284E-03    0.06       3.1  T
   6   -232.6079765 -0.172780E-05  0.152E-03    0.06       5.7  T
   7   -232.6079769 -0.357290E-06  0.885E-04    0.06       9.8  T
   8   -232.6079771 -0.192949E-06  0.514E-04    0.06      16.9  T
     SCC iter.                  ...        0 min,  0.362 sec
     gradient                   ...        0 min,  0.135 sec
 * total energy  :  -228.2996555 Eh     change       -0.1332460E-04 Eh
   gradient norm :     0.0011064 Eh/α   predicted    -0.6957021E-05 ( -47.79%)
   displ. norm   :     0.1256957 α      lambda       -0.1825505E-04
   maximum displ.:     0.0717704 α      in ANC's #5, #1, #6, ...

........................................................................
.............................. CYCLE   33 ..............................
........................................................................

 iter      E             dE          RMSdq      gap      omega  full diag
   1   -232.6093132 -0.232609E+03  0.322E-02    0.06       0.0  T
   2   -232.6088024  0.510748E-03  0.423E-02    0.06       1.0  T
   3   -232.5980943  0.107082E-01  0.174E-01    0.06       1.0  T
   4   -232.6092968 -0.112025E-01  0.734E-03    0.06       1.2  T
   5   -232.6093127 -0.159168E-04  0.238E-03    0.06       3.7  T
   6   -232.6093143 -0.160726E-05  0.135E-03    0.06       6.4  T
   7   -232.6093148 -0.448354E-06  0.630E-04    0.06      13.8  T
   8   -232.6093147  0.701628E-07  0.712E-04    0.06      12.2  T
     SCC iter.                  ...        0 min,  0.366 sec
     gradient                   ...        0 min,  0.143 sec
 * total energy  :  -228.2996741 Eh     change       -0.1860286E-04 Eh
   gradient norm :     0.0014855 Eh/α   predicted    -0.9193202E-05 ( -50.58%)
   displ. norm   :     0.2158679 α      lambda       -0.2267996E-04
   maximum displ.:     0.1244659 α      in ANC's #5, #1, #6, ...

........................................................................
.............................. CYCLE   34 ..............................
........................................................................

 iter      E             dE          RMSdq      gap      omega  full diag
   1   -232.6089323 -0.232609E+03  0.579E-02    0.06       0.0  T
   2   -232.6055371  0.339524E-02  0.100E-01    0.06       1.0  T
   3   -232.5873929  0.181441E-01  0.242E-01    0.08       1.0  T
   4   -232.6086028 -0.212098E-01  0.362E-02    0.06       1.0  T
   5   -232.6088828 -0.280005E-03  0.130E-02    0.06       1.0  T
   6   -232.6089178 -0.350510E-04  0.856E-03    0.06       1.0  T
   7   -232.6089345 -0.166412E-04  0.485E-03    0.06       1.8  T
   8   -232.6089417 -0.727640E-05  0.189E-03    0.06       4.6  T
   9   -232.6089415  0.217044E-06  0.171E-03    0.06       5.1  T
  10   -232.6089423 -0.815792E-06  0.618E-04    0.06      14.1  T
  11   -232.6089425 -0.127602E-06  0.129E-04    0.06      67.4  T
     SCC iter.                  ...        0 min,  0.499 sec
     gradient                   ...        0 min,  0.141 sec
 * total energy  :  -228.2996961 Eh     change       -0.2205013E-04 Eh
   gradient norm :     0.0015967 Eh/α   predicted    -0.1157669E-04 ( -47.50%)
   displ. norm   :     0.1632801 α      lambda       -0.1491807E-04
   maximum displ.:     0.0942650 α      in ANC's #5, #1, #6, ...

........................................................................
.............................. CYCLE   35 ..............................
........................................................................

 iter      E             dE          RMSdq      gap      omega  full diag
   1   -232.6083741 -0.232608E+03  0.420E-02    0.06       0.0  T
   2   -232.6078975  0.476547E-03  0.448E-02    0.06       1.0  T
   3   -232.5805882  0.273093E-01  0.272E-01    0.07       1.0  T
   4   -232.6083184 -0.277302E-01  0.156E-02    0.06       1.0  T
   5   -232.6083721 -0.536881E-04  0.347E-03    0.06       2.5  T
   6   -232.6083750 -0.288289E-05  0.193E-03    0.06       4.5  T
   7   -232.6083757 -0.703920E-06  0.991E-04    0.06       8.8  T
   8   -232.6083751  0.608974E-06  0.154E-03    0.06       5.6  T
   9   -232.6083758 -0.751026E-06  0.550E-04    0.06      15.8  T
     SCC iter.                  ...        0 min,  0.401 sec
     gradient                   ...        0 min,  0.123 sec
 * total energy  :  -228.2997113 Eh     change       -0.1516678E-04 Eh
   gradient norm :     0.0014162 Eh/α   predicted    -0.7551177E-05 ( -50.21%)
   displ. norm   :     0.1404744 α      lambda       -0.1292600E-04
   maximum displ.:     0.0797725 α      in ANC's #5, #6, #1, ...

........................................................................
.............................. CYCLE   36 ..............................
........................................................................

 iter      E             dE          RMSdq      gap      omega  full diag
   1   -232.6082603 -0.232608E+03  0.379E-02    0.06       0.0  T
   2   -232.6031770  0.508329E-02  0.120E-01    0.07       1.0  T
   3   -232.6073538 -0.417679E-02  0.533E-02    0.06       1.0  T
   4   -232.6081851 -0.831260E-03  0.180E-02    0.05       1.0  T
   5   -232.6082710 -0.859127E-04  0.370E-03    0.06       2.4  T
   6   -232.6082744 -0.338818E-05  0.170E-03    0.06       5.1  T
   7   -232.6082749 -0.459346E-06  0.121E-03    0.06       7.2  T
   8   -232.6082752 -0.356358E-06  0.442E-04    0.06      19.7  T
   9   -232.6082748  0.445939E-06  0.106E-03    0.06       8.2  T
  10   -232.6082752 -0.470422E-06  0.185E-04    0.06      47.1  T
     SCC iter.                  ...        0 min,  0.447 sec
     gradient                   ...        0 min,  0.147 sec
 * total energy  :  -228.2997252 Eh     change       -0.1389484E-04 Eh
   gradient norm :     0.0009053 Eh/α   predicted    -0.6521329E-05 ( -53.07%)
   displ. norm   :     0.1472001 α      lambda       -0.1310767E-04
   maximum displ.:     0.0814459 α      in ANC's #5, #1, #6, ...

........................................................................
.............................. CYCLE   37 ..............................
........................................................................

 iter      E             dE          RMSdq      gap      omega  full diag
   1   -232.6080357 -0.232608E+03  0.381E-02    0.06       0.0  T
   2   -232.6021038  0.593195E-02  0.129E-01    0.07       1.0  T
   3   -232.6073272 -0.522343E-02  0.484E-02    0.06       1.0  T
   4   -232.6078880 -0.560785E-03  0.253E-02    0.05       1.0  T
   5   -232.6080499 -0.161879E-03  0.370E-03    0.06       2.4  T
   6   -232.6080526 -0.267487E-05  0.183E-03    0.06       4.8  T
   7   -232.6080530 -0.453464E-06  0.143E-03    0.06       6.1  T
   8   -232.6080535 -0.533131E-06  0.442E-04    0.06      19.7  T
   9   -232.6080533  0.268502E-06  0.867E-04    0.06      10.0  T
     SCC iter.                  ...        0 min,  0.406 sec
     gradient                   ...        0 min,  0.136 sec
 * total energy  :  -228.2997388 Eh     change       -0.1360566E-04 Eh
   gradient norm :     0.0010243 Eh/α   predicted    -0.6620107E-05 ( -51.34%)
   displ. norm   :     0.1584558 α      lambda       -0.1288720E-04
   maximum displ.:     0.0858496 α      in ANC's #5, #1, #6, ...

........................................................................
.............................. CYCLE   38 ..............................
........................................................................

 iter      E             dE          RMSdq      gap      omega  full diag
   1   -232.6077367 -0.232608E+03  0.403E-02    0.06       0.0  T
   2   -232.5997727  0.796399E-02  0.148E-01    0.07       1.0  T
   3   -232.6070610 -0.728825E-02  0.485E-02    0.06       1.0  T
   4   -232.6074642 -0.403181E-03  0.354E-02    0.05       1.0  T
   5   -232.6077586 -0.294406E-03  0.395E-03    0.06       2.2  T
   6   -232.6077608 -0.223168E-05  0.209E-03    0.06       4.2  T
   7   -232.6077611 -0.314436E-06  0.183E-03    0.06       4.8  T
   8   -232.6077620 -0.912518E-06  0.562E-04    0.06      15.5  T
   9   -232.6077619  0.107733E-06  0.724E-04    0.06      12.0  T
     SCC iter.                  ...        0 min,  0.413 sec
     gradient                   ...        0 min,  0.139 sec
 * total energy  :  -228.2997517 Eh     change       -0.1292780E-04 Eh
   gradient norm :     0.0012781 Eh/α   predicted    -0.6518522E-05 ( -49.58%)
   displ. norm   :     0.1467903 α      lambda       -0.1126331E-04
   maximum displ.:     0.0793259 α      in ANC's #5, #1, #6, ...

........................................................................
.............................. CYCLE   39 ..............................
........................................................................

 iter      E             dE          RMSdq      gap      omega  full diag
   1   -232.6080023 -0.232608E+03  0.341E-02    0.06       0.0  T
   2   -232.6061933  0.180901E-02  0.731E-02    0.06       1.0  T
   3   -232.6050539  0.113936E-02  0.899E-02    0.06       1.0  T
   4   -232.6077981 -0.274415E-02  0.294E-02    0.06       1.0  T
   5   -232.6080050 -0.206984E-03  0.371E-03    0.06       2.3  T
   6   -232.6080079 -0.280911E-05  0.183E-03    0.06       4.8  T
   7   -232.6080081 -0.289237E-06  0.140E-03    0.06       6.2  T
   8   -232.6080087 -0.593777E-06  0.601E-04    0.06      14.5  T
   9   -232.6080088 -0.337733E-07  0.463E-04    0.06      18.8  T
     SCC iter.                  ...        0 min,  0.394 sec
     gradient                   ...        0 min,  0.127 sec
 * total energy  :  -228.2997627 Eh     change       -0.1092345E-04 Eh
   gradient norm :     0.0011015 Eh/α   predicted    -0.5687006E-05 ( -47.94%)
   displ. norm   :     0.1094216 α      lambda       -0.8378288E-05
   maximum displ.:     0.0597183 α      in ANC's #5, #1, #14, ...

........................................................................
.............................. CYCLE   40 ..............................
........................................................................

 iter      E             dE          RMSdq      gap      omega  full diag
   1   -232.6083967 -0.232608E+03  0.226E-02    0.06       0.0  T
   2   -232.6066219  0.177481E-02  0.695E-02    0.05       1.0  T
   3   -232.6065806  0.413265E-04  0.711E-02    0.06       1.0  T
   4   -232.6083141 -0.173355E-02  0.172E-02    0.06       1.0  T
   5   -232.6083910 -0.768682E-04  0.538E-03    0.06       1.6  T
   6   -232.6083992 -0.823230E-05  0.275E-03    0.06       3.2  T
   7   -232.6084014 -0.222454E-05  0.112E-03    0.06       7.8  T
   8   -232.6084018 -0.362914E-06  0.369E-04    0.06      23.6  T
   9   -232.6084017  0.527450E-07  0.493E-04    0.06      17.7  T
     SCC iter.                  ...        0 min,  0.403 sec
     gradient                   ...        0 min,  0.135 sec
 * total energy  :  -228.2997711 Eh     change       -0.8399291E-05 Eh
   gradient norm :     0.0007117 Eh/α   predicted    -0.4216462E-05 ( -49.80%)
   displ. norm   :     0.0763368 α      lambda       -0.5249805E-05
   maximum displ.:     0.0411227 α      in ANC's #5, #1, #12, ...

........................................................................
.............................. CYCLE   41 ..............................
........................................................................

 iter      E             dE          RMSdq      gap      omega  full diag
   1   -232.6084645 -0.232608E+03  0.214E-02    0.06       0.0  T
   2   -232.6002704  0.819411E-02  0.148E-01    0.06       1.0  T
   3   -232.6081477 -0.787730E-02  0.324E-02    0.06       1.0  T
   4   -232.6084130 -0.265254E-03  0.148E-02    0.06       1.0  T
   5   -232.6084764 -0.634555E-04  0.497E-03    0.06       1.8  T
   6   -232.6084843 -0.790972E-05  0.201E-03    0.06       4.3  T
   7   -232.6084852 -0.897308E-06  0.112E-03    0.06       7.8  T
   8   -232.6084857 -0.428340E-06  0.387E-04    0.06      22.5  T
   9   -232.6084855  0.125150E-06  0.649E-04    0.06      13.4  T
     SCC iter.                  ...        0 min,  0.410 sec
     gradient                   ...        0 min,  0.134 sec
 * total energy  :  -228.2997761 Eh     change       -0.5066255E-05 Eh
   gradient norm :     0.0006073 Eh/α   predicted    -0.2632653E-05 ( -48.04%)
   displ. norm   :     0.0557968 α      lambda       -0.3181498E-05
   maximum displ.:     0.0295502 α      in ANC's #5, #1, #12, ...

........................................................................
.............................. CYCLE   42 ..............................
........................................................................

 iter      E             dE          RMSdq      gap      omega  full diag
   1   -232.6085515 -0.232609E+03  0.179E-02    0.06       0.0  T
   2   -232.6046308  0.392073E-02  0.102E-01    0.06       1.0  T
   3   -232.6083005 -0.366976E-02  0.284E-02    0.06       1.0  T
   4   -232.6084993 -0.198803E-03  0.158E-02    0.06       1.0  T
   5   -232.6085566 -0.573191E-04  0.381E-03    0.06       2.3  T
   6   -232.6085611 -0.447997E-05  0.161E-03    0.06       5.4  T
   7   -232.6085618 -0.651053E-06  0.619E-04    0.06      14.1  T
   8   -232.6085618 -0.391258E-07  0.404E-04    0.06      21.5  T
     SCC iter.                  ...        0 min,  0.371 sec
     gradient                   ...        0 min,  0.137 sec
 * total energy  :  -228.2997794 Eh     change       -0.3251258E-05 Eh
   gradient norm :     0.0005617 Eh/α   predicted    -0.1596049E-05 ( -50.91%)
   displ. norm   :     0.0544882 α      lambda        0.4711260E-06
   maximum displ.:     0.0288366 α      in ANC's #5, #1, #12, ...

   *** GEOMETRY OPTIMIZATION CONVERGED AFTER 42 ITERATIONS ***

------------------------------------------------------------------------
 total energy gain   :        -0.0211042 Eh      -13.2431 kcal/mol
 total RMSD          :         0.4386971 a0        0.2321 Å
 total power (kW/mol):        -1.3192638 (step)   -1.9397 (real)
------------------------------------------------------------------------

 ANCopt (total)                0 d,  0 h,  0 min, 28.566 sec
 optimizer setup                ...        0 min,  0.001 sec (  0.004%)
 model hessian                  ...        0 min,  0.169 sec (  0.592%)
 ANC generation                 ...        0 min,  0.050 sec (  0.175%)
 coordinate transformation      ...        0 min,  0.009 sec (  0.032%)
 single point calculation       ...        0 min, 28.254 sec ( 98.908%)
 optimization log               ...        0 min,  0.049 sec (  0.172%)
 hessian update                 ...        0 min,  0.005 sec (  0.018%)
 rational function              ...        0 min,  0.016 sec (  0.056%)

================
 final structure:
================
132
 xtb: 6.7.1pre (5071a88)
C           -3.06389601772788        7.24077199329853        0.55377892077821
C            1.18905570188157        7.41564962716856       -0.13851990956309
C           -0.94768082721175        6.13345460731787        0.18821829723002
C            3.38806540551816        6.38924968250462       -0.34826401702380
C            1.17510054575366        4.98010620403362       -0.07296094198818
C           -1.72162661255819        7.30194371618014        0.37824739301374
C           -3.76244972392214        6.00936683316957        0.52751904037932
C            2.53711728495619        7.53185730746006       -0.29305974054997
C            0.46016179997398        6.18102598704635       -0.00328303544444
C           -1.60581921118612        4.87563281426177        0.19801012139286
C            7.62672928208531        6.49102559807404       -0.47151783040578
C            5.51988060609605        5.17071751301512       -0.41109559807411
C            3.48173608361745        3.77014196720539       -0.19825183414669
C            5.61686387573597        2.63645150364982       -0.24409577531935
C            7.72017491458415        1.42054307182656       -0.23417985046180
C            7.04067334297968        7.70280280391260       -0.59837169843132
C            4.76759510042517        6.41236844156247       -0.51614732212587
C            0.54989878412783        3.72151074744557        0.00038343955558
C            6.91610003592247        5.24091960300466       -0.39308356240815
C            4.87829749091256        3.85763466008610       -0.28086746236314
C            2.77096095075704        2.54985483185328       -0.10866512132863
C            7.03644029213866        2.62890329122477       -0.26521075719778
C            4.92150903148084        1.40282969420371       -0.16288448534491
C            7.08384636642818        0.17818270975497       -0.17978296119508
C           -7.47447831629300        7.16750093489011        0.91817898538400
C           -5.16656921765738        5.99351606345407        0.66609502122234
C           -7.27718626059266        4.80062251557118        0.29528147331108
C           -3.01918483540455        4.81741963535939        0.31803009194622
C           -5.12183935553373        3.56595647238817        0.19879930982690
C           -7.20147425827726        2.24073662152923       -0.14291240033082
C           -0.86180532703476        3.66494365644224        0.09447154499144
C           -2.94911889203040        2.36639319830928        0.12787895174329
C           -5.03158199340122        1.11896883687596       -0.02092078434690
C           -7.09873267218952       -0.18473130738252       -0.32356584707336
C           -8.02746742331078        5.97912293996278        0.54783303715691
C           -5.85859800935897        4.78905749329505        0.39646713080635
C           -3.70710273470202        3.57879943398585        0.22279965844910
C           -5.78435932316076        2.31547244365759        0.01557807390947
C           -7.82364338967431        1.01707362425242       -0.32669182976101
C            1.33949013729236        2.52504002633366       -0.03042765573404
C           -7.06251367343716       -2.68666488615322       -0.52728301592372
C            1.63721859427880       -7.24757110580470        0.74427242132047
C           -0.75114235506465        1.22959204042232        0.06553162061505
C            7.93687589153085       -3.51489261948639       -0.01296020176612
C           -2.81920358016688       -0.08091614964298        0.04459262718025
C            5.79565557158755       -4.81329724124851        0.16991376716978
C            3.72360051163901       -6.03863587055787        0.41786643177181
C            3.50271160309647        1.33861154250207       -0.10083524254595
[...]
    46   6 C    3.952 --    79 C    1.329    70 C    1.308    77 C    1.113
    47   6 C    3.971 --    79 C    1.292    72 C    1.251    81 C    1.222
    48   6 C    3.970 --    82 C    1.250    23 C    1.248    21 C    1.244
    49   6 C    3.927 --    80 C    1.414    88 C    1.153    83 C    1.148
    50   6 C    3.957 --    84 C    1.271    82 C    1.251    75 C    1.217
    51   6 C    3.943 --    85 C    1.412    83 C    1.293   127 B    1.054
    52   6 C    3.961 --    76 C    1.248    86 C    1.245    84 C    1.243
    53   6 C    3.971 --    87 C    1.700    77 C    1.171   110 H    0.964
    54   6 C    3.941 --    78 C    1.298    86 C    1.271    88 C    1.172
    55   6 C    3.962 --    89 C    1.313    23 C    1.236    24 C    1.194
    56   6 C    3.937 --    88 C    1.403    94 C    1.186    90 C    1.127
    57   6 C    3.956 --    89 C    1.298    82 C    1.238    91 C    1.208
    58   6 C    3.963 --    92 C    1.361    83 C    1.312    90 C    1.097
    59   6 C    3.967 --    91 C    1.321    84 C    1.218    93 C    1.209
    60   6 C    3.968 --    92 C    1.457    85 C    1.412   112 H    0.970
    61   6 C    3.960 --    93 C    1.267    94 C    1.248    86 C    1.222
    62   6 C    3.895 --    68 C    1.490    24 C    1.237   113 H    0.963
    63   6 C    3.883 --    94 C    1.314    74 C    1.304   123 B    1.051
    64   6 C    3.834 --    90 C    1.593   123 B    1.098   114 H    0.963
    65   6 C    3.975 --    70 C    1.307    72 C    1.258    91 C    1.185
    66   6 C    3.968 --    93 C    1.263    72 C    1.240    74 C    1.240
    67   6 C    3.947 --    31 C    1.264    43 C    1.249    32 C    1.221
    68   6 C    3.906 --    62 C    1.490    44 C    1.240   125 B    1.039
    69   6 C    3.946 --    32 C    1.326    33 C    1.206    45 C    1.187
    70   6 C    3.913 --    46 C    1.308    65 C    1.307   125 B    1.079
    71   6 C    3.917 --    34 C    1.318    33 C    1.280   126 B    1.064
    72   6 C    3.977 --    65 C    1.258    47 C    1.251    66 C    1.240
    73   6 C    3.907 --    41 C    1.534    34 C    1.192   116 H    0.967
    74   6 C    3.962 --    63 C    1.304    66 C    1.240    42 C    1.222
    75   6 C    3.964 --    40 C    1.295    43 C    1.235    50 C    1.217
    76   6 C    3.958 --    43 C    1.251    52 C    1.248    45 C    1.244
    77   6 C    3.932 --    44 C    1.505    53 C    1.171    46 C    1.113
    78   6 C    3.880 --    45 C    1.312    54 C    1.298   126 B    1.063
    79   6 C    3.884 --    46 C    1.329    47 C    1.292   124 B    1.057
    80   6 C    3.876 --    49 C    1.414    41 C    1.187   126 B    1.069
    81   6 C    3.964 --    42 C    1.623    47 C    1.222   117 H    0.961
    82   6 C    3.956 --    50 C    1.251    48 C    1.250    57 C    1.238
    83   6 C    3.978 --    58 C    1.312    51 C    1.293    49 C    1.148
    84   6 C    3.937 --    50 C    1.271    52 C    1.243    59 C    1.218
    85   6 C    3.972 --    60 C    1.412    51 C    1.412   118 H    0.970
    86   6 C    3.954 --    54 C    1.271    52 C    1.245    61 C    1.222
    87   6 C    3.888 --    53 C    1.700   124 B    1.102   119 H    0.973
    88   6 C    3.965 --    56 C    1.403    54 C    1.172    49 C    1.153
    89   6 C    3.863 --    55 C    1.313    57 C    1.298   125 B    1.057
    90   6 C    3.972 --    64 C    1.593    56 C    1.127    58 C    1.097
    91   6 C    3.924 --    59 C    1.321    57 C    1.208    65 C    1.185
    92   6 C    3.979 --    60 C    1.457    58 C    1.361   120 H    0.963
    93   6 C    3.975 --    61 C    1.267    66 C    1.263    59 C    1.209
    94   6 C    3.960 --    63 C    1.314    61 C    1.248    56 C    1.186
    95   1 H    0.996 --     1 C    0.961
    96   1 H    0.997 --     2 C    0.960
    97   1 H    0.988 --   131 B    0.960
    98   1 H    0.979 --   132 B    0.953
    99   1 H    0.997 --     6 C    0.959
   100   1 H    0.997 --     8 C    0.961
   101   1 H    0.998 --    11 C    0.966
   102   1 H    0.997 --    15 C    0.966
   103   1 H    0.998 --    16 C    0.971
   104   1 H    0.998 --    25 C    0.972
   105   1 H    0.998 --    35 C    0.966
   106   1 H    0.988 --   128 B    0.969
   107   1 H    0.997 --    39 C    0.966
   108   1 H    0.997 --    42 C    0.962
   109   1 H    0.998 --    44 C    0.962
   110   1 H    0.999 --    53 C    0.964
   111   1 H    0.987 --   124 B    0.963
   112   1 H    0.998 --    60 C    0.970
   113   1 H    0.998 --    62 C    0.963
   114   1 H    0.998 --    64 C    0.963
   115   1 H    0.986 --   123 B    0.963
   116   1 H    0.998 --    73 C    0.967
   117   1 H    0.997 --    81 C    0.961
   118   1 H    0.998 --    85 C    0.970
   119   1 H    0.999 --    87 C    0.973
   120   1 H    0.998 --    92 C    0.963
   121   1 H    0.988 --   130 B    0.970
   122   1 H    0.988 --   127 B    0.970
   123   5 B    3.304 --    64 C    1.098    63 C    1.051   115 H    0.963
   124   5 B    3.336 --    87 C    1.102    79 C    1.057   111 H    0.963
   125   5 B    3.399 --    70 C    1.079    89 C    1.057    68 C    1.039
   126   5 B    3.440 --    80 C    1.069    71 C    1.064    78 C    1.063
   127   5 B    3.332 --    41 C    1.067    51 C    1.054   122 H    0.970
   128   5 B    3.295 --    27 C    1.081    30 C    1.050   106 H    0.969
   129   5 B    3.435 --    13 C    1.070     5 C    1.061     4 C    1.022
   130   5 B    3.297 --    22 C    1.065    19 C    1.059   121 H    0.970
   131   5 B    3.319 --    16 C    1.096    17 C    1.027    97 H    0.960
   132   5 B    3.273 --    25 C    1.108    26 C    1.047    98 H    0.953
 ---------------------------------------------------------------------------

Topologies differ in total number of bonds
Writing topology from bond orders to xtbtopo.mol

molecular dipole:
                 x           y           z       tot (Debye)
 q only:       -0.177       0.228      -0.153
   full:        0.010       0.263      -0.231       0.890
molecular quadrupole (traceless):
                xx          xy          yy          xz          yz          zz
 q only:       -4.684      20.101       1.612       2.676       1.384       3.072
  q+dip:       25.497      22.331      16.177       5.551       3.540     -41.674
   full:        0.879      22.297      -6.878       2.574       4.089       5.999

           -------------------------------------------------
          |                Geometry Summary                 |
           -------------------------------------------------

      molecular mass/u    :     1265.3417961
   center of mass at/Å    :       -0.0022504       0.0044110       0.0017094
  moments of inertia/u·Å² :        0.2790162E+05   0.3110076E+05   0.5854427E+05
rotational constants/cm⁻¹ :        0.6041811E-03   0.5420328E-03   0.2879467E-03

 * 153 selected distances

     #   Z          #   Z                                           value/Å
     1   6 C        6   6 C                                       1.3550796
     3   6 C        6   6 C                                       1.4143798
     1   6 C        7   6 C                                       1.4159894
     2   6 C        8   6 C                                       1.3618580
     4   6 C        8   6 C                                       1.4257324
     3   6 C        9   6 C                                       1.4216037
     5   6 C        9   6 C                                       1.3993574
     3   6 C       10   6 C                                       1.4196331
    11   6 C       16   6 C                                       1.3520199
     4   6 C       17   6 C                                       1.3898999
     5   6 C       18   6 C                                       1.4072383
    12   6 C       19   6 C                                       1.3980994
    13   6 C       20   6 C                                       1.4017362
    14   6 C       20   6 C                                       1.4276278
    13   6 C       21   6 C                                       1.4150364
    14   6 C       22   6 C                                       1.4197536
    15   6 C       22   6 C                                       1.3887371
    14   6 C       23   6 C                                       1.4184276
    15   6 C       24   6 C                                       1.3969011
     7   6 C       26   6 C                                       1.4110303
     7   6 C       28   6 C                                       1.4202348
    10   6 C       28   6 C                                       1.4196466
    10   6 C       31   6 C                                       1.4247967
    18   6 C       31   6 C                                       1.4159666
    25   6 C       35   6 C                                       1.3620557
    27   6 C       35   6 C                                       1.4197069
    26   6 C       36   6 C                                       1.4150349
    27   6 C       36   6 C                                       1.4222395
    28   6 C       37   6 C                                       1.4200283
    29   6 C       37   6 C                                       1.4149986
    32   6 C       37   6 C                                       1.4329964
    29   6 C       38   6 C                                       1.4269595
    30   6 C       38   6 C                                       1.4279075
    33   6 C       38   6 C                                       1.4140817
    30   6 C       39   6 C                                       1.3849985
    34   6 C       39   6 C                                       1.4035102
    18   6 C       40   6 C                                       1.4338572
    21   6 C       40   6 C                                       1.4338221
    21   6 C       48   6 C                                       1.4151435
    23   6 C       48   6 C                                       1.4216049
    23   6 C       55   6 C                                       1.4194933
    24   6 C       55   6 C                                       1.4342575
    24   6 C       62   6 C                                       1.4268635
    31   6 C       67   6 C                                       1.4115274
    32   6 C       67   6 C                                       1.4255391
    43   6 C       67   6 C                                       1.4192040
    44   6 C       68   6 C                                       1.4174752
    62   6 C       68   6 C                                       1.3769104
    32   6 C       69   6 C                                       1.4033470
    33   6 C       69   6 C                                       1.4315177
    46   6 C       70   6 C                                       1.4076143
    65   6 C       70   6 C                                       1.4039901
    33   6 C       71   6 C                                       1.4081125
    34   6 C       71   6 C                                       1.3993155
    47   6 C       72   6 C                                       1.4221063
    65   6 C       72   6 C                                       1.4104659
    66   6 C       72   6 C                                       1.4165804
    34   6 C       73   6 C                                       1.4333215
    41   6 C       73   6 C                                       1.3809945
    42   6 C       74   6 C                                       1.4205934
    63   6 C       74   6 C                                       1.4093759
    66   6 C       74   6 C                                       1.4159577
    40   6 C       75   6 C                                       1.4125357
    43   6 C       75   6 C                                       1.4212310
    50   6 C       75   6 C                                       1.4252000
    43   6 C       76   6 C                                       1.4149391
    45   6 C       76   6 C                                       1.4155836
    52   6 C       76   6 C                                       1.4206307
    44   6 C       77   6 C                                       1.3829202
    45   6 C       78   6 C                                       1.4032437
    54   6 C       78   6 C                                       1.4029079
    46   6 C       79   6 C                                       1.4119359
    47   6 C       79   6 C                                       1.4215640
    49   6 C       80   6 C                                       1.3928925
    42   6 C       81   6 C                                       1.3552171
    47   6 C       81   6 C                                       1.4228360
    48   6 C       82   6 C                                       1.4171450
    50   6 C       82   6 C                                       1.4136883
    57   6 C       82   6 C                                       1.4152809
    51   6 C       83   6 C                                       1.4191324
    58   6 C       83   6 C                                       1.4039381
    50   6 C       84   6 C                                       1.4145044
    52   6 C       84   6 C                                       1.4186633
    59   6 C       84   6 C                                       1.4269916
    51   6 C       85   6 C                                       1.3930529
    60   6 C       85   6 C                                       1.3850600
    52   6 C       86   6 C                                       1.4215699
    54   6 C       86   6 C                                       1.4099062
    61   6 C       86   6 C                                       1.4174521
    53   6 C       87   6 C                                       1.3513753
    56   6 C       88   6 C                                       1.3974905
    55   6 C       89   6 C                                       1.3997466
    57   6 C       89   6 C                                       1.4029154
    64   6 C       90   6 C                                       1.3652489
    57   6 C       91   6 C                                       1.4301390
    59   6 C       91   6 C                                       1.4061256
    58   6 C       92   6 C                                       1.3972803
    60   6 C       92   6 C                                       1.3786511
    59   6 C       93   6 C                                       1.4266802
    61   6 C       93   6 C                                       1.4119121
    66   6 C       93   6 C                                       1.4126203
    61   6 C       94   6 C                                       1.4200953
    63   6 C       94   6 C                                       1.4122988
     1   6 C       95   1 H                                       1.0766794
     2   6 C       96   1 H                                       1.0799203
     6   6 C       99   1 H                                       1.0777367
     8   6 C      100   1 H                                       1.0807277
    11   6 C      101   1 H                                       1.0841919
    15   6 C      102   1 H                                       1.0821331
    16   6 C      103   1 H                                       1.0832702
    25   6 C      104   1 H                                       1.0834431
    35   6 C      105   1 H                                       1.0841610
    39   6 C      107   1 H                                       1.0818267
    42   6 C      108   1 H                                       1.0774866
    44   6 C      109   1 H                                       1.0856831
    53   6 C      110   1 H                                       1.0855926
    60   6 C      112   1 H                                       1.0804309
    62   6 C      113   1 H                                       1.0855091
    64   6 C      114   1 H                                       1.0816317
    73   6 C      116   1 H                                       1.0836239
    81   6 C      117   1 H                                       1.0763642 (min)
    85   6 C      118   1 H                                       1.0804018
    87   6 C      119   1 H                                       1.0841305
    92   6 C      120   1 H                                       1.0794816
    63   6 C      123   5 B                                       1.5416885
    64   6 C      123   5 B                                       1.5184183
   115   1 H      123   5 B                                       1.1701566
    79   6 C      124   5 B                                       1.5502231 (max)
    87   6 C      124   5 B                                       1.5282601
   111   1 H      124   5 B                                       1.1716648
    68   6 C      125   5 B                                       1.5184625
    70   6 C      125   5 B                                       1.5037262
    89   6 C      125   5 B                                       1.5079764
    71   6 C      126   5 B                                       1.5048602
    78   6 C      126   5 B                                       1.5016528
    80   6 C      126   5 B                                       1.5089849
    41   6 C      127   5 B                                       1.5358383
    51   6 C      127   5 B                                       1.5441363
   122   1 H      127   5 B                                       1.1713261
    27   6 C      128   5 B                                       1.5286311
    30   6 C      128   5 B                                       1.5364164
   106   1 H      128   5 B                                       1.1715405
     4   6 C      129   5 B                                       1.5246867
     5   6 C      129   5 B                                       1.5126579
    13   6 C      129   5 B                                       1.5068280
    19   6 C      130   5 B                                       1.5407891
    22   6 C      130   5 B                                       1.5313271
   121   1 H      130   5 B                                       1.1718909
    16   6 C      131   5 B                                       1.5231565
    97   1 H      131   5 B                                       1.1707775
    25   6 C      132   5 B                                       1.5205085
    26   6 C      132   5 B                                       1.5500116
    98   1 H      132   5 B                                       1.1727877

 * 4 distinct bonds (by element types)

   Z      Z             #   av. dist./Å        max./Å        min./Å
   1 H    5 B           7     1.1714491     1.1727877     1.1701566
   1 H    6 C          21     1.0816393     1.0856831     1.0763642
   5 B    6 C          22     1.5245109     1.5502231     1.5016528
   6 C    6 C         103     1.4090961     1.4342575     1.3513753


optimized geometry written to: xtbopt.xyz


           -------------------------------------------------
          | TOTAL ENERGY             -228.299779435242 Eh   |
          | GRADIENT NORM               0.000560072541 Eh/α |
          | HOMO-LUMO GAP               0.056164033703 eV   |
           -------------------------------------------------

------------------------------------------------------------------------
 * finished run on 2025/12/08 at 00:30:33.988     
------------------------------------------------------------------------
 total:
 * wall-time:     0 d,  0 h,  0 min, 30.737 sec
 *  cpu-time:     0 d,  0 h,  2 min,  0.359 sec
 * ratio c/w:     3.916 speedup
 SCF:
 * wall-time:     0 d,  0 h,  0 min,  1.676 sec
 *  cpu-time:     0 d,  0 h,  0 min,  6.594 sec
 * ratio c/w:     3.934 speedup
 ANC optimizer:
 * wall-time:     0 d,  0 h,  0 min, 28.972 sec
 *  cpu-time:     0 d,  0 h,  1 min, 53.453 sec
 * ratio c/w:     3.916 speedup

normal termination of xtb
