      -----------------------------------------------------------      
     |                   =====================                   |     
     |                           x T B                           |     
     |                   =====================                   |     
     |                         S. Grimme                         |     
     |          Mulliken Center for Theoretical Chemistry        |     
     |                    University of Bonn                     |     
      -----------------------------------------------------------      

   * xtb version 6.7.1pre (5071a88) compiled by 'Marcel@Raven' on 2024-07-23

   xtb is free software: you can redistribute it and/or modify it under
   the terms of the GNU Lesser General Public License as published by
   the Free Software Foundation, either version 3 of the License, or
   (at your option) any later version.
   
   xtb is distributed in the hope that it will be useful,
   but WITHOUT ANY WARRANTY; without even the implied warranty of
   MERCHANTABILITY or FITNESS FOR A PARTICULAR PURPOSE.  See the
   GNU Lesser General Public License for more details.
   
   Cite this work as:
   * C. Bannwarth, E. Caldeweyher, S. Ehlert, A. Hansen, P. Pracht,
     J. Seibert, S. Spicher, S. Grimme, WIREs Comput. Mol. Sci., 2020, 11,
     e01493. DOI: 10.1002/wcms.1493
   
   for GFN2-xTB:
   * C. Bannwarth, S. Ehlert and S. Grimme., J. Chem. Theory Comput., 2019,
     15, 1652-1671. DOI: 10.1021/acs.jctc.8b01176
   for GFN1-xTB:
   * S. Grimme, C. Bannwarth, P. Shushkov, J. Chem. Theory Comput., 2017,
     13, 1989-2009. DOI: 10.1021/acs.jctc.7b00118
   for GFN0-xTB:
   * P. Pracht, E. Caldeweyher, S. Ehlert, S. Grimme, ChemRxiv, 2019, preprint.
     DOI: 10.26434/chemrxiv.8326202.v1
   for GFN-FF:
   * S. Spicher and S. Grimme, Angew. Chem. Int. Ed., 2020, 59, 15665-15673.
     DOI: 10.1002/anie.202004239
   
   for ALPB and GBSA implicit solvation:
   * S. Ehlert, M. Stahn, S. Spicher, S. Grimme, J. Chem. Theory Comput.,
     2021, 17, 4250-4261. DOI: 10.1021/acs.jctc.1c00471
   
   for ddCOSMO and CPCM-X implicit solvation:
   * M. Stahn, S. Ehlert, S. Grimme, J. Phys. Chem. A,
     2023, XX, XXXX-XXXX. DOI: 10.1021/acs.jpca.3c04382
   
   for DFT-D4:
   * E. Caldeweyher, C. Bannwarth and S. Grimme, J. Chem. Phys., 2017,
     147, 034112. DOI: 10.1063/1.4993215
   * E. Caldeweyher, S. Ehlert, A. Hansen, H. Neugebauer, S. Spicher,
     C. Bannwarth and S. Grimme, J. Chem. Phys., 2019, 150, 154122.
     DOI: 10.1063/1.5090222
   * E. Caldeweyher, J.-M. Mewes, S. Ehlert and S. Grimme, Phys. Chem. Chem. Phys.
     2020, 22, 8499-8512. DOI: 10.1039/D0CP00502A
   
   for sTDA-xTB:
   * S. Grimme and C. Bannwarth, J. Chem. Phys., 2016, 145, 054103.
     DOI: 10.1063/1.4959605
   
   in the mass-spec context:
   * V. Asgeirsson, C. Bauer and S. Grimme, Chem. Sci., 2017, 8, 4879.
     DOI: 10.1039/c7sc00601b
   * J. Koopman and S. Grimme, ACS Omega 2019, 4, 12, 15120-15133.
     DOI: 10.1021/acsomega.9b02011
   
   for metadynamics refer to:
   * S. Grimme, J. Chem. Theory Comput., 2019, 155, 2847-2862
     DOI: 10.1021/acs.jctc.9b00143
   
   for SPH calculations refer to:
   * S. Spicher and S. Grimme, J. Chem. Theory Comput., 2021, 17, 1701-1714
     DOI: 10.1021/acs.jctc.0c01306
   
   for ONIOM refer to:
   * C. Plett, A. Katbashev, S. Ehlert, S. Grimme, M. Bursch,
     Phys. Chem. Chem. Phys., 2023, 25, 17860-17868. DOI: 10.1039/D3CP02178E
   
   for DIPRO refer to:
   * J. Kohn, N. Gildemeister, S. Grimme, D. Fazzi, A. Hansen,
     J. Chem. Phys., 2023, just accepted.
   
   for PTB refer to:
   * S. Grimme, M. Mueller, A. Hansen, J. Chem. Phys., 2023, 158, 124111.
     DOI: 10.1063/5.0137838
   
   with help from (in alphabetical order)
   P. Atkinson, C. Bannwarth, F. Bohle, G. Brandenburg, E. Caldeweyher
   M. Checinski, S. Dohm, S. Ehlert, S. Ehrlich, I. Gerasimov, C. Hölzer
   A. Katbashev, J. Kohn, J. Koopman, C. Lavigne, S. Lehtola, F. März, M. Müller,
   F. Musil, H. Neugebauer, J. Pisarek, C. Plett, P. Pracht, F. Pultar,
   J. Seibert, P. Shushkov, S. Spicher, M. Stahn, M. Steiner, T. Strunk,
   J. Stückrath, T. Rose, and J. Unsleber
   
 * started run on 2025/12/08 at 00:30:34.020     
   ID    Z sym.   atoms
    1    6 C      1-94
    2    1 H      95-122
    3    5 B      123-132

           -------------------------------------------------
          |                Calculation Setup                |
           -------------------------------------------------

          program call               : xtb "C:\Users\LENOVO GAMING\Documents\GitHub\molecular-conductivity-sim\results\1.5nm-10Bdoped-7percent\xtbopt.xyz" --sp
          coordinate file            : C:\Users\LENOVO GAMING\Documents\GitHub\molecular-conductivity-sim\results\1.5nm-10Bdoped-7percent\xtbopt.xyz
          omp threads                :                    16


           -------------------------------------------------
          |                 G F N 2 - x T B                 |
           -------------------------------------------------

        Reference                      10.1021/acs.jctc.8b01176
      * Hamiltonian:
        H0-scaling (s, p, d)           1.850000    2.230000    2.230000
        zeta-weighting                 0.500000
      * Dispersion:
        s8                             2.700000
        a1                             0.520000
        a2                             5.000000
        s9                             5.000000
      * Repulsion:
        kExp                           1.500000    1.000000
        rExp                           1.000000
      * Coulomb:
        alpha                          2.000000
        third order                    shell-resolved
        anisotropic                    true
        a3                             3.000000
        a5                             4.000000
        cn-shift                       1.200000
        cn-exp                         4.000000
        max-rad                        5.000000

q/qsh data taken from xtbrestart
CAMM data taken from xtbrestart

          ...................................................
          :                      SETUP                      :
          :.................................................:
          :  # basis functions                 444          :
          :  # atomic orbitals                 444          :
          :  # shells                          236          :
          :  # electrons                       434          :
          :  max. iterations                   250          :
          :  Hamiltonian                  GFN2-xTB          :
          :  restarted?                       true          :
          :  GBSA solvation                  false          :
          :  PC potential                    false          :
          :  electronic temp.          300.0000000     K    :
          :  accuracy                    1.0000000          :
          :  -> integral cutoff          0.2500000E+02      :
          :  -> integral neglect         0.1000000E-07      :
          :  -> SCF convergence          0.1000000E-05 Eh   :
          :  -> wf. convergence          0.1000000E-03 e    :
          :  Broyden damping             0.4000000          :
          :  net charge                          0          :
          :  unpaired electrons                  0          :
          ...................................................

 iter      E             dE          RMSdq      gap      omega  full diag
   1   -232.6085619 -0.232609E+03  0.383E-05    0.06       0.0  T
   2   -232.6085618  0.299503E-07  0.289E-04    0.06      30.1  T
   3   -232.6085619 -0.122030E-07  0.217E-04    0.06      40.0  T

   *** convergence criteria satisfied after 3 iterations ***

         #    Occupation            Energy/Eh            Energy/eV
      -------------------------------------------------------------
         1        2.0000           -0.6670168             -18.1505
       ...           ...                  ...                  ...
       211        2.0000           -0.3686841             -10.0324
       212        2.0000           -0.3668996              -9.9838
       213        2.0000           -0.3647901              -9.9264
       214        2.0000           -0.3632196              -9.8837
       215        2.0000           -0.3622487              -9.8573
       216        2.0000           -0.3613880              -9.8339
       217        1.4954           -0.3516671              -9.5694 (HOMO)
       218        0.5047           -0.3496032              -9.5132 (LUMO)
       219        0.0000           -0.3391921              -9.2299
       220                         -0.3300053              -8.9799
       221                         -0.3059456              -8.3252
       222                         -0.2998017              -8.1580
       ...                                ...                  ...
       444                          0.7760843              21.1183
      -------------------------------------------------------------
                  HL-Gap            0.0020640 Eh            0.0562 eV
             Fermi-level           -0.3506351 Eh           -9.5413 eV

 SCC (total)                   0 d,  0 h,  0 min,  0.216 sec
 SCC setup                      ...        0 min,  0.001 sec (  0.463%)
 Dispersion                     ...        0 min,  0.007 sec (  3.241%)
 classical contributions        ...        0 min,  0.001 sec (  0.463%)
 integral evaluation            ...        0 min,  0.018 sec (  8.333%)
 iterations                     ...        0 min,  0.127 sec ( 58.796%)
 molecular gradient             ...        0 min,  0.059 sec ( 27.315%)
 printout                       ...        0 min,  0.003 sec (  1.389%)

         :::::::::::::::::::::::::::::::::::::::::::::::::::::
         ::                     SUMMARY                     ::
         :::::::::::::::::::::::::::::::::::::::::::::::::::::
         :: total energy            -228.299779418679 Eh    ::
         :: gradient norm              0.000560106470 Eh/a0 ::
         :: HOMO-LUMO gap              0.056162959131 eV    ::
         ::.................................................::
         :: SCC energy              -232.615625754200 Eh    ::
         :: -> isotropic ES            0.196900594549 Eh    ::
         :: -> anisotropic ES          0.027585188427 Eh    ::
         :: -> anisotropic XC          0.082929333623 Eh    ::
         :: -> dispersion             -0.278540711627 Eh    ::
         :: repulsion energy           4.315846335521 Eh    ::
         :: add. restraining           0.000000000000 Eh    ::
         :: total charge              -0.000000000000 e     ::
         :::::::::::::::::::::::::::::::::::::::::::::::::::::

           -------------------------------------------------
          |                Property Printout                |
           -------------------------------------------------

    * Orbital Energies and Occupations

         #    Occupation            Energy/Eh            Energy/eV
      -------------------------------------------------------------
         1        2.0000           -0.6670168             -18.1505
       ...           ...                  ...                  ...
       205        2.0000           -0.3799521             -10.3390
       206        2.0000           -0.3781422             -10.2898
       207        2.0000           -0.3756872             -10.2230
       208        2.0000           -0.3753312             -10.2133
       209        2.0000           -0.3736964             -10.1688
       210        2.0000           -0.3712657             -10.1027
       211        2.0000           -0.3686841             -10.0324
       212        2.0000           -0.3668996              -9.9838
       213        2.0000           -0.3647901              -9.9264
       214        2.0000           -0.3632196              -9.8837
       215        2.0000           -0.3622487              -9.8573
       216        2.0000           -0.3613880              -9.8339
       217        1.4954           -0.3516671              -9.5694 (HOMO)
       218        0.5047           -0.3496032              -9.5132 (LUMO)
       219        0.0000           -0.3391921              -9.2299
       220                         -0.3300053              -8.9799
       221                         -0.3059456              -8.3252
       222                         -0.2998017              -8.1580
       223                         -0.2892987              -7.8722
       224                         -0.2814879              -7.6597
       225                         -0.2724740              -7.4144
       226                         -0.2612005              -7.1076
       227                         -0.2603324              -7.0840
       228                         -0.2549991              -6.9389
       ...                                ...                  ...
       444                          0.7760843              21.1183
      -------------------------------------------------------------
                  HL-Gap            0.0020640 Eh            0.0562 eV
             Fermi-level           -0.3506351 Eh           -9.5413 eV

     #   Z          covCN         q      C6AA      α(0)
     1   6 C        2.919    -0.039    28.963     8.825
     2   6 C        2.909    -0.035    28.859     8.809
     3   6 C        2.981     0.008    27.845     8.656
     4   6 C        2.884    -0.050    29.247     8.866
     5   6 C        2.905    -0.076    29.890     8.964
     6   6 C        2.914    -0.035    28.872     8.811
     7   6 C        2.981     0.014    27.686     8.631
     8   6 C        2.900    -0.034    28.843     8.806
     9   6 C        2.970     0.014    27.694     8.632
    10   6 C        2.987     0.003    27.947     8.672
    11   6 C        2.904    -0.021    28.529     8.758
    12   6 C        2.961     0.004    27.944     8.671
    13   6 C        2.900    -0.076    29.902     8.966
    14   6 C        2.982     0.004    27.934     8.670
    15   6 C        2.923    -0.022    28.557     8.763
    16   6 C        2.816    -0.108    30.725     9.082
    17   6 C        2.879    -0.056    29.391     8.888
    18   6 C        2.980     0.004    27.932     8.669
    19   6 C        2.884    -0.062    29.544     8.911
    20   6 C        2.970     0.007    27.863     8.658
    21   6 C        2.979     0.005    27.914     8.666
    22   6 C        2.886    -0.072    29.784     8.947
    23   6 C        2.986     0.003    27.949     8.672
    24   6 C        2.970     0.007    27.864     8.659
    25   6 C        2.818    -0.104    30.621     9.067
    26   6 C        2.891    -0.070    29.735     8.940
    27   6 C        2.885    -0.065    29.614     8.922
    28   6 C        2.987     0.003    27.951     8.672
    29   6 C        2.975     0.001    28.009     8.681
    30   6 C        2.888    -0.068    29.704     8.935
    31   6 C        2.987     0.002    27.985     8.678
    32   6 C        2.984     0.002    27.978     8.676
    33   6 C        2.981     0.003    27.961     8.674
    34   6 C        2.968     0.013    27.729     8.637
    35   6 C        2.903    -0.023    28.576     8.765
    36   6 C        2.970     0.005    27.904     8.665
    37   6 C        2.982     0.000    28.011     8.682
    38   6 C        2.981     0.004    27.931     8.669
    39   6 C        2.920    -0.023    28.571     8.765
    40   6 C        2.977    -0.003    28.092     8.694
    41   6 C        2.875    -0.070    29.740     8.940
    42   6 C        2.915    -0.040    28.999     8.830
    43   6 C        2.985     0.000    28.018     8.683
    44   6 C        2.915    -0.026    28.649     8.777
    45   6 C        2.980     0.005    27.911     8.666
    46   6 C        2.973     0.012    27.754     8.641
    47   6 C        2.978     0.015    27.679     8.630
    48   6 C        2.988     0.002    27.985     8.678
    49   6 C        2.968     0.011    27.769     8.644
    50   6 C        2.985    -0.001    28.044     8.687
    51   6 C        2.889    -0.068    29.703     8.935
    52   6 C        2.985     0.004    27.934     8.670
    53   6 C        2.910    -0.022    28.556     8.763
    54   6 C        2.982     0.001    27.988     8.678
    55   6 C        2.988     0.005    27.906     8.665
    56   6 C        2.978     0.008    27.841     8.655
    57   6 C        2.983     0.005    27.902     8.665
    58   6 C        2.982     0.006    27.879     8.661
    59   6 C        2.984     0.002    27.966     8.675
    60   6 C        2.912    -0.030    28.756     8.793
    61   6 C        2.987     0.000    28.015     8.682
    62   6 C        2.910    -0.026    28.662     8.779
    63   6 C        2.892    -0.072    29.806     8.951
    64   6 C        2.829    -0.110    30.781     9.091
    65   6 C        2.982     0.004    27.939     8.670
    66   6 C        2.991     0.001    27.992     8.679
    67   6 C        2.984     0.003    27.955     8.673
    68   6 C        2.881    -0.065    29.621     8.922
    69   6 C        2.979    -0.004    28.115     8.698
    70   6 C        2.902    -0.078    29.949     8.973
    71   6 C        2.912    -0.070    29.753     8.944
    72   6 C        2.992    -0.001    28.052     8.688
    73   6 C        2.912    -0.024    28.593     8.768
    74   6 C        2.980     0.015    27.682     8.631
    75   6 C        2.984     0.002    27.976     8.676
    76   6 C        2.988     0.001    28.007     8.681
    77   6 C        2.964     0.003    27.967     8.674
    78   6 C        2.905    -0.076    29.892     8.965
    79   6 C        2.885    -0.071    29.777     8.946
    80   6 C        2.893    -0.069    29.705     8.936
    81   6 C        2.916    -0.036    28.906     8.816
    82   6 C        2.989     0.001    28.007     8.681
    83   6 C        2.984     0.007    27.866     8.659
    84   6 C        2.985     0.002    27.973     8.676
    85   6 C        2.922    -0.026    28.647     8.777
    86   6 C        2.989     0.001    27.995     8.679
    87   6 C        2.818    -0.111    30.788     9.091
    88   6 C        2.971     0.002    27.989     8.678
    89   6 C        2.905    -0.074    29.856     8.959
    90   6 C        2.966     0.014    27.699     8.633
    91   6 C        2.979    -0.002    28.064     8.690
    92   6 C        2.924    -0.029    28.728     8.790
    93   6 C        2.988     0.001    27.992     8.679
    94   6 C        2.979    -0.001    28.041     8.686
    95   1 H        0.926     0.046     2.374     2.409
    96   1 H        0.926     0.036     2.498     2.471
    97   1 H        0.939    -0.100     5.539     3.680
    98   1 H        0.938    -0.104     5.710     3.736
    99   1 H        0.926     0.036     2.500     2.473
   100   1 H        0.926     0.037     2.495     2.470
   101   1 H        0.925     0.029     2.607     2.525
   102   1 H        0.925     0.036     2.497     2.471
   103   1 H        0.925     0.020     2.730     2.584
   104   1 H        0.925     0.019     2.745     2.591
   105   1 H        0.925     0.026     2.642     2.542
   106   1 H        0.938    -0.106     5.779     3.758
   107   1 H        0.925     0.034     2.531     2.488
   108   1 H        0.926     0.042     2.421     2.433
   109   1 H        0.925     0.027     2.629     2.536
   110   1 H        0.925     0.021     2.713     2.576
   111   1 H        0.938    -0.111     5.960     3.817
   112   1 H        0.926     0.030     2.589     2.516
   113   1 H        0.925     0.028     2.616     2.530
   114   1 H        0.925     0.029     2.604     2.524
   115   1 H        0.939    -0.102     5.613     3.704
   116   1 H        0.925     0.036     2.500     2.472
   117   1 H        0.926     0.046     2.367     2.406
   118   1 H        0.926     0.034     2.532     2.488
   119   1 H        0.925     0.017     2.781     2.608
   120   1 H        0.926     0.036     2.503     2.474
   121   1 H        0.938    -0.105     5.742     3.746
   122   1 H        0.939    -0.105     5.729     3.742
   123   5 B        2.755     0.213    18.146     7.128
   124   5 B        2.753     0.211    18.177     7.135
   125   5 B        2.753     0.196    18.395     7.177
   126   5 B        2.751     0.192    18.445     7.188
   127   5 B        2.753     0.215    18.114     7.122
   128   5 B        2.757     0.210    18.185     7.135
   129   5 B        2.747     0.204    18.284     7.157
   130   5 B        2.757     0.213    18.137     7.126
   131   5 B        2.757     0.219    18.057     7.110
   132   5 B        2.756     0.208    18.206     7.140

 Mol. C6AA /au·bohr⁶  :     354172.677049
 Mol. C8AA /au·bohr⁸  :    9888841.587806
 Mol. α(0) /au        :        973.823185


Wiberg/Mayer (AO) data.
largest (>0.10) Wiberg bond orders for each atom

 ---------------------------------------------------------------------------
     #   Z sym  total        # sym  WBO       # sym  WBO       # sym  WBO
 ---------------------------------------------------------------------------
     1   6 C    3.948 --     6 C    1.598     7 C    1.237    95 H    0.961
     2   6 C    3.933 --     8 C    1.631     9 C    1.177    96 H    0.960
     3   6 C    3.937 --    10 C    1.266     6 C    1.247     9 C    1.232
     4   6 C    3.917 --    17 C    1.462     8 C    1.214   129 B    1.022
     5   6 C    3.903 --     9 C    1.336    18 C    1.287   129 B    1.061
     6   6 C    3.966 --     1 C    1.598     3 C    1.247    99 H    0.959
     7   6 C    3.961 --    26 C    1.294     1 C    1.237    28 C    1.236
     8   6 C    3.942 --     2 C    1.631     4 C    1.214   100 H    0.961
     9   6 C    3.932 --     5 C    1.336     3 C    1.232     2 C    1.177
    10   6 C    3.969 --     3 C    1.266    28 C    1.255    31 C    1.224
    11   6 C    3.971 --    16 C    1.694    19 C    1.178   101 H    0.966
    12   6 C    3.966 --    19 C    1.439    17 C    1.175    20 C    1.128
    13   6 C    3.916 --    20 C    1.360    21 C    1.270   129 B    1.070
    14   6 C    3.952 --    23 C    1.261    22 C    1.252    20 C    1.222
    15   6 C    3.946 --    22 C    1.419    24 C    1.345   102 H    0.966
    16   6 C    3.900 --    11 C    1.694   131 B    1.096   103 H    0.971
    17   6 C    3.883 --     4 C    1.462    12 C    1.175   131 B    1.027
    18   6 C    3.945 --     5 C    1.287    31 C    1.250    40 C    1.204
    19   6 C    3.868 --    12 C    1.439    11 C    1.178   130 B    1.059
    20   6 C    3.908 --    13 C    1.360    14 C    1.222    12 C    1.128
    21   6 C    3.942 --    13 C    1.270    48 C    1.244    40 C    1.220
    22   6 C    3.879 --    15 C    1.419    14 C    1.252   130 B    1.065
    23   6 C    3.971 --    14 C    1.261    48 C    1.248    55 C    1.236
    24   6 C    3.920 --    15 C    1.345    62 C    1.237    55 C    1.194
    25   6 C    3.785 --    35 C    1.608   132 B    1.108   104 H    0.972
    26   6 C    3.838 --    36 C    1.299     7 C    1.294   132 B    1.047
    27   6 C    3.732 --    36 C    1.272    35 C    1.262   128 B    1.081
    28   6 C    3.943 --    10 C    1.255    37 C    1.243     7 C    1.236
    29   6 C    3.934 --    37 C    1.301    38 C    1.224    36 C    1.186
    30   6 C    3.928 --    39 C    1.467    38 C    1.240   128 B    1.050
    31   6 C    3.951 --    67 C    1.264    18 C    1.250    10 C    1.224
    32   6 C    3.967 --    69 C    1.326    67 C    1.221    37 C    1.201
    33   6 C    3.958 --    71 C    1.280    38 C    1.269    69 C    1.206
    34   6 C    3.961 --    71 C    1.318    39 C    1.291    73 C    1.192
    35   6 C    3.971 --    25 C    1.608    27 C    1.262   105 H    0.966
    36   6 C    3.966 --    26 C    1.299    27 C    1.272    29 C    1.186
    37   6 C    3.975 --    29 C    1.301    28 C    1.243    32 C    1.201
    38   6 C    3.954 --    33 C    1.269    30 C    1.240    29 C    1.224
    39   6 C    3.937 --    30 C    1.467    34 C    1.291   107 H    0.966
    40   6 C    3.930 --    75 C    1.295    21 C    1.220    18 C    1.204
    41   6 C    3.938 --    73 C    1.534    80 C    1.187   127 B    1.067
    42   6 C    3.972 --    81 C    1.623    74 C    1.222   108 H    0.962
    43   6 C    3.950 --    76 C    1.251    67 C    1.249    75 C    1.235
    44   6 C    3.962 --    77 C    1.505    68 C    1.240   109 H    0.962
    45   6 C    3.953 --    78 C    1.312    76 C    1.244    69 C    1.187
    46   6 C    3.952 --    79 C    1.329    70 C    1.308    77 C    1.113
    47   6 C    3.971 --    79 C    1.292    72 C    1.251    81 C    1.222
    48   6 C    3.970 --    82 C    1.250    23 C    1.248    21 C    1.244
    49   6 C    3.927 --    80 C    1.414    88 C    1.153    83 C    1.148
    50   6 C    3.957 --    84 C    1.271    82 C    1.251    75 C    1.217
    51   6 C    3.943 --    85 C    1.412    83 C    1.293   127 B    1.054
    52   6 C    3.961 --    76 C    1.248    86 C    1.245    84 C    1.243
    53   6 C    3.971 --    87 C    1.700    77 C    1.171   110 H    0.964
    54   6 C    3.941 --    78 C    1.298    86 C    1.271    88 C    1.172
    55   6 C    3.962 --    89 C    1.313    23 C    1.236    24 C    1.194
    56   6 C    3.937 --    88 C    1.403    94 C    1.186    90 C    1.127
    57   6 C    3.956 --    89 C    1.298    82 C    1.238    91 C    1.208
    58   6 C    3.963 --    92 C    1.361    83 C    1.312    90 C    1.097
    59   6 C    3.967 --    91 C    1.321    84 C    1.218    93 C    1.209
    60   6 C    3.968 --    92 C    1.457    85 C    1.412   112 H    0.970
    61   6 C    3.960 --    93 C    1.267    94 C    1.248    86 C    1.222
    62   6 C    3.895 --    68 C    1.490    24 C    1.237   113 H    0.963
    63   6 C    3.883 --    94 C    1.314    74 C    1.304   123 B    1.051
    64   6 C    3.834 --    90 C    1.593   123 B    1.098   114 H    0.963
    65   6 C    3.975 --    70 C    1.307    72 C    1.258    91 C    1.185
    66   6 C    3.968 --    93 C    1.263    72 C    1.240    74 C    1.240
    67   6 C    3.947 --    31 C    1.264    43 C    1.249    32 C    1.221
    68   6 C    3.906 --    62 C    1.490    44 C    1.240   125 B    1.039
    69   6 C    3.946 --    32 C    1.326    33 C    1.206    45 C    1.187
    70   6 C    3.913 --    46 C    1.308    65 C    1.307   125 B    1.079
    71   6 C    3.917 --    34 C    1.318    33 C    1.280   126 B    1.064
    72   6 C    3.977 --    65 C    1.258    47 C    1.251    66 C    1.240
    73   6 C    3.907 --    41 C    1.534    34 C    1.192   116 H    0.967
    74   6 C    3.962 --    63 C    1.304    66 C    1.240    42 C    1.222
    75   6 C    3.964 --    40 C    1.295    43 C    1.235    50 C    1.217
    76   6 C    3.958 --    43 C    1.251    52 C    1.248    45 C    1.244
    77   6 C    3.932 --    44 C    1.505    53 C    1.171    46 C    1.113
    78   6 C    3.880 --    45 C    1.312    54 C    1.298   126 B    1.063
    79   6 C    3.884 --    46 C    1.329    47 C    1.292   124 B    1.057
    80   6 C    3.876 --    49 C    1.414    41 C    1.187   126 B    1.069
    81   6 C    3.964 --    42 C    1.623    47 C    1.222   117 H    0.961
    82   6 C    3.956 --    50 C    1.251    48 C    1.250    57 C    1.238
    83   6 C    3.978 --    58 C    1.312    51 C    1.293    49 C    1.148
    84   6 C    3.937 --    50 C    1.271    52 C    1.243    59 C    1.218
    85   6 C    3.972 --    60 C    1.412    51 C    1.412   118 H    0.970
    86   6 C    3.954 --    54 C    1.271    52 C    1.245    61 C    1.222
    87   6 C    3.888 --    53 C    1.700   124 B    1.102   119 H    0.973
    88   6 C    3.965 --    56 C    1.403    54 C    1.172    49 C    1.153
    89   6 C    3.863 --    55 C    1.313    57 C    1.298   125 B    1.057
    90   6 C    3.972 --    64 C    1.593    56 C    1.127    58 C    1.097
    91   6 C    3.924 --    59 C    1.321    57 C    1.208    65 C    1.185
    92   6 C    3.979 --    60 C    1.457    58 C    1.361   120 H    0.963
    93   6 C    3.975 --    61 C    1.267    66 C    1.263    59 C    1.209
    94   6 C    3.960 --    63 C    1.314    61 C    1.248    56 C    1.186
    95   1 H    0.996 --     1 C    0.961
    96   1 H    0.997 --     2 C    0.960
    97   1 H    0.988 --   131 B    0.960
    98   1 H    0.979 --   132 B    0.953
    99   1 H    0.997 --     6 C    0.959
   100   1 H    0.997 --     8 C    0.961
   101   1 H    0.998 --    11 C    0.966
   102   1 H    0.997 --    15 C    0.966
   103   1 H    0.998 --    16 C    0.971
   104   1 H    0.998 --    25 C    0.972
   105   1 H    0.998 --    35 C    0.966
   106   1 H    0.988 --   128 B    0.969
   107   1 H    0.997 --    39 C    0.966
   108   1 H    0.997 --    42 C    0.962
   109   1 H    0.998 --    44 C    0.962
   110   1 H    0.999 --    53 C    0.964
   111   1 H    0.987 --   124 B    0.963
   112   1 H    0.998 --    60 C    0.970
   113   1 H    0.998 --    62 C    0.963
   114   1 H    0.998 --    64 C    0.963
   115   1 H    0.986 --   123 B    0.963
   116   1 H    0.998 --    73 C    0.967
   117   1 H    0.997 --    81 C    0.961
   118   1 H    0.998 --    85 C    0.970
   119   1 H    0.999 --    87 C    0.973
   120   1 H    0.998 --    92 C    0.963
   121   1 H    0.988 --   130 B    0.970
   122   1 H    0.988 --   127 B    0.970
   123   5 B    3.304 --    64 C    1.098    63 C    1.051   115 H    0.963
   124   5 B    3.336 --    87 C    1.102    79 C    1.057   111 H    0.963
   125   5 B    3.399 --    70 C    1.079    89 C    1.057    68 C    1.039
   126   5 B    3.440 --    80 C    1.069    71 C    1.064    78 C    1.063
   127   5 B    3.332 --    41 C    1.067    51 C    1.054   122 H    0.970
   128   5 B    3.295 --    27 C    1.081    30 C    1.050   106 H    0.969
   129   5 B    3.435 --    13 C    1.070     5 C    1.061     4 C    1.022
   130   5 B    3.297 --    22 C    1.065    19 C    1.059   121 H    0.970
   131   5 B    3.319 --    16 C    1.096    17 C    1.027    97 H    0.960
   132   5 B    3.274 --    25 C    1.108    26 C    1.047    98 H    0.953
 ---------------------------------------------------------------------------

Topologies differ in total number of bonds
Writing topology from bond orders to xtbtopo.mol

molecular dipole:
                 x           y           z       tot (Debye)
 q only:       -0.177       0.228      -0.153
   full:        0.010       0.263      -0.231       0.890
molecular quadrupole (traceless):
                xx          xy          yy          xz          yz          zz
 q only:       -4.684      20.102       1.612       2.676       1.384       3.072
  q+dip:       25.497      22.332      16.177       5.551       3.540     -41.674
   full:        0.879      22.297      -6.877       2.574       4.089       5.999


           -------------------------------------------------
          | TOTAL ENERGY             -228.299779418679 Eh   |
          | GRADIENT NORM               0.000560106470 Eh/α |
          | HOMO-LUMO GAP               0.056162959131 eV   |
           -------------------------------------------------

------------------------------------------------------------------------
 * finished run on 2025/12/08 at 00:30:34.303     
------------------------------------------------------------------------
 total:
 * wall-time:     0 d,  0 h,  0 min,  0.281 sec
 *  cpu-time:     0 d,  0 h,  0 min,  3.375 sec
 * ratio c/w:    12.011 speedup
 SCF:
 * wall-time:     0 d,  0 h,  0 min,  0.218 sec
 *  cpu-time:     0 d,  0 h,  0 min,  2.781 sec
 * ratio c/w:    12.758 speedup

normal termination of xtb
