132
 energy: -228.278675218932 gnorm: 0.084998517719 xtb: 6.7.1pre (5071a88)
C           -3.08183400000000        7.31434800000000        0.37827400000000
C            1.19843400000000        7.46842200000000       -0.03047700000000
C           -0.94906100000000        6.17467600000000        0.15959100000000
C            3.42254600000000        6.44907300000000       -0.18677500000000
C            1.19502000000000        5.00509500000000       -0.02377300000000
C           -1.72679600000000        7.36127400000000        0.28609000000000
C           -3.80630300000000        6.08430700000000        0.33718700000000
C            2.55919000000000        7.59499300000000       -0.13770200000000
C            0.46513200000000        6.21333200000000        0.03850400000000
C           -1.62417500000000        4.90918200000000        0.15676900000000
C            7.69025500000000        6.53920400000000       -0.47508600000000
C            5.56626300000000        5.22030600000000       -0.30565600000000
C            3.50402700000000        3.80072000000000       -0.15633700000000
C            5.65217300000000        2.64439100000000       -0.23739000000000
C            7.77059500000000        1.43112300000000       -0.28937600000000
C            7.11276800000000        7.77234400000000       -0.46856100000000
C            4.81305000000000        6.48179300000000       -0.28385500000000
C            0.56239900000000        3.75073400000000        0.01202600000000
C            6.96123400000000        5.27988200000000       -0.39406400000000
C            4.89962200000000        3.88360200000000       -0.23404600000000
C            2.78859900000000        2.56151900000000       -0.09328500000000
C            7.06981800000000        2.64208200000000       -0.30921700000000
C            4.95386400000000        1.40478700000000       -0.16021200000000
C            7.13048300000000        0.18706900000000       -0.19951500000000
C           -7.55120000000000        7.28942600000000        0.55033400000000
C           -5.22892600000000        6.08970600000000        0.39441200000000
C           -7.35463700000000        4.82628400000000        0.29211900000000
C           -3.04962200000000        4.86550200000000        0.22642800000000
C           -5.16529800000000        3.59338700000000        0.18885200000000
C           -7.25815500000000        2.23812700000000        0.05027000000000
C           -0.87033700000000        3.68828200000000        0.08324300000000
C           -2.96999100000000        2.38589800000000        0.10928800000000
C           -5.05836200000000        1.11725900000000        0.03359100000000
C           -7.14069500000000       -0.19771700000000       -0.13944700000000
C           -8.10661800000000        6.03875000000000        0.41564600000000
C           -5.92359400000000        4.84269200000000        0.29217600000000
C           -3.73788100000000        3.61444600000000        0.17742800000000
C           -5.82007000000000        2.32396700000000        0.09235400000000
C           -7.88322300000000        1.00524600000000       -0.07436100000000
C            1.35587400000000        2.53086300000000       -0.02444500000000
C           -7.11991700000000       -2.70228700000000       -0.35264800000000
C            1.69489700000000       -7.33404600000000        0.57023100000000
C           -0.74902100000000        1.22646300000000        0.04785800000000
C            8.01973200000000       -3.53139300000000        0.00470300000000
C           -2.83274300000000       -0.09448000000000        0.03005800000000
C            5.86848600000000       -4.82836400000000        0.18760900000000
C            3.78874900000000       -6.08572500000000        0.37637400000000
C            3.52636800000000        1.34027700000000       -0.09550600000000
C           -4.92173000000000       -3.91016200000000       -0.23127800000000
C            1.42430400000000        0.05231700000000        0.01516500000000
C           -6.99247600000000       -5.27768000000000       -0.66616200000000
C           -0.65711800000000       -1.25898400000000        0.05420200000000
C            8.14153000000000       -5.94531600000000        0.19540400000000
C           -2.73585300000000       -2.57749800000000       -0.01559000000000
C            5.69192100000000        0.18271600000000       -0.14104600000000
C           -2.70646200000000       -5.04276000000000        0.02637200000000
C            3.60484400000000       -1.11922500000000       -0.00134000000000
C           -4.81753800000000       -6.38337800000000       -0.39408700000000
C            1.53161000000000       -2.43521300000000        0.10689300000000
C           -6.79002400000000       -7.68349400000000       -1.00991300000000
C           -0.57701100000000       -3.74911200000000        0.13911500000000
C            7.92097900000000       -1.02549000000000       -0.16153200000000
C           -0.51276800000000       -6.19686700000000        0.41649200000000
C           -2.76128000000000       -7.49022700000000        0.37455300000000
C            3.69812300000000       -3.63828100000000        0.15463400000000
C            1.59333500000000       -4.90349600000000        0.29634100000000
C           -1.53235200000000        2.43786600000000        0.08160600000000
C            7.33817200000000       -2.27102500000000       -0.06234100000000
C           -3.62222200000000        1.13458700000000        0.06019000000000
C            5.10942900000000       -3.63455800000000        0.11252800000000
C           -5.73930400000000       -0.12095600000000       -0.06539200000000
C            3.02084700000000       -4.87681700000000        0.27739900000000
C           -7.77967200000000       -1.48437800000000       -0.29352100000000
C            0.90317200000000       -6.14512800000000        0.43948600000000
C            0.67808800000000        1.27964900000000        0.01339000000000
C           -1.40341600000000       -0.03298300000000        0.04562500000000
C            7.34598900000000       -4.73684200000000        0.12489100000000
C           -3.45564000000000       -1.35202300000000       -0.02159600000000
C            5.22005200000000       -6.08457200000000        0.32574500000000
C           -5.67598100000000       -2.72981200000000       -0.22365500000000
C            3.05508900000000       -7.30643600000000        0.53290400000000
C            2.84579200000000        0.09321700000000       -0.02707300000000
C           -5.58225600000000       -5.20051700000000       -0.42426700000000
C            0.76575400000000       -1.20837100000000        0.05971000000000
C           -7.56597900000000       -6.52218100000000       -0.94572500000000
C           -1.32588400000000       -2.53207800000000        0.05428400000000
C            7.60836000000000       -7.19328400000000        0.32624300000000
C           -3.44705200000000       -3.85401300000000       -0.08127900000000
C            5.00753100000000       -1.04758100000000       -0.05509700000000
C           -3.40412100000000       -6.33897800000000       -0.00585800000000
C            2.94083000000000       -2.39938100000000        0.08731800000000
C           -5.43493500000000       -7.60849400000000       -0.73003900000000
C            0.84658000000000       -3.69901400000000        0.18618000000000
C           -1.25812600000000       -5.00178200000000        0.19773400000000
H           -3.63553300000000        8.23669900000000        0.47440100000000
H            0.63087300000000        8.39041900000000       -0.00625600000000
H            5.01233000000000        8.87977200000000       -0.35546000000000
H           -5.52704200000000        8.47523300000000        0.67231400000000
H           -1.24198700000000        8.32810200000000        0.31969600000000
H            2.97038000000000        8.59772000000000       -0.18373000000000
H            8.77341700000000        6.43750200000000       -0.54354700000000
H            8.85649100000000        1.45864700000000       -0.34139600000000
H            7.75994600000000        8.64584300000000       -0.53365500000000
H           -8.22687500000000        8.14057100000000        0.64576200000000
H           -9.19179700000000        5.91734800000000        0.40198000000000
H           -9.29506400000000        3.46644800000000        0.12169100000000
H           -8.96989700000000        0.96772300000000       -0.11823200000000
H            1.19171600000000       -8.28451000000000        0.68213200000000
H            9.10925000000000       -3.55990700000000       -0.03295000000000
H            9.22119200000000       -5.80107800000000        0.13870100000000
H            5.62147200000000       -8.46018800000000        0.52277900000000
H           -7.23868900000000       -8.63757600000000       -1.26957600000000
H            9.00365300000000       -0.89972800000000       -0.20774100000000
H           -3.35187300000000       -8.39789200000000        0.44908600000000
H           -0.75325900000000       -8.51627400000000        1.03511000000000
H           -8.86502300000000       -1.48316400000000       -0.38122400000000
H            3.60450400000000       -8.23450000000000        0.62210500000000
H           -8.63546800000000       -6.57701900000000       -1.13056200000000
H            8.30192900000000       -8.03250100000000        0.37048000000000
H           -4.84111000000000       -8.51230400000000       -0.79291500000000
H            8.99495300000000        4.02869700000000       -0.47569900000000
H           -9.05564600000000       -4.07033200000000       -0.73523000000000
B           -1.27450600000000       -7.51194200000000        0.65704300000000
B            6.09342400000000       -7.36598200000000        0.40596800000000
B            5.81859200000000       -2.32001900000000       -0.00810100000000
B           -4.95605400000000       -1.40949200000000       -0.09424100000000
B           -7.86656200000000       -4.01440400000000       -0.59736800000000
B           -8.09470600000000        3.52472600000000        0.15111700000000
B            2.70507500000000        5.08115900000000       -0.12554700000000
B            7.80113900000000        3.98445800000000       -0.40202500000000
B            5.59171400000000        7.83504500000000       -0.36783700000000
B           -6.04778700000000        7.40115800000000        0.55062800000000
132
 energy: -228.291301415254 gnorm: 0.036654561055 xtb: 6.7.1pre (5071a88)
C           -3.07465102978223        7.28762236735613        0.37517967969860
C            1.20064311114181        7.44221588492524       -0.03152922226833
C           -0.94792571311480        6.15530338882614        0.15816115659635
C            3.41792265648863        6.42947271782344       -0.18561934890550
C            1.18925708871442        4.99411355868884       -0.02350885187091
C           -1.72481666301502        7.33467164606693        0.28488966246968
C           -3.79561275157816        6.06356367859707        0.33369729117164
C            2.55398574686447        7.56776066813608       -0.13681634705723
C            0.46525053664847        6.19837778906341        0.03774455947111
C           -1.61998135268643        4.89574143648830        0.15571029583714
C            7.67280712292839        6.51931856790966       -0.47352090697065
C            5.55443942913368        5.20713350280947       -0.30447589522775
C            3.50329547327353        3.78980616888047       -0.15573205702737
C            5.64257761417549        2.64429106401876       -0.23635396364005
C            7.75032757537974        1.42722209514135       -0.28785095051907
C            7.09843645172963        7.74444944041533       -0.46651752097103
C            4.80606959667991        6.46371310351145       -0.28228895850253
C            0.55705218757918        3.73825558554101        0.01319530132834
C            6.94794105096992        5.26769469602806       -0.39245524630420
C            4.89879185466912        3.87697593521772       -0.23359267388125
C            2.78499832236305        2.55781118609817       -0.09250862634327
C            7.05938159602195        2.63873879057663       -0.30817144295125
C            4.94500842185412        1.40668949501903       -0.15919062098093
C            7.11479709379169        0.18499129397298       -0.19790170210605
C           -7.53875390853890        7.26546293227597        0.54639343556127
C           -5.21104695531526        6.07220770472867        0.39096269365298
C           -7.32927606899722        4.82257147992082        0.29158786340777
C           -3.04262686569758        4.85049067601982        0.22468574097619
C           -5.15299455994930        3.58761820490452        0.18854672411628
C           -7.24007973614234        2.23177935110801        0.05058749704747
C           -0.86828610394794        3.67857549716205        0.08290872582956
C           -2.96357537662949        2.37959554755349        0.10901386095171
C           -5.04882420991521        1.11969020241681        0.03387202459423
C           -7.12601403528522       -0.19557154464124       -0.13860218628401
C           -8.08678943882675        6.02434017364206        0.41518449741368
C           -5.90145560237009        4.83285174794915        0.29244818603237
C           -3.72991146450901        3.60346969553679        0.17662906869340
C           -5.80857687441683        2.32107139969357        0.09285233003378
C           -7.86267577937088        1.00197976081649       -0.07445734183937
C            1.35148671145021        2.52883223131568       -0.02355249968807
C           -7.10529152669316       -2.69748880825559       -0.35181888572436
C            1.69225259582080       -7.30511292090411        0.56231569429127
C           -0.74988503871866        1.22630398613935        0.04864741012664
C            7.99686445942052       -3.52149697562506        0.00525316834867
C           -2.82549088203366       -0.09178304402185        0.03124524720315
C            5.85388558287741       -4.82228171962744        0.18751629148262
C            3.78041985318261       -6.06599323162093        0.37414765996529
C            3.52033662830588        1.34072372248955       -0.09472850543589
C           -4.91220677248446       -3.90791564478458       -0.23072341693136
C            1.41916335818551        0.05439480852010        0.01564654772174
C           -6.97311416398906       -5.26956950739443       -0.66384469557889
C           -0.65892334832372       -1.25706390403917        0.05440660577757
C            8.11718788942834       -5.92586211922360        0.19463112928395
C           -2.73466993371537       -2.57513210427823       -0.01600838959418
C            5.67939172267097        0.18646352889230       -0.13987285266717
C           -2.70409006712869       -5.03095891226127        0.02356137059474
C            3.59168832401368       -1.11312470137888       -0.00031274009855
C           -4.80651084782138       -6.36994921114384       -0.39428308521529
C            1.52538120377809       -2.42632535675075        0.10788238117314
C           -6.77073013740044       -7.66355014500573       -1.00634209903313
C           -0.57754163330337       -3.73997428046523        0.13713955379796
C            7.90363933325135       -1.01871821855276       -0.16044513576376
C           -0.51498246612126       -6.18102562094924        0.41030441700825
C           -2.75896083630012       -7.46551001766271        0.37483553205345
C            3.68582928644603       -3.62859427086353        0.15468362906760
C            1.58818046796399       -4.88891497781559        0.29373200404706
C           -1.53064336235476        2.42970664127346        0.08214450854724
C            7.32540045578924       -2.26364834223843       -0.06152638900629
C           -3.61406465143013        1.13074559133720        0.06084412176034
C            5.09468314488350       -3.63346910282503        0.11336391402958
C           -5.72962586175266       -0.11514543024621       -0.06441773957285
C            3.01217464444245       -4.86459329612131        0.27583383554547
C           -7.75481917129015       -1.47899811742928       -0.29096825863425
C            0.89897527105880       -6.12506981443040        0.43312256088589
C            0.67548118492934        1.28009896631904        0.01384897520058
C           -1.40190401011416       -0.03363011178138        0.04606220297859
C            7.32276530287019       -4.72320186619303        0.12505079768929
C           -3.44634854086657       -1.35136453155762       -0.01971426226191
C            5.20621404515888       -6.07206212280327        0.32513634010324
C           -5.66673339915781       -2.73301502336259       -0.22421343586630
C            3.04708753001238       -7.27811788777837        0.52848469401695
C            2.83804780828441        0.09557422349606       -0.02641346354842
C           -5.56922165909091       -5.19112240880982       -0.42269186626112
C            0.76271176455311       -1.20558471173236        0.06003745482419
C           -7.54192958589872       -6.51148907265403       -0.94015563292091
C           -1.32458558336282       -2.52678774056827        0.05311286798867
C            7.58977633829916       -7.16621222312724        0.32464851221880
C           -3.44646186234347       -3.84611872974388       -0.08324863563464
C            4.99352120489828       -1.03877578669345       -0.05453087575677
C           -3.39718577788263       -6.31992916062190       -0.01311334829628
C            2.93406356010888       -2.39135948817847        0.08753442879229
C           -5.42185849882797       -7.58879636610690       -0.72908593425681
C            0.84273315517710       -3.68692447147081        0.18430931624069
C           -1.26023598349476       -4.99060329708314        0.19302158720212
H           -3.62221395728628        8.20914752486238        0.47118564282437
H            0.63513187725459        8.36306479692305       -0.00755991986917
H            5.02998971299932        8.86383466755182       -0.35753093684202
H           -5.54724851866388        8.46070412638773        0.67895099871303
H           -1.24316703160326        8.30003546109066        0.31908755120161
H            2.96303591657609        8.56810070748035       -0.18247841474191
H            8.75256261449209        6.42114864935921       -0.54220126587294
H            8.83266374785343        1.45535766011428       -0.34003747886844
H            7.74518725655448        8.61432719113441       -0.53160757820842
H           -8.21519483872844        8.11045767020241        0.64159782746412
H           -9.16726572914622        5.90307229776894        0.40194873104075
H           -9.26766567116107        3.46396048071397        0.12108616868168
H           -8.94531901230705        0.96522531475299       -0.11767933183918
H            1.19547894829041       -8.25454984400103        0.67399896561496
H            9.08358370562831       -3.54996095005223       -0.03245914710481
H            9.19453304216058       -5.78545423192024        0.13823687897319
H            5.63596681062920       -8.44634371235492        0.52007644281421
H           -7.22108377390908       -8.61406001623567       -1.26352937898702
H            8.98292381559205       -0.89242344489661       -0.20695830194550
H           -3.34833251162681       -8.37091987413939        0.44755854726557
H           -0.77860368014851       -8.49764942477798        1.04539482145550
H           -8.83660755243226       -1.47668706603535       -0.37800497680911
H            3.59236947231904       -8.20425128636731        0.61974765551641
H           -8.60752558242595       -6.56943709210727       -1.12385903154040
H            8.28434396053779       -8.00077275240337        0.36835175965142
H           -4.83392007861404       -8.49269580396286       -0.79350402502591
H            8.97657250596981        4.02340961115648       -0.47473148328404
H           -9.03004750136272       -4.06737824259362       -0.73031530242125
B           -1.27316194924265       -7.49948844544314        0.66253821567795
B            6.07648957456928       -7.35681613712340        0.40591924327346
B            5.80554401330972       -2.31407025419623       -0.00812754368236
B           -4.94947336597978       -1.40809160663387       -0.09252521095858
B           -7.85789000031828       -4.01031314235310       -0.59527357344314
B           -8.08518199367981        3.51342921623335        0.14884635381774
B            2.70137983122829        5.07029740493185       -0.12566774163377
B            7.79861168090731        3.97981526685808       -0.40186196637668
B            5.57968503717931        7.82102143697355       -0.36649077528035
B           -6.02916444109379        7.38965204930245        0.54922323729636
132
 energy: -228.295892636153 gnorm: 0.011179252721 xtb: 6.7.1pre (5071a88)
C           -3.06804981838912        7.26539478366249        0.37239984732078
C            1.19973824416537        7.41978539723842       -0.03235486418490
C           -0.94570395269916        6.13599309049860        0.15685131893297
C            3.41120681118179        6.40918249473051       -0.18483722289064
C            1.18529747182888        4.98151699036968       -0.02380726808689
C           -1.71945877834990        7.31208503722000        0.28331157853007
C           -3.78335275614765        6.04357103805961        0.33133248692100
C            2.54976655245330        7.54468948965449       -0.13608238770524
C            0.46698564946631        6.18214527364617        0.03680708487337
C           -1.61369577742111        4.88140038289023        0.15442932440889
C            7.65869029463455        6.49599172913436       -0.47206241638427
C            5.54211622610103        5.19161416819640       -0.30304978364059
C            3.49775135139247        3.77810282728696       -0.15496892838266
C            5.63050605918968        2.64318197772765       -0.23512166204118
C            7.73193340296297        1.42380072833245       -0.28643529837090
C            7.08482356044988        7.71770391047800       -0.46415666695315
C            4.79798092646582        6.44352879202183       -0.28119178848851
C            0.55337088809649        3.72418435814691        0.01357533514885
C            6.93587773115005        5.25100722601735       -0.39121823077540
C            4.89398518737741        3.86937479400117       -0.23264186703224
C            2.77992742633739        2.55319954882493       -0.09167875688481
C            7.04753716039091        2.63344864141390       -0.30716391537997
C            4.93388584929510        1.40738944041882       -0.15796989142547
C            7.09839659446013        0.18361693941069       -0.19636369206995
C           -7.52136797451316        7.24131798547474        0.54178355244683
C           -5.19403292945983        6.05333140660228        0.38922745832935
C           -7.30536577451914        4.81081882387512        0.29051569542857
C           -3.03379769580820        4.83484912933462        0.22323088111905
C           -5.13910685149520        3.57910057794614        0.18852148434938
C           -7.22176429610066        2.22409699549863        0.05052522922714
C           -0.86435858607774        3.66756684945734        0.08252605065089
C           -2.95581467887616        2.37154030795782        0.10941788628418
C           -5.03760148464391        1.11861658244797        0.03522456197583
C           -7.11189345959550       -0.19587621671235       -0.13722073342733
C           -8.06706770228234        6.00424000363398        0.41439633992481
C           -5.88092234357640        4.81927816580077        0.29166865746975
C           -3.71999505379797        3.59095283538444        0.17613693279408
C           -5.79584499487734        2.31499905825783        0.09357973803117
C           -7.84516540823532        0.99704934348197       -0.07430419242299
C            1.34633826210970        2.52494666006602       -0.02270774055244
C           -7.09043605672600       -2.69240303729369       -0.35045163108386
C            1.68292093315662       -7.28029070399038        0.55469403274491
C           -0.75015713676915        1.22530179381605        0.04962332530327
C            7.97367889456483       -3.50720120181131        0.00530948401567
C           -2.81843959206139       -0.08938131227768        0.03285794337541
C            5.83743436323181       -4.81100562617602        0.18735578507649
C            3.76817443553933       -6.04601868539228        0.37135231481165
C            3.51262794674689        1.34030606376530       -0.09372252604615
C           -4.89985613306497       -3.90084414566116       -0.23167692547649
C            1.41327199916542        0.05669289731944        0.01631670382640
C           -6.95360786330962       -5.25825568743173       -0.66031969475152
C           -0.66114230621593       -1.25402544634364        0.05403741837270
C            8.09297709786353       -5.90284245286892        0.19351352483383
C           -2.73293113522102       -2.56959871391276       -0.01658838236658
C            5.66504249882973        0.18918298026813       -0.13856971774907
C           -2.69936132356666       -5.01704878759603        0.01837253424614
C            3.57731196970197       -1.10679582956904        0.00059947862193
C           -4.79113028564094       -6.35483956576050       -0.39880909213150
C            1.51753391858199       -2.41550344823665        0.10758762813616
C           -6.74853867434733       -7.64638641949610       -1.00504109322459
C           -0.57798860473752       -3.72884746989864        0.13297465392817
C            7.88582221448776       -1.00973454514290       -0.15958152240250
C           -0.51830748148785       -6.16345434430696        0.40754273586640
C           -2.75354313667021       -7.44184416320510        0.37860503968738
C            3.67206901799294       -3.61476376062084        0.15382894581433
C            1.58102992981133       -4.87288866007382        0.28948522907781
C           -1.52759745140034        2.42004596092404        0.08287651203981
C            7.30914146072463       -2.25378621190513       -0.06112532390130
C           -3.60467034892838        1.12530695323760        0.06226036264661
C            5.07824367971573       -3.62592377794570        0.11368142324526
C           -5.71782582571624       -0.11251566855450       -0.06246778590501
C            3.00132081523275       -4.84956080472557        0.27312898653171
C           -7.73447869959282       -1.47515640378132       -0.28844191988232
C            0.89279048538341       -6.10451676843941        0.42720055075343
C            0.67278373780952        1.27947197781066        0.01449576088697
C           -1.40075146842867       -0.03434464968307        0.04655673733121
C            7.29836178024797       -4.70567856786654        0.12454409265682
C           -3.43793013929988       -1.34984596252647       -0.01737426130922
C            5.18956181404201       -6.05664415631917        0.32407259000412
C           -5.65617089014013       -2.73110687412893       -0.22446745458411
C            3.03616566960131       -7.25384240977240        0.52381726445037
C            2.82884730455682        0.09762099741291       -0.02549379481978
C           -5.55425480647352       -5.17840865488297       -0.42324447302337
C            0.75900967778137       -1.20136173807203        0.06024501667478
C           -7.51889528928518       -6.49959345658065       -0.93601111156648
C           -1.32281821610817       -2.51944098405369        0.05094088238882
C            7.56812336560588       -7.13974595137859        0.32329123389868
C           -3.44329902717764       -3.83509656690405       -0.08676460860094
C            4.97818940865613       -1.03049856427819       -0.05387853469518
C           -3.38749146638560       -6.29965132320581       -0.01696220384752
C            2.92547782658522       -2.38112928009170        0.08746575086585
C           -5.40095563117426       -7.57064830313868       -0.73281522297859
C            0.83788852571347       -3.67284824174959        0.18115493000787
C           -1.26127515256051       -4.97780985993166        0.18815610109703
H           -3.61533200119703        8.18500707206015        0.46836320856623
H            0.63236895631910        8.33845102454534       -0.00893228913170
H            5.02906408901958        8.84154300822731       -0.35891486898510
H           -5.53419917182161        8.43753946109925        0.68776537891250
H           -1.23667602590423        8.27505572855720        0.31807074856922
H            2.96024265778170        8.54257677476283       -0.18128555914959
H            8.73631473503477        6.39915432825514       -0.54145667754674
H            8.81246652714489        1.45195128112645       -0.33870423152546
H            7.73031202353893        8.58606981823740       -0.52921288224737
H           -8.19524628769204        8.08493431355356        0.63559154074716
H           -9.14429335599564        5.88040988764096        0.40278984717357
H           -9.24211595579824        3.45768905083062        0.11789674766410
H           -8.92548364384173        0.96223168033826       -0.11799169600681
H            1.18704083082344       -8.22847259395260        0.66375813830769
H            9.05866048378015       -3.53628592297824       -0.03186548636112
H            9.16857754568108       -5.76297154318920        0.13695357273072
H            5.62892921261058       -8.42850585709005        0.51789304255445
H           -7.19913435451520       -8.59488728856193       -1.26088589671097
H            8.96311895921175       -0.88311200273224       -0.20575446652897
H           -3.34361779857244       -8.34462129073983        0.45201739661225
H           -0.78553984312255       -8.47222580788429        1.06751175308851
H           -8.81450810824590       -1.47211337070565       -0.37502962020035
H            3.58023153388910       -8.17814563773211        0.61624767843410