132
 energy: -228.299779435242 gnorm: 0.000560072541 xtb: 6.7.1pre (5071a88)
C           -3.06389601772788        7.24077199329853        0.55377892077821
C            1.18905570188157        7.41564962716856       -0.13851990956309
C           -0.94768082721175        6.13345460731787        0.18821829723002
C            3.38806540551816        6.38924968250462       -0.34826401702380
C            1.17510054575366        4.98010620403362       -0.07296094198818
C           -1.72162661255819        7.30194371618014        0.37824739301374
C           -3.76244972392214        6.00936683316957        0.52751904037932
C            2.53711728495619        7.53185730746006       -0.29305974054997
C            0.46016179997398        6.18102598704635       -0.00328303544444
C           -1.60581921118612        4.87563281426177        0.19801012139286
C            7.62672928208531        6.49102559807404       -0.47151783040578
C            5.51988060609605        5.17071751301512       -0.41109559807411
C            3.48173608361745        3.77014196720539       -0.19825183414669
C            5.61686387573597        2.63645150364982       -0.24409577531935
C            7.72017491458415        1.42054307182656       -0.23417985046180
C            7.04067334297968        7.70280280391260       -0.59837169843132
C            4.76759510042517        6.41236844156247       -0.51614732212587
C            0.54989878412783        3.72151074744557        0.00038343955558
C            6.91610003592247        5.24091960300466       -0.39308356240815
C            4.87829749091256        3.85763466008610       -0.28086746236314
C            2.77096095075704        2.54985483185328       -0.10866512132863
C            7.03644029213866        2.62890329122477       -0.26521075719778
C            4.92150903148084        1.40282969420371       -0.16288448534491
C            7.08384636642818        0.17818270975497       -0.17978296119508
C           -7.47447831629300        7.16750093489011        0.91817898538400
C           -5.16656921765738        5.99351606345407        0.66609502122234
C           -7.27718626059266        4.80062251557118        0.29528147331108
C           -3.01918483540455        4.81741963535939        0.31803009194622
C           -5.12183935553373        3.56595647238817        0.19879930982690
C           -7.20147425827726        2.24073662152923       -0.14291240033082
C           -0.86180532703476        3.66494365644224        0.09447154499144
C           -2.94911889203040        2.36639319830928        0.12787895174329
C           -5.03158199340122        1.11896883687596       -0.02092078434690
C           -7.09873267218952       -0.18473130738252       -0.32356584707336
C           -8.02746742331078        5.97912293996278        0.54783303715691
C           -5.85859800935897        4.78905749329505        0.39646713080635
C           -3.70710273470202        3.57879943398585        0.22279965844910
C           -5.78435932316076        2.31547244365759        0.01557807390947
C           -7.82364338967431        1.01707362425242       -0.32669182976101
C            1.33949013729236        2.52504002633366       -0.03042765573404
C           -7.06251367343716       -2.68666488615322       -0.52728301592372
C            1.63721859427880       -7.24757110580470        0.74427242132047
C           -0.75114235506465        1.22959204042232        0.06553162061505
C            7.93687589153085       -3.51489261948639       -0.01296020176612
C           -2.81920358016688       -0.08091614964298        0.04459262718025
C            5.79565557158755       -4.81329724124851        0.16991376716978
C            3.72360051163901       -6.03863587055787        0.41786643177181
C            3.50271160309647        1.33861154250207       -0.10083524254595
C           -4.87766529788245       -3.88387178393646       -0.27388430522272
C            1.40616309419536        0.06384496292688        0.03024069454044
C           -6.87159378368812       -5.25576672431660       -0.86174093498381
C           -0.66676265919642       -1.23889015743776        0.08829918882429
C            8.04164339888553       -5.91211875623660        0.15349573334067
C           -2.73450811950422       -2.54865138793983        0.01521940587144
C            5.65028539774549        0.18500275165974       -0.13561791714898
C           -2.69763771284733       -4.98319008192556        0.12298791896835
C            3.56207193885939       -1.10372601854589        0.00491347751795
C           -4.72719983015460       -6.33590730113618       -0.42113843565511
C            1.50351041562531       -2.39940452249117        0.14812560722851
C           -6.59094791586361       -7.63707218883062       -1.23575928392064
C           -0.58736218716483       -3.69989175686632        0.21832147649705
C            7.86503485816088       -1.01551835945377       -0.15218934174581
C           -0.54610064309978       -6.10662953944394        0.64930136441690
C           -2.77917855315121       -7.37359884538224        0.63849441012964
C            3.64419480351479       -3.60727345414071        0.16913200537038
C            1.55498278966192       -4.84919014576377        0.39269132495869
C           -1.52476695330343        2.41882021878776        0.10269081695347
C            7.28086354163633       -2.25964930555696       -0.06994660015229
C           -3.60225962815338        1.12627022070659        0.05798950877647
C            5.04669537312161       -3.62316687702815        0.10646265017460
C           -5.71181082359155       -0.10663559928369       -0.15494706672706
C            2.96995987686546       -4.83610445334962        0.32659774786257
C           -7.71089656646211       -1.46748804420600       -0.50849972661886
C            0.86215932782388       -6.06435708087159        0.61246556518252
C            0.66845434801288        1.28324461442619        0.02353289211647
C           -1.40491484756392       -0.02524886818971        0.06836378494618
C            7.25368794332825       -4.71235362643389        0.09570992245560
C           -3.44210850787773       -1.33741033347306       -0.00341225113530
C            5.14096758746118       -6.05638832864501        0.31016676403115
C           -5.64111103871839       -2.71931905434378       -0.30729935490962
C            2.98850975018103       -7.23610924606377        0.64183292430555
C            2.81843089952481        0.10014707032213       -0.02168155764584
C           -5.49963079627160       -5.16693083466192       -0.50994253528078
C            0.75099382792124       -1.18828087568164        0.09153166477718
C           -7.38571251620649       -6.50304244279878       -1.20898905749964
C           -1.32804236078988       -2.49724290357971        0.09916279195087
C            7.50864152863972       -7.14974762518636        0.25546895645371
C           -3.43708532964452       -3.81109730044331       -0.05699827057241
C            4.96185450624157       -1.03102549591892       -0.05420237326567
C           -3.37179187973857       -6.26802067079514        0.09959697929215
C            2.90875420023018       -2.37184272836863        0.10666330108662
C           -5.27607153288475       -7.55419946957741       -0.82966730808626
C            0.82299687676132       -3.64833769750365        0.25985428315447
C           -1.27365626743955       -4.93764599757647        0.33509157333120
H           -3.62784826019697        8.14706938610367        0.69456686146696
H            0.61884707240590        8.33274467018160       -0.13338325341607
H            4.99843720563039        8.68588156990503       -1.23939484104378
H           -5.48979241470799        8.10686124935774        1.75222227868833
H           -1.23831683808568        8.26496863872473        0.40085039044564
H            2.95950120735573        8.52330828955013       -0.37423233412975
H            8.70655596299208        6.40862592899857       -0.41997717584528
H            8.80186399404361        1.44674003011738       -0.25074412361534
H            7.67929861543875        8.57685391573461       -0.63919589840646
H           -8.14161365211127        8.00499482790693        1.08365744244452
H           -9.10097929777110        5.88919199286657        0.42581052474935
H           -9.17570374396716        3.53594227487360       -0.35713608435173
H           -8.89690115748688        0.99328952958689       -0.46048601418642
H            1.12067174499213       -8.17946421235013        0.90468384043259
H            9.02131539252039       -3.55085094663296       -0.05044995348892
H            9.11724849927450       -5.77304685729617        0.10612853209712
H            5.55128959123321       -8.43514885637116        0.28602409731856
H           -6.99907359177426       -8.58416734767572       -1.55790049073843
H            8.94308041002908       -0.89408110903090       -0.18961450214802
H           -3.37655882879895       -8.27188931358724        0.71683963779109
H           -0.89293155987792       -8.19555672695910        1.78355701931866
H           -8.78272087988257       -1.46426111489813       -0.66794520770387
H            3.53205537726104       -8.16006639554904        0.73889496227927
H           -8.42832156922392       -6.57617871996431       -1.48264061708371
H            8.19903224488367       -7.98498749379320        0.28823798234061
H           -4.66085777880346       -8.44097489151747       -0.85020233075181
H            8.94851210451674        4.01767891025994       -0.24782761252048
H           -8.93300107825208       -4.08232985017482       -1.03640685934522
B           -1.33370150583554       -7.35189701990346        1.10294969916993
B            5.99431206745987       -7.35057021992528        0.30080142724323
B            5.76408034955029       -2.30736020148764       -0.01684068253643
B           -4.93754455354452       -1.39671237002801       -0.12635531990383
B           -7.78168968651902       -4.00865001678870       -0.83377933770536
B           -8.02988498133554        3.53434236682798       -0.11299760585395
B            2.68031879928868        5.04614179102290       -0.20746256483076
B            7.77836663374598        3.96829427969453       -0.28843253205141
B            5.53113406169311        7.74141169757497       -0.79788571758319
B           -5.97138368424984        7.23104885099034        1.13866447122364
