      -----------------------------------------------------------      
     |                   =====================                   |     
     |                           x T B                           |     
     |                   =====================                   |     
     |                         S. Grimme                         |     
     |          Mulliken Center for Theoretical Chemistry        |     
     |                    University of Bonn                     |     
      -----------------------------------------------------------      

   * xtb version 6.7.1pre (5071a88) compiled by 'Marcel@Raven' on 2024-07-23

   xtb is free software: you can redistribute it and/or modify it under
   the terms of the GNU Lesser General Public License as published by
   the Free Software Foundation, either version 3 of the License, or
   (at your option) any later version.
   
   xtb is distributed in the hope that it will be useful,
   but WITHOUT ANY WARRANTY; without even the implied warranty of
   MERCHANTABILITY or FITNESS FOR A PARTICULAR PURPOSE.  See the
   GNU Lesser General Public License for more details.
   
   Cite this work as:
   * C. Bannwarth, E. Caldeweyher, S. Ehlert, A. Hansen, P. Pracht,
     J. Seibert, S. Spicher, S. Grimme, WIREs Comput. Mol. Sci., 2020, 11,
     e01493. DOI: 10.1002/wcms.1493
   
   for GFN2-xTB:
   * C. Bannwarth, S. Ehlert and S. Grimme., J. Chem. Theory Comput., 2019,
     15, 1652-1671. DOI: 10.1021/acs.jctc.8b01176
   for GFN1-xTB:
   * S. Grimme, C. Bannwarth, P. Shushkov, J. Chem. Theory Comput., 2017,
     13, 1989-2009. DOI: 10.1021/acs.jctc.7b00118
   for GFN0-xTB:
   * P. Pracht, E. Caldeweyher, S. Ehlert, S. Grimme, ChemRxiv, 2019, preprint.
     DOI: 10.26434/chemrxiv.8326202.v1
   for GFN-FF:
   * S. Spicher and S. Grimme, Angew. Chem. Int. Ed., 2020, 59, 15665-15673.
     DOI: 10.1002/anie.202004239
   
   for ALPB and GBSA implicit solvation:
   * S. Ehlert, M. Stahn, S. Spicher, S. Grimme, J. Chem. Theory Comput.,
     2021, 17, 4250-4261. DOI: 10.1021/acs.jctc.1c00471
   
   for ddCOSMO and CPCM-X implicit solvation:
   * M. Stahn, S. Ehlert, S. Grimme, J. Phys. Chem. A,
     2023, XX, XXXX-XXXX. DOI: 10.1021/acs.jpca.3c04382
   
   for DFT-D4:
   * E. Caldeweyher, C. Bannwarth and S. Grimme, J. Chem. Phys., 2017,
     147, 034112. DOI: 10.1063/1.4993215
   * E. Caldeweyher, S. Ehlert, A. Hansen, H. Neugebauer, S. Spicher,
     C. Bannwarth and S. Grimme, J. Chem. Phys., 2019, 150, 154122.
     DOI: 10.1063/1.5090222
   * E. Caldeweyher, J.-M. Mewes, S. Ehlert and S. Grimme, Phys. Chem. Chem. Phys.
     2020, 22, 8499-8512. DOI: 10.1039/D0CP00502A
   
   for sTDA-xTB:
   * S. Grimme and C. Bannwarth, J. Chem. Phys., 2016, 145, 054103.
     DOI: 10.1063/1.4959605
   
   in the mass-spec context:
   * V. Asgeirsson, C. Bauer and S. Grimme, Chem. Sci., 2017, 8, 4879.
     DOI: 10.1039/c7sc00601b
   * J. Koopman and S. Grimme, ACS Omega 2019, 4, 12, 15120-15133.
     DOI: 10.1021/acsomega.9b02011
   
   for metadynamics refer to:
   * S. Grimme, J. Chem. Theory Comput., 2019, 155, 2847-2862
     DOI: 10.1021/acs.jctc.9b00143
   
   for SPH calculations refer to:
   * S. Spicher and S. Grimme, J. Chem. Theory Comput., 2021, 17, 1701-1714
     DOI: 10.1021/acs.jctc.0c01306
   
   for ONIOM refer to:
   * C. Plett, A. Katbashev, S. Ehlert, S. Grimme, M. Bursch,
     Phys. Chem. Chem. Phys., 2023, 25, 17860-17868. DOI: 10.1039/D3CP02178E
   
   for DIPRO refer to:
   * J. Kohn, N. Gildemeister, S. Grimme, D. Fazzi, A. Hansen,
     J. Chem. Phys., 2023, just accepted.
   
   for PTB refer to:
   * S. Grimme, M. Mueller, A. Hansen, J. Chem. Phys., 2023, 158, 124111.
     DOI: 10.1063/5.0137838
   
   with help from (in alphabetical order)
   P. Atkinson, C. Bannwarth, F. Bohle, G. Brandenburg, E. Caldeweyher
   M. Checinski, S. Dohm, S. Ehlert, S. Ehrlich, I. Gerasimov, C. Hölzer
   A. Katbashev, J. Kohn, J. Koopman, C. Lavigne, S. Lehtola, F. März, M. Müller,
   F. Musil, H. Neugebauer, J. Pisarek, C. Plett, P. Pracht, F. Pultar,
   J. Seibert, P. Shushkov, S. Spicher, M. Stahn, M. Steiner, T. Strunk,
   J. Stückrath, T. Rose, and J. Unsleber
   
 * started run on 2025/12/08 at 00:34:32.491     
   ID    Z sym.   atoms
    1    6 C      1-50
    2    1 H      51-70
    3    5 B      71-74

           -------------------------------------------------
          |                Calculation Setup                |
           -------------------------------------------------

          program call               : xtb "C:\Users\LENOVO GAMING\Documents\GitHub\molecular-conductivity-sim\results\1nm-4Bdoped-5percent\xtbopt.xyz" --sp
          coordinate file            : C:\Users\LENOVO GAMING\Documents\GitHub\molecular-conductivity-sim\results\1nm-4Bdoped-5percent\xtbopt.xyz
          omp threads                :                    16


           -------------------------------------------------
          |                 G F N 2 - x T B                 |
           -------------------------------------------------

        Reference                      10.1021/acs.jctc.8b01176
      * Hamiltonian:
        H0-scaling (s, p, d)           1.850000    2.230000    2.230000
        zeta-weighting                 0.500000
      * Dispersion:
        s8                             2.700000
        a1                             0.520000
        a2                             5.000000
        s9                             5.000000
      * Repulsion:
        kExp                           1.500000    1.000000
        rExp                           1.000000
      * Coulomb:
        alpha                          2.000000
        third order                    shell-resolved
        anisotropic                    true
        a3                             3.000000
        a5                             4.000000
        cn-shift                       1.200000
        cn-exp                         4.000000
        max-rad                        5.000000

q/qsh data taken from xtbrestart
CAMM data taken from xtbrestart

          ...................................................
          :                      SETUP                      :
          :.................................................:
          :  # basis functions                 236          :
          :  # atomic orbitals                 236          :
          :  # shells                          128          :
          :  # electrons                       232          :
          :  max. iterations                   250          :
          :  Hamiltonian                  GFN2-xTB          :
          :  restarted?                       true          :
          :  GBSA solvation                  false          :
          :  PC potential                    false          :
          :  electronic temp.          300.0000000     K    :
          :  accuracy                    1.0000000          :
          :  -> integral cutoff          0.2500000E+02      :
          :  -> integral neglect         0.1000000E-07      :
          :  -> SCF convergence          0.1000000E-05 Eh   :
          :  -> wf. convergence          0.1000000E-03 e    :
          :  Broyden damping             0.4000000          :
          :  net charge                          0          :
          :  unpaired electrons                  0          :
          ...................................................

 iter      E             dE          RMSdq      gap      omega  full diag
   1   -124.7509996 -0.124751E+03  0.111E-05    0.80       0.0  T
   2   -124.7509996  0.120224E-10  0.138E-05    0.80     840.3  T
   3   -124.7509996 -0.196536E-10  0.512E-06    0.80    2270.1  T

   *** convergence criteria satisfied after 3 iterations ***

         #    Occupation            Energy/Eh            Energy/eV
      -------------------------------------------------------------
         1        2.0000           -0.6671065             -18.1529
       ...           ...                  ...                  ...
       110        2.0000           -0.3857488             -10.4968
       111        2.0000           -0.3844983             -10.4627
       112        2.0000           -0.3842115             -10.4549
       113        2.0000           -0.3816971             -10.3865
       114        2.0000           -0.3770378             -10.2597
       115        2.0000           -0.3746357             -10.1944
       116        2.0000           -0.3609110              -9.8209 (HOMO)
       117        0.0000           -0.3316695              -9.0252 (LUMO)
       118                         -0.3012365              -8.1971
       119                         -0.2883012              -7.8451
       120                         -0.2797490              -7.6124
       121                         -0.2637060              -7.1758
       ...                                ...                  ...
       236                          0.7616938              20.7267
      -------------------------------------------------------------
                  HL-Gap            0.0292415 Eh            0.7957 eV
             Fermi-level           -0.3462902 Eh           -9.4230 eV

 SCC (total)                   0 d,  0 h,  0 min,  0.085 sec
 SCC setup                      ...        0 min,  0.001 sec (  1.177%)
 Dispersion                     ...        0 min,  0.003 sec (  3.529%)
 classical contributions        ...        0 min,  0.000 sec (  0.000%)
 integral evaluation            ...        0 min,  0.009 sec ( 10.588%)
 iterations                     ...        0 min,  0.049 sec ( 57.647%)
 molecular gradient             ...        0 min,  0.022 sec ( 25.882%)
 printout                       ...        0 min,  0.001 sec (  1.176%)

         :::::::::::::::::::::::::::::::::::::::::::::::::::::
         ::                     SUMMARY                     ::
         :::::::::::::::::::::::::::::::::::::::::::::::::::::
         :: total energy            -122.407385744904 Eh    ::
         :: gradient norm              0.000608010654 Eh/a0 ::
         :: HOMO-LUMO gap              0.795701561564 eV    ::
         ::.................................................::
         :: SCC energy              -124.753058495278 Eh    ::
         :: -> isotropic ES            0.080180626634 Eh    ::
         :: -> anisotropic ES          0.016020335452 Eh    ::
         :: -> anisotropic XC          0.050494317707 Eh    ::
         :: -> dispersion             -0.135372507149 Eh    ::
         :: repulsion energy           2.345672750374 Eh    ::
         :: add. restraining           0.000000000000 Eh    ::
         :: total charge               0.000000000000 e     ::
         :::::::::::::::::::::::::::::::::::::::::::::::::::::

           -------------------------------------------------
          |                Property Printout                |
           -------------------------------------------------

    * Orbital Energies and Occupations

         #    Occupation            Energy/Eh            Energy/eV
      -------------------------------------------------------------
         1        2.0000           -0.6671065             -18.1529
       ...           ...                  ...                  ...
       104        2.0000           -0.3996353             -10.8746
       105        2.0000           -0.3978174             -10.8252
       106        2.0000           -0.3973815             -10.8133
       107        2.0000           -0.3959508             -10.7744
       108        2.0000           -0.3920031             -10.6669
       109        2.0000           -0.3918661             -10.6632
       110        2.0000           -0.3857488             -10.4968
       111        2.0000           -0.3844983             -10.4627
       112        2.0000           -0.3842115             -10.4549
       113        2.0000           -0.3816971             -10.3865
       114        2.0000           -0.3770378             -10.2597
       115        2.0000           -0.3746357             -10.1944
       116        2.0000           -0.3609110              -9.8209 (HOMO)
       117        0.0000           -0.3316695              -9.0252 (LUMO)
       118                         -0.3012365              -8.1971
       119                         -0.2883012              -7.8451
       120                         -0.2797490              -7.6124
       121                         -0.2637060              -7.1758
       122                         -0.2495990              -6.7919
       123                         -0.2397680              -6.5244
       124                         -0.2341241              -6.3708
       125                         -0.2322370              -6.3195
       126                         -0.2271046              -6.1798
       127                         -0.2188052              -5.9540
       ...                                ...                  ...
       236                          0.7616938              20.7267
      -------------------------------------------------------------
                  HL-Gap            0.0292415 Eh            0.7957 eV
             Fermi-level           -0.3462902 Eh           -9.4230 eV

     #   Z          covCN         q      C6AA      α(0)
     1   6 C        2.909    -0.024    28.598     8.769
     2   6 C        2.917    -0.038    28.955     8.824
     3   6 C        2.819    -0.113    30.848     9.100
     4   6 C        2.888    -0.070    29.753     8.943
     5   6 C        2.974     0.005    27.910     8.666
     6   6 C        2.817    -0.109    30.731     9.083
     7   6 C        2.914    -0.035    28.859     8.809
     8   6 C        2.919    -0.039    28.973     8.827
     9   6 C        2.971     0.005    27.914     8.666
    10   6 C        2.886    -0.068    29.686     8.933
    11   6 C        2.981     0.004    27.921     8.668
    12   6 C        2.981     0.008    27.828     8.653
    13   6 C        2.979     0.018    27.599     8.617
    14   6 C        2.988     0.000    28.009     8.681
    15   6 C        2.985     0.000    28.020     8.683
    16   6 C        2.923    -0.021    28.533     8.760
    17   6 C        2.979     0.009    27.819     8.652
    18   6 C        2.925    -0.027    28.687     8.783
    19   6 C        2.985     0.005    27.909     8.666
    20   6 C        2.973     0.008    27.847     8.656
    21   6 C        2.985     0.002    27.979     8.677
    22   6 C        2.984     0.003    27.953     8.673
    23   6 C        2.985    -0.000    28.024     8.684
    24   6 C        2.929    -0.026    28.655     8.779
    25   6 C        2.888    -0.071    29.778     8.946
    26   6 C        2.979     0.006    27.886     8.662
    27   6 C        2.819    -0.111    30.787     9.091
    28   6 C        2.981     0.002    27.972     8.676
    29   6 C        2.988     0.000    28.019     8.683
    30   6 C        2.903    -0.024    28.593     8.768
    31   6 C        2.889    -0.073    29.816     8.952
    32   6 C        2.974    -0.002    28.070     8.691
    33   6 C        2.986    -0.001    28.034     8.685
    34   6 C        2.981     0.015    27.680     8.630
    35   6 C        2.979     0.012    27.741     8.640
    36   6 C        2.985     0.004    27.935     8.670
    37   6 C        2.891    -0.070    29.751     8.943
    38   6 C        2.924    -0.024    28.611     8.772
    39   6 C        2.979     0.007    27.863     8.659
    40   6 C        2.917    -0.036    28.886     8.813
    41   6 C        2.986     0.001    28.000     8.680
    42   6 C        2.986    -0.001    28.042     8.687
    43   6 C        2.994     0.004    27.920     8.668
    44   6 C        2.910    -0.031    28.770     8.795
    45   6 C        2.930    -0.031    28.770     8.796
    46   6 C        2.982    -0.000    28.029     8.684
    47   6 C        2.909    -0.024    28.606     8.770
    48   6 C        2.983     0.002    27.964     8.674
    49   6 C        2.987     0.004    27.917     8.667
    50   6 C        2.983     0.004    27.928     8.669
    51   1 H        0.925     0.024     2.675     2.558
    52   1 H        0.926     0.049     2.337     2.391
    53   1 H        0.926     0.036     2.498     2.472
    54   1 H        0.926     0.037     2.495     2.470
    55   1 H        0.925     0.035     2.512     2.479
    56   1 H        0.925     0.020     2.740     2.588
    57   1 H        0.939    -0.109     5.867     3.787
    58   1 H        0.926     0.037     2.493     2.469
    59   1 H        0.926     0.031     2.577     2.511
    60   1 H        0.939    -0.110     5.928     3.807
    61   1 H        0.926     0.050     2.319     2.381
    62   1 H        0.925     0.018     2.770     2.603
    63   1 H        0.925     0.020     2.730     2.584
    64   1 H        0.926     0.039     2.457     2.451
    65   1 H        0.926     0.030     2.580     2.512
    66   1 H        0.925     0.038     2.475     2.460
    67   1 H        0.925     0.038     2.482     2.464
    68   1 H        0.925     0.024     2.669     2.555
    69   1 H        0.939    -0.104     5.702     3.733
    70   1 H        0.939    -0.105     5.722     3.740
    71   5 B        2.756     0.209    18.190     7.136
    72   5 B        2.755     0.212    18.156     7.130
    73   5 B        2.755     0.211    18.170     7.133
    74   5 B        2.758     0.211    18.166     7.131

 Mol. C6AA /au·bohr⁶  :     101759.452777
 Mol. C8AA /au·bohr⁸  :    2770964.486442
 Mol. α(0) /au        :        521.166408


Wiberg/Mayer (AO) data.
largest (>0.10) Wiberg bond orders for each atom

 ---------------------------------------------------------------------------
     #   Z sym  total        # sym  WBO       # sym  WBO       # sym  WBO
 ---------------------------------------------------------------------------
     1   6 C    3.973 --     3 C    1.720     5 C    1.154    51 H    0.964
     2   6 C    3.953 --     7 C    1.633    13 C    1.211    61 H    0.958
     3   6 C    3.932 --     1 C    1.720    73 B    1.111    62 H    0.973
     4   6 C    3.861 --    13 C    1.337    19 C    1.278    73 B    1.046
     5   6 C    3.937 --    24 C    1.398    19 C    1.233     1 C    1.154
     6   6 C    3.905 --    30 C    1.710    71 B    1.106    63 H    0.973
     7   6 C    3.973 --     2 C    1.633    35 C    1.218    64 H    0.955
     8   6 C    3.956 --    40 C    1.588    34 C    1.247    52 H    0.959
     9   6 C    3.916 --    35 C    1.303    36 C    1.254    30 C    1.169
    10   6 C    3.917 --    38 C    1.486    36 C    1.229    71 B    1.044
    11   6 C    3.974 --    39 C    1.279    37 C    1.267    32 C    1.207
    12   6 C    3.962 --    33 C    1.305    40 C    1.259    39 C    1.184
    13   6 C    3.973 --     4 C    1.337    41 C    1.222     2 C    1.211
    14   6 C    3.972 --    41 C    1.266    42 C    1.253    35 C    1.229
    15   6 C    3.974 --    36 C    1.259    42 C    1.247    43 C    1.246
    16   6 C    3.966 --    37 C    1.438    44 C    1.377    53 H    0.969
    17   6 C    3.956 --    38 C    1.284    45 C    1.265    43 C    1.250
    18   6 C    3.976 --    44 C    1.502    39 C    1.311    54 H    0.959
                            37 C    0.100
    19   6 C    3.980 --     4 C    1.278    46 C    1.239     5 C    1.233
    20   6 C    3.961 --    45 C    1.486    50 C    1.176    47 C    1.146
    21   6 C    3.980 --    41 C    1.256    46 C    1.256    48 C    1.235
    22   6 C    3.959 --    48 C    1.287    42 C    1.243    49 C    1.211
    23   6 C    3.970 --    49 C    1.270    43 C    1.239    50 C    1.239
    24   6 C    3.976 --     5 C    1.398    31 C    1.377    55 H    0.965
    25   6 C    3.878 --    50 C    1.338    34 C    1.280    72 B    1.054
    26   6 C    3.978 --    31 C    1.292    46 C    1.254    32 C    1.195
    27   6 C    3.935 --    47 C    1.733    72 B    1.102    56 H    0.972
    28   6 C    3.979 --    32 C    1.325    48 C    1.217    33 C    1.206
    29   6 C    3.974 --    49 C    1.262    34 C    1.243    33 C    1.242
    30   6 C    3.978 --     6 C    1.710     9 C    1.169    65 H    0.955
    31   6 C    3.901 --    24 C    1.377    26 C    1.292    74 B    1.074
    32   6 C    3.952 --    28 C    1.325    11 C    1.207    26 C    1.195
    33   6 C    3.983 --    12 C    1.305    29 C    1.242    28 C    1.206
    34   6 C    3.970 --    25 C    1.280     8 C    1.247    29 C    1.243
    35   6 C    3.973 --     9 C    1.303    14 C    1.229     7 C    1.218
    36   6 C    3.962 --    15 C    1.259     9 C    1.254    10 C    1.229
    37   6 C    3.949 --    16 C    1.438    11 C    1.267    74 B    1.065
                            18 C    0.100
    38   6 C    3.950 --    10 C    1.486    17 C    1.284    66 H    0.966
    39   6 C    3.967 --    18 C    1.311    11 C    1.279    12 C    1.184
    40   6 C    3.975 --     8 C    1.588    12 C    1.259    58 H    0.958
    41   6 C    3.966 --    14 C    1.266    21 C    1.256    13 C    1.222
    42   6 C    3.979 --    14 C    1.253    15 C    1.247    22 C    1.243
    43   6 C    3.982 --    17 C    1.250    15 C    1.246    23 C    1.239
    44   6 C    3.974 --    18 C    1.502    16 C    1.377    59 H    0.970
    45   6 C    3.972 --    20 C    1.486    17 C    1.265    67 H    0.964
    46   6 C    3.974 --    21 C    1.256    26 C    1.254    19 C    1.239
    47   6 C    3.975 --    27 C    1.733    20 C    1.146    68 H    0.964
    48   6 C    3.960 --    22 C    1.287    21 C    1.235    28 C    1.217
    49   6 C    3.982 --    23 C    1.270    29 C    1.262    22 C    1.211
    50   6 C    3.973 --    25 C    1.338    23 C    1.239    20 C    1.176
    51   1 H    0.999 --     1 C    0.964
    52   1 H    0.996 --     8 C    0.959
    53   1 H    0.998 --    16 C    0.969
    54   1 H    0.998 --    18 C    0.959
    55   1 H    0.998 --    24 C    0.965
    56   1 H    0.998 --    27 C    0.972
    57   1 H    0.988 --    72 B    0.963
    58   1 H    0.998 --    40 C    0.958
    59   1 H    0.998 --    44 C    0.970
    60   1 H    0.987 --    73 B    0.962
    61   1 H    0.996 --     2 C    0.958
    62   1 H    0.998 --     3 C    0.973
    63   1 H    0.998 --     6 C    0.973
    64   1 H    0.997 --     7 C    0.955
    65   1 H    0.998 --    30 C    0.955
    66   1 H    0.997 --    38 C    0.966
    67   1 H    0.997 --    45 C    0.964
    68   1 H    0.999 --    47 C    0.964
    69   1 H    0.989 --    71 B    0.971
    70   1 H    0.988 --    74 B    0.970
    71   5 B    3.329 --     6 C    1.106    10 C    1.044    69 H    0.971
    72   5 B    3.339 --    27 C    1.102    25 C    1.054    57 H    0.963
    73   5 B    3.336 --     3 C    1.111     4 C    1.046    60 H    0.962
    74   5 B    3.340 --    31 C    1.074    37 C    1.065    70 H    0.970
 ---------------------------------------------------------------------------

Topologies differ in total number of bonds
Writing topology from bond orders to xtbtopo.mol

molecular dipole:
                 x           y           z       tot (Debye)
 q only:       -0.035      -0.421      -0.000
   full:       -0.039      -0.517       0.000       1.318
molecular quadrupole (traceless):
                xx          xy          yy          xz          yz          zz
 q only:       -2.093       8.566       2.066      -0.002      -0.002       0.028
  q+dip:       11.848       8.490      12.124      -0.003      -0.004     -23.972
   full:       -1.518       8.018      -0.570      -0.003      -0.004       2.088


           -------------------------------------------------
          | TOTAL ENERGY             -122.407385744904 Eh   |
          | GRADIENT NORM               0.000608010654 Eh/α |
          | HOMO-LUMO GAP               0.795701561564 eV   |
           -------------------------------------------------

------------------------------------------------------------------------
 * finished run on 2025/12/08 at 00:34:32.626     
------------------------------------------------------------------------
 total:
 * wall-time:     0 d,  0 h,  0 min,  0.132 sec
 *  cpu-time:     0 d,  0 h,  0 min,  1.547 sec
 * ratio c/w:    11.719 speedup
 SCF:
 * wall-time:     0 d,  0 h,  0 min,  0.086 sec
 *  cpu-time:     0 d,  0 h,  0 min,  0.969 sec
 * ratio c/w:    11.265 speedup

normal termination of xtb
