74
 energy: -122.407385744900 gnorm: 0.000608092546 xtb: 6.7.1pre (5071a88)
C           -5.77824087859521        3.62670569603449       -0.00024254377599
C           -0.73265794941073        4.88178758247089       -0.00093681145270
C           -5.23152922522366        4.85874185405962       -0.00052993042061
C           -2.88410026793279        3.69276205992496       -0.00054669924460
C           -4.98667936691075        2.42875991042951       -0.00010946609812
C            4.86842745369333        5.08142652620139        0.00101649129934
C            0.61765509501828        4.89872227216947       -0.00073941878523
C            0.76201523152365       -4.86982994343473       -0.00105515537472
C            2.80099310402306        3.72511202006172        0.00026874220309
C            4.94261274136804        2.50400221900053        0.00077265418249
C           -3.52744801678292       -2.53075656503476        0.00037475735363
C           -1.36040835883486       -3.70671806671462       -0.00023560824207
C           -1.47799171369522        3.67200560101985       -0.00058813083905
C            0.67416554187709        2.47056150644298       -0.00016599908956
C            2.80372414691105        1.26918734671977        0.00019047809971
C           -5.57885596869980       -3.83360713102264        0.00111209430243
C            4.92836236850087        0.06452149101508        0.00041106984246
C           -3.48686790313039       -4.96501111425301        0.00078722777712
C           -3.56514385179684        2.44843895047504       -0.00025656295608
C            5.00272088302683       -2.36607729739384       -0.00005299963272
C           -1.43961218195647        1.21735238035641       -0.00016650456845
C            0.68980143773381        0.01130689033171       -0.00007492122528
C            2.83510568004370       -1.19948209002827       -0.00008757782337
C           -5.63775450173361        1.20809782920732        0.00019425336459
C            2.90472136409968       -3.66254453196269       -0.00061206479982
C           -3.55842615395497       -0.02656618604726        0.00010957361578
C            5.26880649014560       -4.79388721274353       -0.00058617836391
C           -1.42908504157712       -1.24988595800000       -0.00002552063842
C            0.73674724618506       -2.44670679125711       -0.00034980260793
C            3.52031099264689        4.97295106701366        0.00062220079283
C           -4.97281946237549       -0.01440175301234        0.00030590394335
C           -2.83816423565072       -1.27050146604339        0.00013451811115
C           -0.68560986283425       -2.47141513049552       -0.00019537554434
C            1.48596059322284       -3.65589607520988       -0.00066352497398
C            1.38912523222254        3.70434572513140       -0.00019054559678
C            3.51417376394538        2.49762196182541        0.00042206481825
C           -4.94815417997914       -2.59804824785645        0.00073552842671
C            5.60229390881334        1.29496245363630        0.00075064539746
C           -2.79134855777111       -3.74102168631348        0.00028320821246
C           -0.59367249137945       -4.89296219553990       -0.00084104284645
C           -0.74275653032918        2.45125660349030       -0.00031247232926
C            1.38693543793071        1.24812971164223       -0.00000336214222
C            3.51570248121774        0.04439045780946        0.00017826399821
C           -4.85665841292843       -5.01878615691483        0.00120311985543
C            5.63742864191796       -1.14916495543479        0.00030136479126
C           -2.85644165525503        1.21005022671616       -0.00011821809310
C            5.80614037565925       -3.55919285159150       -0.00020470182117
C           -0.72232777160831       -0.00944593016967       -0.00008587225672
C            1.42240017264125       -1.21178924306917       -0.00016448195579
C            3.56739177528311       -2.42095679458662       -0.00024936807183
H           -6.85285090993815        3.47821903218648       -0.00009856399340
H            1.30156229062042       -5.79933824633256       -0.00151792588793
H           -6.65857542738294       -3.86485971171117        0.00138306958460
H           -2.94531166953538       -5.89617434140537        0.00092756255302
H           -6.71927223576421        1.19675330276651        0.00034467185909
H            5.94744434484326       -5.63849409348378       -0.00069410163973
H            3.30019566304712       -6.04591068815965       -0.00125240546611
H           -1.08113602079852       -5.85310103889961       -0.00120776515145
H           -5.36439752476610       -5.97227785107562        0.00159670186566
H           -3.24669730236920        6.08229635668586       -0.00095919128004
H           -1.26634914090944        5.81467371355633       -0.00136662471249
H           -5.90244291044249        5.70949777887020       -0.00061705134842
H            5.27851067947890        6.08460194991891        0.00128017334256
H            1.10674218354167        5.85791725089351       -0.00107131642472
H            2.93473689205561        5.88040980111891        0.00063332259483
H            6.68350077204707        1.28441673837468        0.00097986128032
H            6.71856030947900       -1.10839349743028        0.00048053296433
H            6.87947572793989       -3.40236395536739       -0.00000856970483
H            6.90636777601060        3.84518873111704        0.00148998683100
H           -6.94867300129101       -1.32281625439911        0.00090064366789
B            5.73531489969479        3.82965559115328        0.00111451177298
B            3.75102152826105       -4.96541622447783       -0.00087400906766
B           -3.71453666175034        5.00890920115482       -0.00072029929588
B           -5.77781288137620       -1.31273551410980        0.00067948683888
