74
 energy: -122.398991449720 gnorm: 0.054699550022 xtb: 6.7.1pre (5071a88)
C           -5.81108300000000        3.65584900000000       -0.00024000000000
C           -0.73855800000000        4.92317400000000       -0.00091900000000
C           -5.25912500000000        4.90060100000000       -0.00053800000000
C           -2.90503000000000        3.71392000000000       -0.00054100000000
C           -5.02420700000000        2.44112900000000       -0.00010500000000
C            4.90338500000000        5.12108300000000        0.00095700000000
C            0.61774700000000        4.94027800000000       -0.00072200000000
C            0.76959500000000       -4.91195900000000       -0.00102300000000
C            2.81257800000000        3.75167000000000        0.00029000000000
C            4.96841900000000        2.52223000000000        0.00077200000000
C           -3.54765800000000       -2.55207200000000        0.00036400000000
C           -1.36581700000000       -3.73758200000000       -0.00025400000000
C           -1.49035900000000        3.70077900000000       -0.00059400000000
C            0.67692300000000        2.48595800000000       -0.00019600000000
C            2.81781500000000        1.27945200000000        0.00019200000000
C           -5.61929800000000       -3.85488100000000        0.00111600000000
C            4.95981400000000        0.06804700000000        0.00042900000000
C           -3.51379500000000       -5.00169900000000        0.00077900000000
C           -3.59183900000000        2.45916000000000       -0.00025900000000
C            5.03979900000000       -2.37872900000000       -0.00003300000000
C           -1.45003800000000        1.22712000000000       -0.00020800000000
C            0.69189400000000        0.01040600000000       -0.00010100000000
C            2.85385400000000       -1.20464800000000       -0.00007400000000
C           -5.67828900000000        1.21413600000000        0.00021100000000
C            2.92767100000000       -3.68302200000000       -0.00060300000000
C           -3.58318100000000       -0.02955800000000        0.00009000000000
C            5.30419200000000       -4.83201600000000       -0.00060300000000
C           -1.43742000000000       -1.26316000000000       -0.00007300000000
C            0.74486100000000       -2.46723900000000       -0.00034600000000
C            3.54406600000000        5.01214800000000        0.00059000000000
C           -5.00664900000000       -0.01644500000000        0.00031500000000
C           -2.85299800000000       -1.28364200000000        0.00010200000000
C           -0.68849400000000       -2.49333300000000       -0.00022900000000
C            1.49956500000000       -3.68677400000000       -0.00063700000000
C            1.39528800000000        3.73330200000000       -0.00018700000000
C            3.53033800000000        2.51448700000000        0.00042500000000
C           -4.98064900000000       -2.61411800000000        0.00074000000000
C            5.63637100000000        1.30790500000000        0.00075600000000
C           -2.80569400000000       -3.76967800000000        0.00027500000000
C           -0.59263100000000       -4.93483500000000       -0.00082000000000
C           -0.74918500000000        2.46829000000000       -0.00034300000000
C            1.39339900000000        1.25785000000000       -0.00002800000000
C            3.53905100000000        0.04897500000000        0.00019300000000
C           -4.89282600000000       -5.05317600000000        0.00119700000000
C            5.67489300000000       -1.15535400000000        0.00030900000000
C           -2.87537300000000        1.21522500000000       -0.00014200000000
C            5.84505000000000       -3.58448500000000       -0.00020900000000
C           -0.72604100000000       -0.00958600000000       -0.00013100000000
C            1.43350100000000       -1.22447900000000       -0.00016600000000
C            3.59260800000000       -2.43233700000000       -0.00023100000000
H           -6.89264500000000        3.51361800000000       -0.00008200000000
H            1.31371200000000       -5.84631300000000       -0.00151100000000
H           -6.70588300000000       -3.88429800000000        0.00139000000000
H           -2.97008200000000       -5.93768100000000        0.00094200000000
H           -6.76627700000000        1.20495900000000        0.00038800000000
H            5.98621100000000       -5.68139200000000       -0.00072500000000
H            3.29348500000000       -6.07042900000000       -0.00126600000000
H           -1.08414700000000       -5.89872100000000       -0.00120400000000
H           -5.40201200000000       -6.01211800000000        0.00159700000000
H           -3.23170100000000        6.10813800000000       -0.00094500000000
H           -1.27636700000000        5.86076200000000       -0.00132300000000
H           -5.93303600000000        5.75653400000000       -0.00062700000000
H            5.31553100000000        6.12935000000000        0.00116900000000
H            1.11028900000000        5.90279500000000       -0.00105000000000
H            2.95511300000000        5.92263600000000        0.00057500000000
H            6.72398400000000        1.30046100000000        0.00099400000000
H            6.76166100000000       -1.11700800000000        0.00046800000000
H            6.92447400000000       -3.43003100000000       -0.00001800000000
H            6.94803800000000        3.84842000000000        0.00168100000000
H           -6.99080600000000       -1.33358600000000        0.00094200000000
B            5.74874500000000        3.85168100000000        0.00115000000000
B            3.78491300000000       -4.97995800000000       -0.00087000000000
B           -3.74163700000000        5.02610700000000       -0.00071200000000
B           -5.79165800000000       -1.32309000000000        0.00069600000000
74
 energy: -122.406090324223 gnorm: 0.019555137481 xtb: 6.7.1pre (5071a88)
C           -5.79199782994057        3.64054919556426       -0.00023581162741
C           -0.73332332544408        4.89606010473896       -0.00091332969942
C           -5.24503394259391        4.87565761408159       -0.00053205005761
C           -2.89322654609812        3.70143081854848       -0.00054327978679
C           -5.00275235304743        2.43563200754074       -0.00010433001447
C            4.88511150302791        5.09633847677613        0.00096637009317
C            0.61794611686433        4.91330662517718       -0.00071974284979
C            0.76378758170050       -4.88521943368462       -0.00103203537336
C            2.80754628000598        3.73657506070020        0.00026453391367
C            4.95380376023628        2.51162921418112        0.00077844726495
C           -3.53718415754989       -2.54153924598841        0.00036015540782
C           -1.36448265875529       -3.71955778949444       -0.00023937360383
C           -1.48405959580154        3.68312351735003       -0.00058695316078
C            0.67589273018247        2.47685050051492       -0.00018268567958
C            2.81039306517631        1.27365647244672        0.00018754428907
C           -5.59638458821564       -3.84307747999227        0.00110708685157
C            4.94174065265877        0.06588112706707        0.00041809834304
C           -3.50258194956802       -4.97997820671198        0.00077952312935
C           -3.57669753653021        2.45290090090329       -0.00026330716574
C            5.01925607333282       -2.37180340006602       -0.00004399743992
C           -1.44457915052684        1.22150019147149       -0.00019836343943
C            0.69010832645953        0.01048522596583       -0.00009755313825
C            2.84368874872163       -1.20166532837901       -0.00007814728754
C           -5.65424105609419        1.21291530613089        0.00020838364123
C            2.91543998122580       -3.67091659254335       -0.00059215179566
C           -3.57031060434558       -0.02742446537301        0.00009224924197
C            5.28708395596010       -4.80790354648144       -0.00059954644909
C           -1.43440157006937       -1.25616961326609       -0.00005734877619
C            0.74023216734529       -2.45556625231688       -0.00035017825502
C            3.53440010297627        4.98854755358480        0.00058754451188
C           -4.98809965979947       -0.01356567134666        0.00030937938084
C           -2.84621767563582       -1.27704765385341        0.00011078243555
C           -0.68791976561144       -2.48115104115522       -0.00021095145044
C            1.49258105673640       -3.66846594483373       -0.00064673240465
C            1.39396492086630        3.71583290280329       -0.00019226821586
C            3.52161940026698        2.50470382913781        0.00042050858068
C           -4.96321154120250       -2.60657605556150        0.00073189179049
C            5.61541118799369        1.30062465097117        0.00075551990078
C           -2.79925192170023       -3.75422902247198        0.00027229924344
C           -0.59332706264180       -4.90855095341312       -0.00082518351015
C           -0.74561875187632        2.45813940610893       -0.00033202705321
C            1.38992038999592        1.25212485120188       -0.00002162719173
C            3.52651961184642        0.04644163611962        0.00018386885264
C           -4.87403016211987       -5.03187194661353        0.00119385261877
C            5.65274521698412       -1.15228928799704        0.00030471148755
C           -2.86527228953927        1.21220268513873       -0.00013933391188
C            5.82363625260914       -3.56976508669679       -0.00020876904056
C           -0.72426552304658       -0.00988999818298       -0.00012127194753
C            1.42753919253180       -1.21782117130329       -0.00016958212563
C            3.57854277161395       -2.42558830063185       -0.00023344327668
H           -6.86975686796770        3.49850960181295       -0.00008754724242
H            1.30338420650962       -5.81732584499731       -0.00148654290926
H           -6.67839093145519       -3.87560969059268        0.00138265942453
H           -2.96284981544057       -5.91435341480704        0.00092425318578
H           -6.73822927524722        1.20237641534763        0.00037530525653
H            5.96920740699822       -5.65228543778200       -0.00071852065382
H            3.31113881975265       -6.05761445362925       -0.00126123831228
H           -1.08212519305579       -5.87050467793929       -0.00118539369423
H           -5.38360210039992       -5.98672058352496        0.00158447117619
H           -3.25284464265928        6.09512349799616       -0.00094222057345
H           -1.26649135039509        5.83157126305595       -0.00132427917792
H           -5.91901352091616        5.72648913433028       -0.00062207440144
H            5.29603137068161        6.10113559909499        0.00117212655841
H            1.10817660783833        5.87408738409980       -0.00103511588154
H            2.94903001118107        5.89806341803425        0.00057916067781
H            6.69877041622927        1.29338152594204        0.00098451413465
H            6.73607300299066       -1.11257929469635        0.00047326618667
H            6.89962745979125       -3.41663457063080       -0.00001686071071
H            6.92473946906628        3.85046468225790        0.00163447140806
H           -6.96623127165714       -1.32998757385930        0.00093324707888
B            5.74371304737057        3.83844868637367        0.00116268054722
B            3.76932219308003       -4.97102387266741       -0.00086152446093
B           -3.72862993419535        5.01598722820417       -0.00071076635067
B           -5.78514393766488       -1.31727240728988        0.00069055348367
74
 energy: -122.407364988783 gnorm: 0.003825455145 xtb: 6.7.1pre (5071a88)
C           -5.77921354571132        3.62871400668037       -0.00023802864974
C           -0.73272726124424        4.88122790349373       -0.00091560805998
C           -5.23260710623988        4.86011046783767       -0.00052881196368
C           -2.88515829520224        3.69297768823063       -0.00054542806647
C           -4.98860758353050        2.42987017484772       -0.00010636997710
C            4.87011878449541        5.08190526019087        0.00097359673953
C            0.61736470256334        4.89836123015197       -0.00072005900892
C            0.76219872054106       -4.87008664961702       -0.00103098444299
C            2.80176475403866        3.72625342228455        0.00026298101962
C            4.94355751181492        2.50469969794202        0.00077911700549
C           -3.52878875906791       -2.53279252401370        0.00036413432528
C           -1.36147946600939       -3.70772298936442       -0.00023645250456
C           -1.47948552170051        3.67204118074320       -0.00058631228575
C            0.67441460939501        2.47081526801930       -0.00017502644911
C            2.80454861777357        1.26970729246859        0.00018589027073
C           -5.58083656689809       -3.83436093946835        0.00110451578747
C            4.92962414954371        0.06479600123376        0.00041183521607
C           -3.48965657312967       -4.96623883885866        0.00077403273925
C           -3.56663764888811        2.44845583957873       -0.00026103865435
C            5.00506982011083       -2.36618231511551       -0.00004773944852
C           -1.44039424453270        1.21751766192846       -0.00018471845554
C            0.68934976000310        0.01083021415838       -0.00008867324743
C            2.83626407176392       -1.19961752617096       -0.00008476624313
C           -5.63914300946705        1.20945362589053        0.00020199853447
C            2.90646470320305       -3.66295540105490       -0.00060120628512
C           -3.56044167591196       -0.02667822422906        0.00009765139036
C            5.27200586410014       -4.79369478702155       -0.00059235640012
C           -1.43054097751625       -1.25090314324419       -0.00004272781314
C            0.73731578635396       -2.44766183297160       -0.00035026355477
C            3.52255518810718        4.97395402607092        0.00058703298610
C           -4.97482595647608       -0.01359739292579        0.00030626883804
C           -2.83971680352494       -1.27175417655702        0.00011958615723
C           -0.68626423973400       -2.47258416493044       -0.00020357625803
C            1.48747456493154       -3.65673754571349       -0.00065191473263
C            1.39043843944033        3.70485827779014       -0.00018987681606
C            3.51481571162862        2.49837436331568        0.00042095853729
C           -4.95025153228732       -2.59948970990012        0.00072880361754
C            5.60267903674185        1.29568731019202        0.00075351176539
C           -2.79261342870626       -3.74277580550794        0.00027435937432
C           -0.59345241535115       -4.89335119337165       -0.00082202210185
C           -0.74331214593971        2.45148166772200       -0.00032283714474
C            1.38711900848912        1.24831599940917       -0.00001532341688
C            3.51723432069072        0.04476811017950        0.00017832364927
C           -4.85892393254152       -5.01917050371598        0.00118926717121
C            5.63866635689656       -1.14924540843690        0.00030276035676
C           -2.85784438979239        1.20992992672877       -0.00013162744110
C            5.80856402704188       -3.55935781864437       -0.00020708572503
C           -0.72258440226341       -0.00981465654946       -0.00010540280109
C            1.42314864764588       -1.21277437552119       -0.00016900413622
C            3.56889540058197       -2.42110606319428       -0.00024147355930
H           -6.85450825621398        3.48365696873653       -0.00009048770182
H            1.30170027925552       -5.80009877051979       -0.00148387790293
H           -6.66063696516268       -3.86726369749818        0.00137878463737
H           -2.94902535946928       -5.89835600337518        0.00090966751330
H           -6.72084198180011        1.19804925929401        0.00036457878075
H            5.95236355726667       -5.63691777849134       -0.00070828868984
H            3.30223292035981       -6.04558726052846       -0.00125310268835
H           -1.08214043073267       -5.85341584506021       -0.00117549876810
H           -5.36797905185365       -5.97217137998108        0.00158188883860
H           -3.24530188238917        6.08192326623860       -0.00094581477753
H           -1.26634259482477        5.81458964961490       -0.00132675661931
H           -5.90476589771606        5.70981814817305       -0.00061710924059
H            5.28087096945962        6.08480821419929        0.00120892035063
H            1.10761313056402        5.85748243141981       -0.00103113893147
H            2.93684164543223        5.88174402118776        0.00057661850249
H            6.68388989193901        1.28707987414258        0.00098350939933
H            6.71995554891219       -1.10848844173111        0.00047641330536
H            6.88241016534582       -3.40455472328361       -0.00001522837706
H            6.90743807344171        3.84626153608037        0.00158742972021
H           -6.94975948513289       -1.32490716185303        0.00092099479863
B            5.73754594386787        3.83025517718567        0.00114185274489
B            3.75369305710705       -4.96643270685069       -0.00086755372079
B           -3.71513287647945        5.01041826678456       -0.00071456580544
B           -5.77992047740655       -1.31314267487457        0.00068485479362
74
 energy: -122.407383594870 gnorm: 0.001578941283 xtb: 6.7.1pre (5071a88)
C           -5.77837995075078        3.62736134518872       -0.00023921846811
C           -0.73229667308957        4.88132549297276       -0.00092214809258
C           -5.23175498815474        4.85920245326271       -0.00052926886539
C           -2.88432537675062        3.69272814439443       -0.00054620647411
C           -4.98728550886001        2.42907697270822       -0.00010760398088
C            4.86864064013091        5.08146209393715        0.00099114755034
C            0.61782315506245        4.89822714775454       -0.00072588531821
C            0.76187620473965       -4.86979462062475       -0.00103987591360
C            2.80112119746047        3.72529991211197        0.00026184305417
C            4.94278670045344        2.50415365597640        0.00077723585788
C           -3.52782875177623       -2.53144147325700        0.00036760623684
C           -1.36082534555596       -3.70685111014987       -0.00023568884461
C           -1.47844641113861        3.67190041481527       -0.00058668220649
C            0.67426906825292        2.47040342419441       -0.00017118697519
C            2.80393504494516        1.26927222963999        0.00018770633846
C           -5.57943993723110       -3.83368915282427        0.00110679832036
C            4.92867766319645        0.06464010293415        0.00041115619735
C           -3.48758456228608       -4.96536001820524        0.00077767226909
C           -3.56556949518439        2.44834672039836       -0.00025986030508
C            5.00351861364782       -2.36592508147438       -0.00005076586086
C           -1.43982090101620        1.21736450455711       -0.00017720659201
C            0.68953110940808        0.01103173976652       -0.00008364835607
C            2.83542037738706       -1.19953953165045       -0.00008679215140
C           -5.63811360906470        1.20856953593339        0.00019939050893
C            2.90528064991870       -3.66260428199697       -0.00060583709062
C           -3.55912052663434       -0.02660266877647        0.00010261297578
C            5.26996530328905       -4.79358058860042       -0.00059218255445
C           -1.42965356265874       -1.25020445345952       -0.00003568062748
C            0.73693252221329       -2.44701817657696       -0.00035031755552
C            3.52076160377243        4.97314208050228        0.00059784054837
C           -4.97342352535679       -0.01408642029320        0.00030627918881
C           -2.83865145349486       -1.27093402986758        0.00012567522592
C           -0.68586719316031       -2.47172428221693       -0.00019998359526
C            1.48647173278034       -3.65617501725177       -0.00065724533519
C            1.38970802279559        3.70419221590912       -0.00019171306874
C            3.51426431500833        2.49774415723858        0.00042035597652
C           -4.94882401414033       -2.59843583273093        0.00073093616447
C            5.60223474262456        1.29517496784911        0.00075225700910
C           -2.79170439440616       -3.74151453992797        0.00027707295841
C           -0.59375342954627       -4.89288541026537       -0.00082820590630
C           -0.74290608242999        2.45119976791433       -0.00031827906496
C            1.38692786022554        1.24803516032662       -0.00001051409119
C            3.51619079864386        0.04449632740457        0.00017780846230
C           -4.85719969961540       -5.01877890300992        0.00119393625438
C            5.63772773480157       -1.14907988876408        0.00030183882766
C           -2.85687920650916        1.20994626528719       -0.00012624153351
C            5.80693789054902       -3.55896117831259       -0.00020770932387
C           -0.72235293172823       -0.00959353295373       -0.00009762590440
C            1.42262152676439       -1.21220845127588       -0.00016776600840
C            3.56781998480204       -2.42095160606440       -0.00024562812371
H           -6.85328658174835        3.48051998170676       -0.00009380026625
H            1.30128542342838       -5.79956002347506       -0.00149280152595
H           -6.65919921399158       -3.86586116306781        0.00137972580591
H           -2.94619521415549       -5.89685982473952        0.00091307323895
H           -6.71971462094222        1.19714068598053        0.00035664299263
H            5.94942910035032       -5.63751891776834       -0.00070254694343
H            3.30133555133751       -6.04582437831989       -0.00125516615404
H           -1.08215996327535       -5.85279470890803       -0.00118410556097
H           -5.36561241366189       -5.97199938724538        0.00158499260276
H           -3.24678875067520        6.08232751853033       -0.00095097193837
H           -1.26566280855674        5.81449195091818       -0.00134049037637
H           -5.90322732944305        5.70948794380643       -0.00061658349283
H            5.27912901251088        6.08447686905916        0.00122630394932
H            1.10782901324638        5.85719956347510       -0.00104250718696
H            2.93477168570143        5.88057300497229        0.00059490444645
H            6.68344980128609        1.28561886392481        0.00098418919926
H            6.71892200626957       -1.10825263854364        0.00047885068750
H            6.88049043259947       -3.40304923988283       -0.00001206323815
H            6.90650301093133        3.84563446356091        0.00154316866419
H           -6.94905220305264       -1.32362561590158        0.00091310356597
B            5.73603220267390        3.82982034283542        0.00114860754764
B            3.75195766452811       -4.96582239904608       -0.00086407570971
B           -3.71461801594203        5.00950198858617       -0.00071594194694
B           -5.77870972175239       -1.31277846290518        0.00068328990244
74
 energy: -122.407385744510 gnorm: 0.000608805370 xtb: 6.7.1pre (5071a88)
C           -5.77824087859521        3.62670569603449       -0.00024254377599
C           -0.73265794941073        4.88178758247089       -0.00093681145270
C           -5.23152922522366        4.85874185405962       -0.00052993042061
C           -2.88410026793279        3.69276205992496       -0.00054669924460
C           -4.98667936691075        2.42875991042951       -0.00010946609812
C            4.86842745369333        5.08142652620139        0.00101649129934
C            0.61765509501828        4.89872227216947       -0.00073941878523
C            0.76201523152365       -4.86982994343473       -0.00105515537472
C            2.80099310402306        3.72511202006172        0.00026874220309
C            4.94261274136804        2.50400221900053        0.00077265418249
C           -3.52744801678292       -2.53075656503476        0.00037475735363
C           -1.36040835883486       -3.70671806671462       -0.00023560824207
C           -1.47799171369522        3.67200560101985       -0.00058813083905
C            0.67416554187709        2.47056150644298       -0.00016599908956
C            2.80372414691105        1.26918734671977        0.00019047809971
C           -5.57885596869980       -3.83360713102264        0.00111209430243
C            4.92836236850087        0.06452149101508        0.00041106984246
C           -3.48686790313039       -4.96501111425301        0.00078722777712
C           -3.56514385179684        2.44843895047504       -0.00025656295608
C            5.00272088302683       -2.36607729739384       -0.00005299963272
C           -1.43961218195647        1.21735238035641       -0.00016650456845
C            0.68980143773381        0.01130689033171       -0.00007492122528
C            2.83510568004370       -1.19948209002827       -0.00008757782337
C           -5.63775450173361        1.20809782920732        0.00019425336459
C            2.90472136409968       -3.66254453196269       -0.00061206479982
C           -3.55842615395497       -0.02656618604726        0.00010957361578
C            5.26880649014560       -4.79388721274353       -0.00058617836391
C           -1.42908504157712       -1.24988595800000       -0.00002552063842
C            0.73674724618506       -2.44670679125711       -0.00034980260793
C            3.52031099264689        4.97295106701366        0.00062220079283
C           -4.97281946237549       -0.01440175301234        0.00030590394335
C           -2.83816423565072       -1.27050146604339        0.00013451811115
C           -0.68560986283425       -2.47141513049552       -0.00019537554434
C            1.48596059322284       -3.65589607520988       -0.00066352497398
C            1.38912523222254        3.70434572513140       -0.00019054559678
C            3.51417376394538        2.49762196182541        0.00042206481825
C           -4.94815417997914       -2.59804824785645        0.00073552842671
C            5.60229390881334        1.29496245363630        0.00075064539746
C           -2.79134855777111       -3.74102168631348        0.00028320821246
C           -0.59367249137945       -4.89296219553990       -0.00084104284645
C           -0.74275653032918        2.45125660349030       -0.00031247232926
C            1.38693543793071        1.24812971164223       -0.00000336214222
C            3.51570248121774        0.04439045780946        0.00017826399821
C           -4.85665841292843       -5.01878615691483        0.00120311985543
C            5.63742864191796       -1.14916495543479        0.00030136479126
C           -2.85644165525503        1.21005022671616       -0.00011821809310
C            5.80614037565925       -3.55919285159150       -0.00020470182117
C           -0.72232777160831       -0.00944593016967       -0.00008587225672
C            1.42240017264125       -1.21178924306917       -0.00016448195579
C            3.56739177528311       -2.42095679458662       -0.00024936807183
H           -6.85285090993815        3.47821903218648       -0.00009856399340
H            1.30156229062042       -5.79933824633256       -0.00151792588793
H           -6.65857542738294       -3.86485971171117        0.00138306958460
H           -2.94531166953538       -5.89617434140537        0.00092756255302
H           -6.71927223576421        1.19675330276651        0.00034467185909
H            5.94744434484326       -5.63849409348378       -0.00069410163973
H            3.30019566304712       -6.04591068815965       -0.00125240546611
H           -1.08113602079852       -5.85310103889961       -0.00120776515145
H           -5.36439752476610       -5.97227785107562        0.00159670186566
H           -3.24669730236920        6.08229635668586       -0.00095919128004
H           -1.26634914090944        5.81467371355633       -0.00136662471249
H           -5.90244291044249        5.70949777887020       -0.00061705134842
H            5.27851067947890        6.08460194991891        0.00128017334256
H            1.10674218354167        5.85791725089351       -0.00107131642472
H            2.93473689205561        5.88040980111891        0.00063332259483
H            6.68350077204707        1.28441673837468        0.00097986128032
H            6.71856030947900       -1.10839349743028        0.00048053296433
H            6.87947572793989       -3.40236395536739       -0.00000856970483
H            6.90636777601060        3.84518873111704        0.00148998683100
H           -6.94867300129101       -1.32281625439911        0.00090064366789
B            5.73531489969479        3.82965559115328        0.00111451177298
B            3.75102152826105       -4.96541622447783       -0.00087400906766
B           -3.71453666175034        5.00890920115482       -0.00072029929588
B           -5.77781288137620       -1.31273551410980        0.00067948683888
