      -----------------------------------------------------------      
     |                   =====================                   |     
     |                           x T B                           |     
     |                   =====================                   |     
     |                         S. Grimme                         |     
     |          Mulliken Center for Theoretical Chemistry        |     
     |                    University of Bonn                     |     
      -----------------------------------------------------------      

   * xtb version 6.7.1pre (5071a88) compiled by 'Marcel@Raven' on 2024-07-23

   xtb is free software: you can redistribute it and/or modify it under
   the terms of the GNU Lesser General Public License as published by
   the Free Software Foundation, either version 3 of the License, or
   (at your option) any later version.
   
   xtb is distributed in the hope that it will be useful,
   but WITHOUT ANY WARRANTY; without even the implied warranty of
   MERCHANTABILITY or FITNESS FOR A PARTICULAR PURPOSE.  See the
   GNU Lesser General Public License for more details.
   
   Cite this work as:
   * C. Bannwarth, E. Caldeweyher, S. Ehlert, A. Hansen, P. Pracht,
     J. Seibert, S. Spicher, S. Grimme, WIREs Comput. Mol. Sci., 2020, 11,
     e01493. DOI: 10.1002/wcms.1493
   
   for GFN2-xTB:
   * C. Bannwarth, S. Ehlert and S. Grimme., J. Chem. Theory Comput., 2019,
     15, 1652-1671. DOI: 10.1021/acs.jctc.8b01176
   for GFN1-xTB:
   * S. Grimme, C. Bannwarth, P. Shushkov, J. Chem. Theory Comput., 2017,
     13, 1989-2009. DOI: 10.1021/acs.jctc.7b00118
   for GFN0-xTB:
   * P. Pracht, E. Caldeweyher, S. Ehlert, S. Grimme, ChemRxiv, 2019, preprint.
     DOI: 10.26434/chemrxiv.8326202.v1
   for GFN-FF:
   * S. Spicher and S. Grimme, Angew. Chem. Int. Ed., 2020, 59, 15665-15673.
     DOI: 10.1002/anie.202004239
   
   for ALPB and GBSA implicit solvation:
   * S. Ehlert, M. Stahn, S. Spicher, S. Grimme, J. Chem. Theory Comput.,
     2021, 17, 4250-4261. DOI: 10.1021/acs.jctc.1c00471
   
   for ddCOSMO and CPCM-X implicit solvation:
   * M. Stahn, S. Ehlert, S. Grimme, J. Phys. Chem. A,
     2023, XX, XXXX-XXXX. DOI: 10.1021/acs.jpca.3c04382
   
   for DFT-D4:
   * E. Caldeweyher, C. Bannwarth and S. Grimme, J. Chem. Phys., 2017,
     147, 034112. DOI: 10.1063/1.4993215
   * E. Caldeweyher, S. Ehlert, A. Hansen, H. Neugebauer, S. Spicher,
     C. Bannwarth and S. Grimme, J. Chem. Phys., 2019, 150, 154122.
     DOI: 10.1063/1.5090222
   * E. Caldeweyher, J.-M. Mewes, S. Ehlert and S. Grimme, Phys. Chem. Chem. Phys.
     2020, 22, 8499-8512. DOI: 10.1039/D0CP00502A
   
   for sTDA-xTB:
   * S. Grimme and C. Bannwarth, J. Chem. Phys., 2016, 145, 054103.
     DOI: 10.1063/1.4959605
   
   in the mass-spec context:
   * V. Asgeirsson, C. Bauer and S. Grimme, Chem. Sci., 2017, 8, 4879.
     DOI: 10.1039/c7sc00601b
   * J. Koopman and S. Grimme, ACS Omega 2019, 4, 12, 15120-15133.
     DOI: 10.1021/acsomega.9b02011
   
   for metadynamics refer to:
   * S. Grimme, J. Chem. Theory Comput., 2019, 155, 2847-2862
     DOI: 10.1021/acs.jctc.9b00143
   
   for SPH calculations refer to:
   * S. Spicher and S. Grimme, J. Chem. Theory Comput., 2021, 17, 1701-1714
     DOI: 10.1021/acs.jctc.0c01306
   
   for ONIOM refer to:
   * C. Plett, A. Katbashev, S. Ehlert, S. Grimme, M. Bursch,
     Phys. Chem. Chem. Phys., 2023, 25, 17860-17868. DOI: 10.1039/D3CP02178E
   
   for DIPRO refer to:
   * J. Kohn, N. Gildemeister, S. Grimme, D. Fazzi, A. Hansen,
     J. Chem. Phys., 2023, just accepted.
   
   for PTB refer to:
   * S. Grimme, M. Mueller, A. Hansen, J. Chem. Phys., 2023, 158, 124111.
     DOI: 10.1063/5.0137838
   
   with help from (in alphabetical order)
   P. Atkinson, C. Bannwarth, F. Bohle, G. Brandenburg, E. Caldeweyher
   M. Checinski, S. Dohm, S. Ehlert, S. Ehrlich, I. Gerasimov, C. Hölzer
   A. Katbashev, J. Kohn, J. Koopman, C. Lavigne, S. Lehtola, F. März, M. Müller,
   F. Musil, H. Neugebauer, J. Pisarek, C. Plett, P. Pracht, F. Pultar,
   J. Seibert, P. Shushkov, S. Spicher, M. Stahn, M. Steiner, T. Strunk,
   J. Stückrath, T. Rose, and J. Unsleber
   
 * started run on 2025/12/08 at 00:35:02.467     
   ID    Z sym.   atoms
    1    6 C      1-10, 12-54
    2    7 N      11
    3    1 H      55-75

           -------------------------------------------------
          |                Calculation Setup                |
           -------------------------------------------------

          program call               : xtb "C:\Users\LENOVO GAMING\Documents\GitHub\molecular-conductivity-sim\dataset\1nm-Ndoped--1.5percent.xyz" --opt --parallel 4
          coordinate file            : C:\Users\LENOVO GAMING\Documents\GitHub\molecular-conductivity-sim\dataset\1nm-Ndoped--1.5percent.xyz
          omp threads                :                     4


           -------------------------------------------------
          |                 G F N 2 - x T B                 |
           -------------------------------------------------

        Reference                      10.1021/acs.jctc.8b01176
      * Hamiltonian:
        H0-scaling (s, p, d)           1.850000    2.230000    2.230000
        zeta-weighting                 0.500000
      * Dispersion:
        s8                             2.700000
        a1                             0.520000
        a2                             5.000000
        s9                             5.000000
      * Repulsion:
        kExp                           1.500000    1.000000
        rExp                           1.000000
      * Coulomb:
        alpha                          2.000000
        third order                    shell-resolved
        anisotropic                    true
        a3                             3.000000
        a5                             4.000000
        cn-shift                       1.200000
        cn-exp                         4.000000
        max-rad                        5.000000


          ...................................................
          :                      SETUP                      :
          :.................................................:
          :  # basis functions                 237          :
          :  # atomic orbitals                 237          :
          :  # shells                          129          :
          :  # electrons                       238          :
          :  max. iterations                   250          :
          :  Hamiltonian                  GFN2-xTB          :
          :  restarted?                      false          :
          :  GBSA solvation                  false          :
          :  PC potential                    false          :
          :  electronic temp.          300.0000000     K    :
          :  accuracy                    1.0000000          :
          :  -> integral cutoff          0.2500000E+02      :
          :  -> integral neglect         0.1000000E-07      :
          :  -> SCF convergence          0.1000000E-05 Eh   :
          :  -> wf. convergence          0.1000000E-03 e    :
          :  Broyden damping             0.4000000          :
          :  net charge                          0          :
          :  unpaired electrons                  0          :
          ...................................................

 iter      E             dE          RMSdq      gap      omega  full diag
   1   -129.4981484 -0.129498E+03  0.480E+00    0.85       0.0  T
   2   -129.1246144  0.373534E+00  0.370E+00    0.98       1.0  T
   3   -129.0513296  0.732848E-01  0.275E+00    1.20       1.0  T
   4   -129.5917293 -0.540400E+00  0.118E+00    0.65       1.0  T
   5   -129.6517925 -0.600632E-01  0.743E-01    0.28       1.0  T
   6   -129.5413663  0.110426E+00  0.109E+00    0.17       1.0  T
   7   -129.6740426 -0.132676E+00  0.614E-01    0.21       1.0  T
   8   -129.7019882 -0.279456E-01  0.359E-01    0.10       1.0  T
   9   -129.7154833 -0.134951E-01  0.189E-01    0.04       1.0  T
  10   -129.7055119  0.997136E-02  0.313E-01    0.00       1.0  T
  11   -129.7183717 -0.128597E-01  0.103E-01    0.06       1.0  T
  12   -129.7194436 -0.107193E-02  0.539E-02    0.04       1.0  T
  13   -129.7198510 -0.407443E-03  0.212E-03    0.04       5.4  T
  14   -129.7198350  0.160214E-04  0.107E-02    0.04       1.1  T
  15   -129.7198448 -0.974297E-05  0.678E-03    0.04       1.7  T
  16   -129.7198488 -0.407212E-05  0.413E-03    0.04       2.8  T
  17   -129.7198509 -0.211072E-05  0.150E-03    0.04       7.7  T
  18   -129.7198513 -0.315535E-06  0.152E-04    0.04      76.0  T
  19   -129.7198513  0.552581E-08  0.241E-04    0.04      47.9  T

   *** convergence criteria satisfied after 19 iterations ***

         #    Occupation            Energy/Eh            Energy/eV
      -------------------------------------------------------------
         1        2.0000           -0.7014792             -19.0882
       ...           ...                  ...                  ...
       113        2.0000           -0.3826121             -10.4114
       114        2.0000           -0.3820795             -10.3969
       115        2.0000           -0.3799362             -10.3386
       116        2.0000           -0.3758578             -10.2276
       117        2.0000           -0.3619816              -9.8500
       118        2.0000           -0.3527412              -9.5986
       119        1.3873           -0.3055021              -8.3131 (HOMO)
       120        0.6127           -0.3039491              -8.2709 (LUMO)
       121                         -0.2714709              -7.3871
       122                         -0.2620457              -7.1306
       123                         -0.2503170              -6.8115
       124                         -0.2438058              -6.6343
       ...                                ...                  ...
       237                          0.7335666              19.9614
      -------------------------------------------------------------
                  HL-Gap            0.0015530 Eh            0.0423 eV
             Fermi-level           -0.3047256 Eh           -8.2920 eV

 SCC (total)                   0 d,  0 h,  0 min,  0.360 sec
 SCC setup                      ...        0 min,  0.001 sec (  0.278%)
 Dispersion                     ...        0 min,  0.002 sec (  0.556%)
 classical contributions        ...        0 min,  0.000 sec (  0.000%)
 integral evaluation            ...        0 min,  0.015 sec (  4.167%)
 iterations                     ...        0 min,  0.291 sec ( 80.833%)
 molecular gradient             ...        0 min,  0.049 sec ( 13.611%)
 printout                       ...        0 min,  0.002 sec (  0.556%)

         :::::::::::::::::::::::::::::::::::::::::::::::::::::
         ::                     SUMMARY                     ::
         :::::::::::::::::::::::::::::::::::::::::::::::::::::
         :: total energy            -127.401418178346 Eh    ::
         :: gradient norm              0.058785357967 Eh/a0 ::
         :: HOMO-LUMO gap              0.042258304840 eV    ::
         ::.................................................::
         :: SCC energy              -129.721974504083 Eh    ::
         :: -> isotropic ES            0.009967239822 Eh    ::
         :: -> anisotropic ES          0.013241586014 Eh    ::
         :: -> anisotropic XC          0.057322063732 Eh    ::
         :: -> dispersion             -0.136753823015 Eh    ::
         :: repulsion energy           2.320556325737 Eh    ::
         :: add. restraining           0.000000000000 Eh    ::
         :: total charge              -0.000000000000 e     ::
         :::::::::::::::::::::::::::::::::::::::::::::::::::::

      ----------------------------------------------------------- 
     |                   =====================                   |
     |                        A N C O P T                        |
     |                   =====================                   |
     |               Approximate Normal Coordinate               |
     |                Rational Function Optimizer                |
      ----------------------------------------------------------- 
      ----------------------------------------------------------- 
     |                   =====================                   |
     |                        A N C O P T                        |
     |                   =====================                   |
     |               Approximate Normal Coordinate               |
     |                Rational Function Optimizer                |
      ----------------------------------------------------------- 

          ...................................................
          :                      SETUP                      :
          :.................................................:
          :   optimization level            normal          :
          :   max. optcycles                   225          :
          :   ANC micro-cycles                  20          :
          :   degrees of freedom               219          :
          :.................................................:
          :   RF solver                   davidson          :
          :   write xtbopt.log                true          :
          :   linear?                        false          :
          :   energy convergence         0.5000000E-05 Eh   :
          :   grad. convergence          0.1000000E-02 Eh/α :
          :   maxmium RF displ.          1.0000000          :
          :   Hlow (freq-cutoff)         0.1000000E-01      :
          :   Hmax (freq-cutoff)         5.0000000          :
          :   S6 in model hess.         20.0000000          :
          ...................................................

generating ANC from exact Hessian ...
Using Lindh-Hessian (1995)
 Shifting diagonal of input Hessian by   9.692037864393210E-003
 Lowest  eigenvalues of input Hessian
    0.000000    0.000000    0.000000    0.000000    0.000000    0.000000
    0.010000    0.010290    0.010728    0.011030    0.011327    0.012841
    0.013485    0.014000    0.014705    0.016209    0.016890    0.017108
 Highest eigenvalues
    2.032816    2.039006    2.056424    2.092759    2.121856    2.220340
 

........................................................................
.............................. CYCLE    1 ..............................
........................................................................

 iter      E             dE          RMSdq      gap      omega  full diag
   1   -129.7198513 -0.129720E+03  0.695E-05    0.04       0.0  T
   2   -129.7198511  0.189366E-06  0.114E-03    0.04      10.2  T
   3   -129.7198513 -0.189850E-06  0.364E-05    0.04     316.8  T
   4   -129.7198513 -0.835598E-10  0.266E-05    0.04     434.6  T
     SCC iter.                  ...        0 min,  0.063 sec
     gradient                   ...        0 min,  0.049 sec
 * total energy  :  -127.4014182 Eh     change       -0.8385797E-08 Eh
   gradient norm :     0.0587723 Eh/α   predicted     0.0000000E+00 (-100.00%)
   displ. norm   :     0.3842567 α      lambda       -0.1163345E-01
   maximum displ.:     0.3046513 α      in ANC's #34, #50, #38, ...

........................................................................
.............................. CYCLE    2 ..............................
........................................................................

 iter      E             dE          RMSdq      gap      omega  full diag
   1   -129.8053072 -0.129805E+03  0.327E-01    0.01       0.0  T
   2   -129.7016759  0.103631E+00  0.933E-01    0.74       1.0  T
   3   -129.7783658 -0.766899E-01  0.544E-01    0.17       1.0  T
   4   -129.8189144 -0.405485E-01  0.797E-02    0.03       1.0  T
   5   -129.8024636  0.164507E-01  0.346E-01    0.04       1.0  T
   6   -129.8186945 -0.162309E-01  0.612E-02    0.03       1.0  T
   7   -129.8186888  0.575333E-05  0.624E-02    0.05       1.0  T
   8   -129.8192496 -0.560796E-03  0.390E-03    0.04       3.0  T
   9   -129.8192475  0.204235E-05  0.514E-03    0.04       2.2  T
  10   -129.8192502 -0.271235E-05  0.266E-03    0.04       4.3  T
  11   -129.8192512 -0.933547E-06  0.763E-04    0.04      15.1  T
  12   -129.8192511  0.799390E-07  0.107E-03    0.04      10.7  T
  13   -129.8192513 -0.158328E-06  0.179E-04    0.04      64.5  T
     SCC iter.                  ...        0 min,  0.204 sec
     gradient                   ...        0 min,  0.050 sec
 * total energy  :  -127.4095761 Eh     change       -0.8157906E-02 Eh
   gradient norm :     0.0267965 Eh/α   predicted    -0.6677623E-02 ( -18.15%)
   displ. norm   :     0.2848577 α      lambda       -0.3338556E-02
   maximum displ.:     0.2313223 α      in ANC's #34, #15, #29, ...

........................................................................
.............................. CYCLE    3 ..............................
........................................................................

 iter      E             dE          RMSdq      gap      omega  full diag
   1   -129.8725892 -0.129873E+03  0.234E-01    0.01       0.0  T
   2   -129.7845979  0.879913E-01  0.830E-01    0.55       1.0  T
   3   -129.8566939 -0.720960E-01  0.404E-01    0.11       1.0  T
   4   -129.8785016 -0.218076E-01  0.102E-01    0.02       1.0  T
   5   -129.8671598  0.113418E-01  0.300E-01    0.03       1.0  T
   6   -129.8796750 -0.125152E-01  0.145E-02    0.04       1.0  T
   7   -129.8795197  0.155266E-03  0.353E-02    0.04       1.0  T
   8   -129.8796819 -0.162210E-03  0.108E-02    0.04       1.1  T
   9   -129.8796980 -0.160331E-04  0.149E-03    0.04       7.8  T
  10   -129.8796981 -0.129580E-06  0.102E-03    0.04      11.4  T
  11   -129.8796982 -0.829187E-07  0.626E-04    0.04      18.4  T
  12   -129.8796982  0.936294E-08  0.662E-04    0.04      17.4  T
     SCC iter.                  ...        0 min,  0.186 sec
     gradient                   ...        0 min,  0.052 sec
 * total energy  :  -127.4113985 Eh     change       -0.1822358E-02 Eh
   gradient norm :     0.0057533 Eh/α   predicted    -0.1805015E-02 (  -0.95%)
   displ. norm   :     0.0459802 α      lambda       -0.8195711E-04
   maximum displ.:     0.0255764 α      in ANC's #34, #15, #19, ...

........................................................................
.............................. CYCLE    4 ..............................
........................................................................

 iter      E             dE          RMSdq      gap      omega  full diag
   1   -129.8834811 -0.129883E+03  0.357E-02    0.03       0.0  T
   2   -129.8587191  0.247620E-01  0.414E-01    0.11       1.0  T
   3   -129.8836264 -0.249073E-01  0.125E-02    0.04       1.0  T
   4   -129.8835672  0.591528E-04  0.252E-02    0.03       1.0  T
   5   -129.8836257 -0.584491E-04  0.914E-03    0.04       1.3  T
   6   -129.8836360 -0.103313E-04  0.202E-03    0.04       5.7  T
   7   -129.8836360 -0.383137E-07  0.162E-03    0.04       7.1  T
   8   -129.8836363 -0.292000E-06  0.700E-04    0.04      16.5  T
   9   -129.8836364 -0.635914E-07  0.205E-04    0.04      56.3  T
     SCC iter.                  ...        0 min,  0.142 sec
     gradient                   ...        0 min,  0.050 sec
 * total energy  :  -127.4114483 Eh     change       -0.4987391E-04 Eh
   gradient norm :     0.0020676 Eh/α   predicted    -0.4118682E-04 ( -17.42%)
   displ. norm   :     0.0156145 α      lambda       -0.1058244E-04
   maximum displ.:     0.0083333 α      in ANC's #19, #15, #28, ...

........................................................................
.............................. CYCLE    5 ..............................
........................................................................

 iter      E             dE          RMSdq      gap      omega  full diag
   1   -129.8830182 -0.129883E+03  0.140E-02    0.04       0.0  T
   2   -129.8771808  0.583734E-02  0.201E-01    0.07       1.0  T
   3   -129.8830412 -0.586035E-02  0.427E-03    0.04       2.7  T
   4   -129.8830315  0.968173E-05  0.994E-03    0.04       1.2  T
   5   -129.8830415 -0.999952E-05  0.217E-03    0.04       5.3  T
   6   -129.8830419 -0.428376E-06  0.941E-04    0.04      12.3  T
   7   -129.8830420 -0.861829E-07  0.429E-04    0.04      26.9  T
     SCC iter.                  ...        0 min,  0.105 sec
     gradient                   ...        0 min,  0.043 sec
 * total energy  :  -127.4114547 Eh     change       -0.6335830E-05 Eh
   gradient norm :     0.0006819 Eh/α   predicted    -0.5364927E-05 ( -15.32%)
   displ. norm   :     0.0067258 α      lambda       -0.8404497E-06
   maximum displ.:     0.0031256 α      in ANC's #19, #34, #12, ...

........................................................................
.............................. CYCLE    6 ..............................
........................................................................

 iter      E             dE          RMSdq      gap      omega  full diag
   1   -129.8822498 -0.129882E+03  0.590E-03    0.04       0.0  T
   2   -129.8810405  0.120938E-02  0.913E-02    0.05       1.0  T
   3   -129.8822536 -0.121311E-02  0.258E-03    0.04       4.5  T
   4   -129.8822522  0.140267E-05  0.441E-03    0.04       2.6  T
   5   -129.8822541 -0.196525E-05  0.761E-04    0.04      15.2  T
   6   -129.8822541 -0.295066E-08  0.578E-04    0.04      20.0  T
   7   -129.8822542 -0.419438E-07  0.174E-04    0.04      66.4  T
     SCC iter.                  ...        0 min,  0.103 sec
     gradient                   ...        0 min,  0.051 sec
 * total energy  :  -127.4114554 Eh     change       -0.6942107E-06 Eh
   gradient norm :     0.0002190 Eh/α   predicted    -0.5464937E-06 ( -21.28%)
   displ. norm   :     0.0019198 α      lambda       -0.6932552E-07
   maximum displ.:     0.0008921 α      in ANC's #19, #15, #28, ...

   *** GEOMETRY OPTIMIZATION CONVERGED AFTER 6 ITERATIONS ***

------------------------------------------------------------------------
 total energy gain   :        -0.0100372 Eh       -6.2984 kcal/mol
 total RMSD          :         0.0809079 a0        0.0428 Å
 total power (kW/mol):        -4.3921004 (step)  -20.6525 (real)
------------------------------------------------------------------------

 ANCopt (total)                0 d,  0 h,  0 min,  1.276 sec
 optimizer setup                ...        0 min,  0.001 sec (  0.078%)
 model hessian                  ...        0 min,  0.046 sec (  3.605%)
 ANC generation                 ...        0 min,  0.008 sec (  0.627%)
 coordinate transformation      ...        0 min,  0.003 sec (  0.235%)
 single point calculation       ...        0 min,  1.208 sec ( 94.671%)
 optimization log               ...        0 min,  0.008 sec (  0.627%)
 hessian update                 ...        0 min,  0.000 sec (  0.000%)
 rational function              ...        0 min,  0.002 sec (  0.157%)

================
 final structure:
================
75
 xtb: 6.7.1pre (5071a88)
C           -3.60719325948235        4.86062081213586       -0.00105790351576
C           -5.65334614856899        3.62301977913634       -0.00094680502765
C           -0.68485103126822        4.87546535445334        0.00009673377408
C           -4.98011772814311        4.83866962030806       -0.00132477597025
C           -2.85670125139320        3.67683932272016       -0.00046801354669
C           -4.95307892268513        2.43710082449384       -0.00040845179651
C            4.99779487355823        4.88143719814742        0.00056156173072
C            0.68319177680998        4.87995790792579        0.00032641449665
C            0.74848102526101       -4.87779189762444        0.00005608514822
C            2.87018758288785        3.70878607074629        0.00040206795793
N           -5.53739905936315       -1.25557672521231        0.00025990351926
C            4.98804295158777        2.46931801064589        0.00026312439503
C           -3.48508422460638       -2.48257182914595        0.00029382085329
C           -1.36359610356821       -3.70389262273253        0.00023975141383
C           -1.41474335092867        3.67926497717592       -0.00011951249228
C            0.72321339766703        2.46744429598003        0.00018594104279
C            2.85444769782107        1.24498337452650        0.00016832569548
C           -5.62379674552916       -3.65029131239765        0.00041771648305
C            4.99363707240952        0.03247293926137       -0.00005336257352
C           -3.56734817646345       -4.89564364967745        0.00039953499111
C           -3.54383751785413        2.43997186715502       -0.00024760119498
C            5.01943077153389       -2.40529252660742       -0.00044618201537
C           -1.40138587526549        1.22051545705194        0.00005885798315
C            0.73963154412321        0.00478995911159        0.00010859138939
C            2.87007037393750       -1.20960341203340       -0.00006240684841
C           -5.73540712601421        1.15441899868053        0.00004337245448
C            2.91982974187000       -3.67432379952983       -0.00037320267190
C           -3.50491940436251       -0.02729310653397        0.00014545716672
C            5.06382542857631       -4.81765519261182       -0.00095040443093
C           -1.37152345364306       -1.24160325421700        0.00017196066940
C            0.75911573994360       -2.46297175626084        0.00002072324831
C            3.60922889987518        4.89355688039790        0.00055914685804
C           -4.88641559804160       -0.06583520425108        0.00014813823715
C            3.67592373024496       -4.84908595999433       -0.00074643079151
C            5.68410328874989        3.69480412328387        0.00040300281645
C           -2.77320328215025       -1.25337268026844        0.00021535279823
C           -0.66109139650259       -2.47762303215577        0.00015571804682
C            1.47691027950637       -3.68154844408642       -0.00010575917448
C            1.42629060241947        3.69482548404426        0.00031164786218
C            3.56208546166887        2.47598661091184        0.00028033293362
C           -4.89847324642177       -2.47053074759950        0.00033012980429
C            5.67018157350923        1.25355134927626        0.00008551380326
C           -2.80268999035228       -3.71798415526184        0.00032279573702
C           -0.61890985215412       -4.89164224876519        0.00023273615987
C           -0.69789273540648        2.46338823225865        0.00003976267189
C            1.43666930811681        1.23657537627680        0.00016777152663
C            3.56222996797046        0.02251545594830        0.00002576192458
C           -4.94305526252150       -4.85998946828382        0.00045228395095
C            5.68535607193763       -1.18090171694932       -0.00029815500993
C           -2.80512496601951        1.21776693156376        0.00003050964950
C            5.73283915841157       -3.62082771172851       -0.00077332832591
C           -0.67777123361319       -0.00338821973343        0.00012410774070
C            1.45245579504295       -1.21989204785696        0.00002264709542
C            3.59352303428625       -2.43155695901824       -0.00028114202395
H           -6.73428611885627        3.60581863386628       -0.00109812471676
H            1.26365468733145       -5.82421185343355        0.00006260935419
H           -6.54875342777556       -1.25770401079696        0.00026421582900
H           -6.70363325479834       -3.62190233558383        0.00044959578147
H           -3.08216363334940       -5.85706240678277        0.00041371005866
H           -6.39523796511650        1.13715485220097       -0.87871966591089
H            5.61394376144761       -5.74805212467423       -0.00124590792157
H            3.19444550619853       -5.81304702511662       -0.00091295943922
H           -1.12066141865370       -5.84542105758992        0.00035545092841
H           -5.50369744943838       -5.78267814691370        0.00051244080676
H           -3.11358780796338        5.81799391595507       -0.00136706976938
H           -1.19361027701662        5.82515050057623        0.00012852462908
H           -5.53849992865896        5.76276305238952       -0.00181672707944
H            5.53442954079343        5.81974992494765        0.00067803249541
H            1.18493126973963        5.83362119023831        0.00049795850928
H            3.11479727616777        5.85092978295690        0.00067895245861
H            6.76426035968251        3.67868219434580        0.00038264949812
H            6.75081173826613        1.25453941042691        0.00004207528007
H            6.76596788641908       -1.16800996505176       -0.00039616351371
H            6.81263933689306       -3.58924918315113       -0.00090656344425
H           -6.39483128871597        1.13756911811082        0.87912709954669
 
 Bond Distances (Angstroems)
 ---------------------------
C1-C4=1.3731         C1-C5=1.4016         C1-H65=1.0771        C2-C4=1.3896         C2-C6=1.3772         C2-H55=1.0811        
C3-C8=1.3681         C3-C15=1.4013        C3-H66=1.0774        C4-C1=1.3731         C4-C2=1.3896         C4-H67=1.0797        
C5-C1=1.4016         C5-C15=1.4420        C5-C21=1.4149        C6-C2=1.3772         C6-C21=1.4092        C6-C26=1.5024        
C7-C32=1.3886        C7-C35=1.3708        C7-H68=1.0809        C8-C3=1.3681         C8-C39=1.3988        C8-H69=1.0776        
C9-C38=1.4006        C9-C44=1.3675        C9-H56=1.0776        C10-C32=1.3964       C10-C39=1.4440       C10-C40=1.4137       
N11-C33=1.3562       N11-C41=1.3727       N11-H57=1.0114       C12-C35=1.4094       C12-C40=1.4260       C12-C42=1.3941       
C13-C36=1.4205       C13-C41=1.4134       C13-C43=1.4113       C14-C37=1.4132       C14-C43=1.4392       C14-C44=1.4019       
C15-C3=1.4013        C15-C5=1.4420        C15-C45=1.4115       C16-C39=1.4145       C16-C45=1.4211       C16-C46=1.4227       
C17-C40=1.4199       C17-C46=1.4178       C17-C47=1.4126       C18-C41=1.3849       C18-C48=1.3881       C18-H58=1.0802       
C19-C42=1.3960       C19-C47=1.4314       C19-C49=1.3967       C20-C43=1.4041       C20-C48=1.3762       C20-H59=1.0769       
C21-C5=1.4149        C21-C6=1.4092        C21-C50=1.4281       C22-C49=1.3938       C22-C51=1.4094       C22-C54=1.4261       
C23-C45=1.4282       C23-C50=1.4037       C23-C52=1.4218       C24-C46=1.4153       C24-C52=1.4174       C24-C53=1.4170       
C25-C47=1.4132       C25-C53=1.4177       C25-C54=1.4201       C26-C6=1.5024        C26-C33=1.4865       C26-H60=1.0990       
C26-H75=1.0991       C27-C34=1.3970       C27-C38=1.4429       C27-C54=1.4136       C28-C33=1.3820       C28-C36=1.4278       
C28-C50=1.4282       C29-C34=1.3883       C29-C51=1.3711       C29-H61=1.0809       C30-C36=1.4017       C30-C37=1.4256       
C30-C52=1.4193       C31-C37=1.4203       C31-C38=1.4143       C31-C53=1.4234       C32-C7=1.3886        C32-C10=1.3964       
C32-H70=1.0775       C33-N11=1.3562       C33-C26=1.4865       C33-C28=1.3820       C34-C27=1.3970       C34-C29=1.3883       
C34-H62=1.0775       C35-C7=1.3708        C35-C12=1.4094       C35-H71=1.0803       C36-C13=1.4205       C36-C28=1.4278       
C36-C30=1.4017       C37-C14=1.4132       C37-C30=1.4256       C37-C31=1.4203       C38-C9=1.4006        C38-C27=1.4429       
C38-C31=1.4143       C39-C8=1.3988        C39-C10=1.4440       C39-C16=1.4145       C40-C10=1.4137       C40-C12=1.4260       
C40-C17=1.4199       C41-N11=1.3727       C41-C13=1.4134       C41-C18=1.3849       C42-C12=1.3941       C42-C19=1.3960       
C42-H72=1.0806       C43-C13=1.4113       C43-C14=1.4392       C43-C20=1.4041       C44-C9=1.3675        C44-C14=1.4019       
C44-H63=1.0777       C45-C15=1.4115       C45-C16=1.4211       C45-C23=1.4282       C46-C16=1.4227       C46-C17=1.4178       
C46-C24=1.4153       C47-C17=1.4126       C47-C19=1.4314       C47-C25=1.4132       C48-C18=1.3881       C48-C20=1.3762       
C48-H64=1.0797       C49-C19=1.3967       C49-C22=1.3938       C49-H73=1.0807       C50-C21=1.4281       C50-C23=1.4037       
C50-C28=1.4282       C51-C22=1.4094       C51-C29=1.3711       C51-H74=1.0803       C52-C23=1.4218       C52-C24=1.4174       
C52-C30=1.4193       C53-C24=1.4170       C53-C25=1.4177       C53-C31=1.4234       C54-C22=1.4261       C54-C25=1.4201       
C54-C27=1.4136       H55-C2=1.0811        H56-C9=1.0776        H57-N11=1.0114       H58-C18=1.0802       H59-C20=1.0769       
H60-C26=1.0990       H61-C29=1.0809       H62-C34=1.0775       H63-C44=1.0777       H64-C48=1.0797       H65-C1=1.0771        
H66-C3=1.0774        H67-C4=1.0797        H68-C7=1.0809        H69-C8=1.0776        H70-C32=1.0775       H71-C35=1.0803       
H72-C42=1.0806       H73-C49=1.0807       H74-C51=1.0803       H75-C26=1.0991       
 C  H  Rav=1.0811 sigma=0.0062  Rmin=1.0769  Rmax=1.0991    20
 C  C  Rav=1.4107 sigma=0.0234  Rmin=1.3675  Rmax=1.5024    69
 N  H  Rav=1.0114 sigma=0.0000  Rmin=1.0114  Rmax=1.0114     1
 N  C  Rav=1.3645 sigma=0.0083  Rmin=1.3562  Rmax=1.3727     2
 
 selected bond angles (degree)
 --------------------
C5-C1-C4=121.46                H65-C1-C4=118.19               H65-C1-C5=120.35               C6-C2-C4=120.46                
H55-C2-C4=119.89               H55-C2-C6=119.65               C15-C3-C8=121.58               H66-C3-C8=117.99               
H66-C3-C15=120.43              C2-C4-C1=119.89                H67-C4-C1=120.23               H67-C4-C2=119.88               
C15-C5-C1=122.28               C21-C5-C1=118.57               C21-C5-C15=119.15              C21-C6-C2=120.44               
C26-C6-C2=118.06               C26-C6-C21=121.50              C35-C7-C32=120.54              H68-C7-C32=119.27              
H68-C7-C35=120.19              C39-C8-C3=121.90               H69-C8-C3=117.94               H69-C8-C39=120.16              
C44-C9-C38=121.92              H56-C9-C38=120.10              H56-C9-C44=117.98              C39-C10-C32=122.51             
C40-C10-C32=118.74             C40-C10-C39=118.75             
 
 selected dihedral angles (degree)
 ---------------------------------
C2-C4-C1-C5=  0.00            C2-C4-C1-H65=180.00           H67-C4-C1-C5=180.00           H67-C4-C1-H65=  0.00          
C1-C4-C2-C6=  0.00            C1-C4-C2-H55=180.00           H67-C4-C2-C6=180.00           H67-C4-C2-H55=  0.00          
C15-C5-C1-C4=180.00           C15-C5-C1-H65=  0.00          C21-C5-C1-C4=  0.00           C21-C5-C1-H65=180.01          
C21-C6-C2-C4=  0.00           C21-C6-C2-H55=180.00          C26-C6-C2-C4=180.00           C26-C6-C2-H55=  0.00          
C39-C8-C3-C15=  0.00          C39-C8-C3-H66=180.00          H69-C8-C3-C15=180.00          H69-C8-C3-H66=  0.00          
           -------------------------------------------------
          |                Final Singlepoint                |
           -------------------------------------------------

          ...................................................
          :                      SETUP                      :
          :.................................................:
          :  # basis functions                 237          :
          :  # atomic orbitals                 237          :
          :  # shells                          129          :
          :  # electrons                       238          :
          :  max. iterations                   250          :
          :  Hamiltonian                  GFN2-xTB          :
          :  restarted?                      false          :
          :  GBSA solvation                  false          :
          :  PC potential                    false          :
          :  electronic temp.          300.0000000     K    :
          :  accuracy                    1.0000000          :
          :  -> integral cutoff          0.2500000E+02      :
          :  -> integral neglect         0.1000000E-07      :
          :  -> SCF convergence          0.1000000E-05 Eh   :
          :  -> wf. convergence          0.1000000E-03 e    :
          :  Broyden damping             0.4000000          :
          :  net charge                          0          :
          :  unpaired electrons                  0          :
          ...................................................

 iter      E             dE          RMSdq      gap      omega  full diag
   1   -129.8822542 -0.129882E+03  0.985E-05    0.04       0.0  T
   2   -129.8822538  0.402800E-06  0.166E-03    0.04       6.9  T
   3   -129.8822542 -0.403959E-06  0.377E-05    0.04     306.6  T
   4   -129.8822542  0.236184E-10  0.403E-05    0.04     286.9  T

   *** convergence criteria satisfied after 4 iterations ***

         #    Occupation            Energy/Eh            Energy/eV
      -------------------------------------------------------------
         1        2.0000           -0.6984098             -19.0047
       ...           ...                  ...                  ...
       113        2.0000           -0.3833885             -10.4325
       114        2.0000           -0.3832226             -10.4280
       115        2.0000           -0.3809079             -10.3650
       116        2.0000           -0.3769763             -10.2580
       117        2.0000           -0.3633956              -9.8885
       118        2.0000           -0.3537533              -9.6261
       119        1.3425           -0.3062793              -8.3343 (HOMO)
       120        0.6575           -0.3049229              -8.2974 (LUMO)
       121                         -0.2696789              -7.3383
       122                         -0.2611891              -7.1073
       123                         -0.2491491              -6.7797
       124                         -0.2398244              -6.5260
       ...                                ...                  ...
       237                          0.7718525              21.0032
      -------------------------------------------------------------
                  HL-Gap            0.0013564 Eh            0.0369 eV
             Fermi-level           -0.3056011 Eh           -8.3158 eV

 SCC (total)                   0 d,  0 h,  0 min,  0.129 sec
 SCC setup                      ...        0 min,  0.000 sec (  0.000%)
 Dispersion                     ...        0 min,  0.002 sec (  1.550%)
 classical contributions        ...        0 min,  0.000 sec (  0.000%)
 integral evaluation            ...        0 min,  0.014 sec ( 10.853%)
 iterations                     ...        0 min,  0.061 sec ( 47.287%)
 molecular gradient             ...        0 min,  0.050 sec ( 38.760%)
 printout                       ...        0 min,  0.002 sec (  1.550%)

         :::::::::::::::::::::::::::::::::::::::::::::::::::::
         ::                     SUMMARY                     ::
         :::::::::::::::::::::::::::::::::::::::::::::::::::::
         :: total energy            -127.411455358364 Eh    ::
         :: gradient norm              0.000220476672 Eh/a0 ::
         :: HOMO-LUMO gap              0.036910078210 eV    ::
         ::.................................................::
         :: SCC energy              -129.884393555565 Eh    ::
         :: -> isotropic ES            0.009988645159 Eh    ::
         :: -> anisotropic ES          0.012374863838 Eh    ::
         :: -> anisotropic XC          0.053871856373 Eh    ::
         :: -> dispersion             -0.138473743375 Eh    ::
         :: repulsion energy           2.472938197200 Eh    ::
         :: add. restraining           0.000000000000 Eh    ::
         :: total charge              -0.000000000000 e     ::
         :::::::::::::::::::::::::::::::::::::::::::::::::::::

           -------------------------------------------------
          |                Property Printout                |
           -------------------------------------------------

    * Orbital Energies and Occupations

         #    Occupation            Energy/Eh            Energy/eV
      -------------------------------------------------------------
         1        2.0000           -0.6984098             -19.0047
       ...           ...                  ...                  ...
       107        2.0000           -0.4037247             -10.9859
       108        2.0000           -0.4008485             -10.9076
       109        2.0000           -0.3999159             -10.8823
       110        2.0000           -0.3970165             -10.8034
       111        2.0000           -0.3895274             -10.5996
       112        2.0000           -0.3854777             -10.4894
       113        2.0000           -0.3833885             -10.4325
       114        2.0000           -0.3832226             -10.4280
       115        2.0000           -0.3809079             -10.3650
       116        2.0000           -0.3769763             -10.2580
       117        2.0000           -0.3633956              -9.8885
       118        2.0000           -0.3537533              -9.6261
       119        1.3425           -0.3062793              -8.3343 (HOMO)
       120        0.6575           -0.3049229              -8.2974 (LUMO)
       121                         -0.2696789              -7.3383
       122                         -0.2611891              -7.1073
       123                         -0.2491491              -6.7797
       124                         -0.2398244              -6.5260
       125                         -0.2336985              -6.3593
       126                         -0.2319533              -6.3118
       127                         -0.2210158              -6.0141
       128                         -0.2129947              -5.7959
       129                         -0.2083799              -5.6703
       130                         -0.2020192              -5.4972
       ...                                ...                  ...
       237                          0.7718525              21.0032
      -------------------------------------------------------------
                  HL-Gap            0.0013564 Eh            0.0369 eV
             Fermi-level           -0.3056011 Eh           -8.3158 eV

     #   Z          covCN         q      C6AA      α(0)
     1   6 C        2.922    -0.038    28.947     8.823
     2   6 C        2.924    -0.045    29.108     8.848
     3   6 C        2.919    -0.041    29.025     8.835
     4   6 C        2.915    -0.034    28.837     8.806
     5   6 C        2.980     0.006    27.892     8.663
     6   6 C        2.974     0.003    27.943     8.671
     7   6 C        2.912    -0.032    28.789     8.798
     8   6 C        2.919    -0.037    28.911     8.817
     9   6 C        2.919    -0.037    28.931     8.820
    10   6 C        2.976     0.004    27.937     8.670
    11   7 N        2.707    -0.100    23.191     7.152
    12   6 C        2.979     0.011    27.775     8.645
    13   6 C        2.995    -0.004    28.107     8.697
    14   6 C        2.979    -0.001    28.044     8.687
    15   6 C        2.979     0.002    27.978     8.676
    16   6 C        2.988     0.001    28.006     8.681
    17   6 C        2.985    -0.000    28.023     8.683
    18   6 C        2.919    -0.067    29.660     8.931
    19   6 C        2.974     0.009    27.805     8.650
    20   6 C        2.919    -0.045    29.114     8.848
    21   6 C        2.987    -0.002    28.069     8.691
    22   6 C        2.979     0.011    27.773     8.645
    23   6 C        2.983     0.002    27.981     8.677
    24   6 C        2.984    -0.003    28.087     8.693
    25   6 C        2.984    -0.000    28.031     8.685
    26   6 C        3.817    -0.066    21.760     6.639
    27   6 C        2.976     0.004    27.939     8.670
    28   6 C        2.982    -0.012    28.297     8.726
    29   6 C        2.911    -0.032    28.788     8.798
    30   6 C        2.985    -0.003    28.098     8.695
    31   6 C        2.988     0.001    27.996     8.679
    32   6 C        2.921    -0.045    29.107     8.847
    33   6 C        2.908     0.060    26.658     8.466
    34   6 C        2.921    -0.043    29.069     8.841
    35   6 C        2.922    -0.043    29.058     8.840
    36   6 C        2.992     0.001    27.992     8.679
    37   6 C        2.989    -0.000    28.027     8.684
    38   6 C        2.979     0.004    27.930     8.669
    39   6 C        2.979     0.003    27.956     8.673
    40   6 C        2.994    -0.002    28.061     8.690
    41   6 C        2.923     0.061    26.632     8.463
    42   6 C        2.925    -0.057    29.413     8.894
    43   6 C        2.979     0.006    27.884     8.662
    44   6 C        2.918    -0.040    28.986     8.829
    45   6 C        2.989    -0.001    28.039     8.686
    46   6 C        2.986    -0.007    28.188     8.709
    47   6 C        2.991     0.000    28.008     8.681
    48   6 C        2.917    -0.029    28.722     8.788
    49   6 C        2.926    -0.055    29.357     8.886
    50   6 C        2.985    -0.008    28.209     8.712
    51   6 C        2.922    -0.041    29.020     8.834
    52   6 C        2.986    -0.001    28.048     8.687
    53   6 C        2.985    -0.004    28.118     8.698
    54   6 C        2.993    -0.002    28.071     8.691
    55   1 H        0.926     0.024     2.675     2.557
    56   1 H        0.926     0.033     2.550     2.497
    57   1 H        0.860     0.173     1.255     1.755
    58   1 H        0.926     0.024     2.678     2.559
    59   1 H        0.926     0.038     2.478     2.461
    60   1 H        0.923     0.056     2.249     2.345
    61   1 H        0.926     0.023     2.688     2.564
    62   1 H        0.926     0.025     2.654     2.548
    63   1 H        0.926     0.029     2.595     2.519
    64   1 H        0.926     0.034     2.525     2.485
    65   1 H        0.926     0.036     2.503     2.474
    66   1 H        0.926     0.029     2.599     2.521
    67   1 H        0.926     0.030     2.581     2.512
    68   1 H        0.926     0.022     2.701     2.570
    69   1 H        0.926     0.032     2.555     2.499
    70   1 H        0.926     0.024     2.668     2.555
    71   1 H        0.926     0.024     2.666     2.553
    72   1 H        0.926     0.023     2.686     2.563
    73   1 H        0.926     0.024     2.670     2.555
    74   1 H        0.926     0.026     2.649     2.545
    75   1 H        0.923     0.056     2.249     2.345

 Mol. C6AA /au·bohr⁶  :     101969.620719
 Mol. C8AA /au·bohr⁸  :    2725534.362892
 Mol. α(0) /au        :        519.593448


Wiberg/Mayer (AO) data.
largest (>0.10) Wiberg bond orders for each atom

 ---------------------------------------------------------------------------
     #   Z sym  total        # sym  WBO       # sym  WBO       # sym  WBO
 ---------------------------------------------------------------------------
     1   6 C    3.984 --     4 C    1.492     5 C    1.342    65 H    0.961
                             6 C    0.104
     2   6 C    3.979 --     6 C    1.475     4 C    1.375    55 H    0.970
     3   6 C    3.949 --     8 C    1.506    15 C    1.318    66 H    0.961
     4   6 C    3.963 --     1 C    1.492     2 C    1.375    67 H    0.971
     5   6 C    3.961 --     1 C    1.342    21 C    1.276    15 C    1.152
     6   6 C    3.963 --     2 C    1.475    21 C    1.299    26 C    1.007
                             1 C    0.104
     7   6 C    3.983 --    35 C    1.497    32 C    1.394    68 H    0.971
     8   6 C    3.973 --     3 C    1.506    39 C    1.331    69 H    0.960
     9   6 C    3.972 --    44 C    1.512    38 C    1.325    56 H    0.960
    10   6 C    3.979 --    32 C    1.369    40 C    1.275    39 C    1.143
    11   7 N    3.482 --    33 C    1.218    41 C    1.135    57 H    0.935
    12   6 C    3.985 --    42 C    1.336    35 C    1.273    40 C    1.215
    13   6 C    3.979 --    43 C    1.277    41 C    1.248    36 C    1.223
    14   6 C    3.970 --    44 C    1.313    37 C    1.290    43 C    1.160
    15   6 C    3.972 --     3 C    1.318    45 C    1.296     5 C    1.152
    16   6 C    3.981 --    39 C    1.280    45 C    1.253    46 C    1.223
    17   6 C    3.975 --    47 C    1.274    46 C    1.243    40 C    1.239
    18   6 C    3.927 --    48 C    1.395    41 C    1.381    58 H    0.968
    19   6 C    3.988 --    42 C    1.325    49 C    1.322    47 C    1.182
    20   6 C    3.950 --    48 C    1.478    43 C    1.329    59 H    0.962
    21   6 C    3.982 --     6 C    1.299     5 C    1.276    50 C    1.193
    22   6 C    3.985 --    49 C    1.337    51 C    1.273    54 C    1.214
    23   6 C    3.976 --    50 C    1.317    52 C    1.235    45 C    1.201
    24   6 C    3.966 --    46 C    1.256    53 C    1.254    52 C    1.242
    25   6 C    3.975 --    47 C    1.271    53 C    1.246    54 C    1.239
    26   6 C    3.992 --    33 C    1.024     6 C    1.007    60 H    0.941
                            75 H    0.941
    27   6 C    3.978 --    34 C    1.365    54 C    1.275    38 C    1.146
    28   6 C    3.966 --    33 C    1.386    36 C    1.188    50 C    1.180
    29   6 C    3.983 --    51 C    1.495    34 C    1.396    61 H    0.970
    30   6 C    3.972 --    36 C    1.303    52 C    1.237    37 C    1.208
    31   6 C    3.981 --    38 C    1.281    37 C    1.252    53 C    1.223
    32   6 C    3.881 --     7 C    1.394    10 C    1.369    70 H    0.962
    33   6 C    3.784 --    28 C    1.386    11 N    1.218    26 C    1.024
    34   6 C    3.876 --    29 C    1.396    27 C    1.365    62 H    0.962
    35   6 C    3.888 --     7 C    1.497    12 C    1.273    71 H    0.969
    36   6 C    3.920 --    30 C    1.303    13 C    1.223    28 C    1.188
    37   6 C    3.978 --    14 C    1.290    31 C    1.252    30 C    1.208
    38   6 C    3.938 --     9 C    1.325    31 C    1.281    27 C    1.146
    39   6 C    3.942 --     8 C    1.331    16 C    1.280    10 C    1.143
    40   6 C    3.946 --    10 C    1.275    17 C    1.239    12 C    1.215
    41   6 C    3.951 --    18 C    1.381    13 C    1.248    11 N    1.135
    42   6 C    3.784 --    12 C    1.336    19 C    1.325    72 H    0.967
    43   6 C    3.955 --    20 C    1.329    13 C    1.277    14 C    1.160
    44   6 C    3.948 --     9 C    1.512    14 C    1.313    63 H    0.962
    45   6 C    3.979 --    15 C    1.296    16 C    1.253    23 C    1.201
    46   6 C    3.923 --    24 C    1.256    17 C    1.243    16 C    1.223
    47   6 C    3.945 --    17 C    1.274    25 C    1.271    19 C    1.182
    48   6 C    3.967 --    20 C    1.478    18 C    1.395    64 H    0.971
    49   6 C    3.779 --    22 C    1.337    19 C    1.322    73 H    0.967
    50   6 C    3.891 --    23 C    1.317    21 C    1.193    28 C    1.180
    51   6 C    3.884 --    29 C    1.495    22 C    1.273    74 H    0.969
    52   6 C    3.900 --    24 C    1.242    30 C    1.237    23 C    1.235
    53   6 C    3.924 --    24 C    1.254    25 C    1.246    31 C    1.223
    54   6 C    3.946 --    27 C    1.275    25 C    1.239    22 C    1.214
    55   1 H    0.999 --     2 C    0.970
    56   1 H    0.998 --     9 C    0.960
    57   1 H    0.969 --    11 N    0.935
    58   1 H    0.999 --    18 C    0.968
    59   1 H    0.998 --    20 C    0.962
    60   1 H    0.983 --    26 C    0.941
    61   1 H    0.998 --    29 C    0.970
    62   1 H    0.999 --    34 C    0.962
    63   1 H    0.998 --    44 C    0.962
    64   1 H    0.998 --    48 C    0.971
    65   1 H    0.998 --     1 C    0.961
    66   1 H    0.998 --     3 C    0.961
    67   1 H    0.998 --     4 C    0.971
    68   1 H    0.998 --     7 C    0.971
    69   1 H    0.998 --     8 C    0.960
    70   1 H    0.999 --    32 C    0.962
    71   1 H    0.998 --    35 C    0.969
    72   1 H    0.998 --    42 C    0.967
    73   1 H    0.998 --    49 C    0.967
    74   1 H    0.998 --    51 C    0.969
    75   1 H    0.983 --    26 C    0.941
 ---------------------------------------------------------------------------

Topologies differ in total number of bonds
Writing topology from bond orders to xtbtopo.mol

molecular dipole:
                 x           y           z       tot (Debye)
 q only:       -3.135      -0.327       0.000
   full:       -3.532      -0.354       0.000       9.022
molecular quadrupole (traceless):
                xx          xy          yy          xz          yz          zz
 q only:       21.015       3.197      -8.261      -0.002      -0.001     -12.754
  q+dip:       41.484       3.909       1.194      -0.003      -0.001     -42.678
   full:       31.262       3.916      -8.542      -0.003      -0.001     -22.720

           -------------------------------------------------
          |                Geometry Summary                 |
           -------------------------------------------------

      molecular mass/u    :      671.7424617
   center of mass at/Å    :        0.0068357      -0.0015591      -0.0000131
  moments of inertia/u·Å² :        0.6925263E+04   0.9249610E+04   0.1617176E+05
rotational constants/cm⁻¹ :        0.2434223E-02   0.1822524E-02   0.1042412E-02

 * 87 selected distances

     #   Z          #   Z                                           value/Å
     1   6 C        4   6 C                                       1.3731001
     2   6 C        4   6 C                                       1.3896192
     1   6 C        5   6 C                                       1.4016339
     2   6 C        6   6 C                                       1.3772359
     3   6 C        8   6 C                                       1.3680503
     3   6 C       15   6 C                                       1.4012989
     5   6 C       21   6 C                                       1.4149197
     6   6 C       21   6 C                                       1.4092445
     7   6 C       32   6 C                                       1.3886190
    10   6 C       32   6 C                                       1.3963754
    11   7 N       33   6 C                                       1.3561949
    26   6 C       33   6 C                                       1.4865421 (max)
    28   6 C       33   6 C                                       1.3820339
    27   6 C       34   6 C                                       1.3970486
    29   6 C       34   6 C                                       1.3882577
     7   6 C       35   6 C                                       1.3708091
    12   6 C       35   6 C                                       1.4093674
    13   6 C       36   6 C                                       1.4204596
    28   6 C       36   6 C                                       1.4278235
    30   6 C       36   6 C                                       1.4017294
    14   6 C       37   6 C                                       1.4132411
    30   6 C       37   6 C                                       1.4256434
    31   6 C       37   6 C                                       1.4202828
     9   6 C       38   6 C                                       1.4005742
    31   6 C       38   6 C                                       1.4142696
     8   6 C       39   6 C                                       1.3988335
    16   6 C       39   6 C                                       1.4144902
    10   6 C       40   6 C                                       1.4136893
    12   6 C       40   6 C                                       1.4259732
    17   6 C       40   6 C                                       1.4199016
    11   7 N       41   6 C                                       1.3727126
    13   6 C       41   6 C                                       1.4134404
    18   6 C       41   6 C                                       1.3848933
    12   6 C       42   6 C                                       1.3940596
    19   6 C       42   6 C                                       1.3959747
    13   6 C       43   6 C                                       1.4113490
    20   6 C       43   6 C                                       1.4041312
     9   6 C       44   6 C                                       1.3674612
    14   6 C       44   6 C                                       1.4018941
    15   6 C       45   6 C                                       1.4114643
    16   6 C       45   6 C                                       1.4211121
    23   6 C       45   6 C                                       1.4281582
    16   6 C       46   6 C                                       1.4226939
    17   6 C       46   6 C                                       1.4178035
    24   6 C       46   6 C                                       1.4153294
    17   6 C       47   6 C                                       1.4125806
    19   6 C       47   6 C                                       1.4314419
    25   6 C       47   6 C                                       1.4132240
    18   6 C       48   6 C                                       1.3880846
    20   6 C       48   6 C                                       1.3761692
    19   6 C       49   6 C                                       1.3966938
    22   6 C       49   6 C                                       1.3937682
    21   6 C       50   6 C                                       1.4281042
    23   6 C       50   6 C                                       1.4037419
    28   6 C       50   6 C                                       1.4282462
    22   6 C       51   6 C                                       1.4094246
    29   6 C       51   6 C                                       1.3711221
    23   6 C       52   6 C                                       1.4218153
    24   6 C       52   6 C                                       1.4174265
    30   6 C       52   6 C                                       1.4193199
    24   6 C       53   6 C                                       1.4170268
    25   6 C       53   6 C                                       1.4176520
    31   6 C       53   6 C                                       1.4233650
    22   6 C       54   6 C                                       1.4261497
    25   6 C       54   6 C                                       1.4200545
    27   6 C       54   6 C                                       1.4136239
     2   6 C       55   1 H                                       1.0810769
     9   6 C       56   1 H                                       1.0775504
    11   7 N       57   1 H                                       1.0113567 (min)
    18   6 C       58   1 H                                       1.0802097
    20   6 C       59   1 H                                       1.0769077
    26   6 C       60   1 H                                       1.0990448
    29   6 C       61   1 H                                       1.0808649
    34   6 C       62   1 H                                       1.0775168
    44   6 C       63   1 H                                       1.0777054
    48   6 C       64   1 H                                       1.0796640
     1   6 C       65   1 H                                       1.0771304
     3   6 C       66   1 H                                       1.0773755
     4   6 C       67   1 H                                       1.0796943
     7   6 C       68   1 H                                       1.0809291
     8   6 C       69   1 H                                       1.0775975
    32   6 C       70   1 H                                       1.0775090
    35   6 C       71   1 H                                       1.0802775
    42   6 C       72   1 H                                       1.0806307
    49   6 C       73   1 H                                       1.0806888
    51   6 C       74   1 H                                       1.0802619
    26   6 C       75   1 H                                       1.0990508

 * 4 distinct bonds (by element types)

   Z      Z             #   av. dist./Å        max./Å        min./Å
   1 H    6 C          20     1.0810843     1.0990508     1.0769077
   6 C    6 C          64     1.4073417     1.4865421     1.3674612
   1 H    7 N           1     1.0113567     1.0113567     1.0113567
   6 C    7 N           2     1.3644538     1.3727126     1.3561949


optimized geometry written to: xtbopt.xyz


           -------------------------------------------------
          | TOTAL ENERGY             -127.411455358364 Eh   |
          | GRADIENT NORM               0.000220476672 Eh/α |
          | HOMO-LUMO GAP               0.036910078210 eV   |
           -------------------------------------------------

------------------------------------------------------------------------
 * finished run on 2025/12/08 at 00:35:04.305     
------------------------------------------------------------------------
 total:
 * wall-time:     0 d,  0 h,  0 min,  1.835 sec
 *  cpu-time:     0 d,  0 h,  0 min,  7.156 sec
 * ratio c/w:     3.900 speedup
 SCF:
 * wall-time:     0 d,  0 h,  0 min,  0.361 sec
 *  cpu-time:     0 d,  0 h,  0 min,  1.422 sec
 * ratio c/w:     3.939 speedup
 ANC optimizer:
 * wall-time:     0 d,  0 h,  0 min,  1.412 sec
 *  cpu-time:     0 d,  0 h,  0 min,  5.594 sec
 * ratio c/w:     3.962 speedup

normal termination of xtb
