75
 energy: -127.401418186731 gnorm: 0.058772290818 xtb: 6.7.1pre (5071a88)
C           -3.63653400000000        4.89452300000000       -0.00106700000000
C           -5.70044900000000        3.64483100000000       -0.00101100000000
C           -0.69505000000000        4.90868700000000        0.00010700000000
C           -5.01952800000000        4.86871100000000       -0.00142800000000
C           -2.88230900000000        3.70066300000000       -0.00038600000000
C           -4.99447100000000        2.45223700000000       -0.00039400000000
C            5.02359500000000        4.92753500000000        0.00053500000000
C            0.68098200000000        4.91146200000000        0.00030600000000
C            0.75277700000000       -4.91310300000000        0.00005500000000
C            2.89161400000000        3.74430200000000        0.00044600000000
N           -5.55433000000000       -1.24731900000000        0.00026000000000
C            5.03540000000000        2.48934000000000        0.00023900000000
C           -3.50744400000000       -2.49551100000000        0.00029700000000
C           -1.36896300000000       -3.73344900000000        0.00022700000000
C           -1.42639800000000        3.70381100000000       -0.00002000000000
C            0.72765200000000        2.48262800000000        0.00028400000000
C            2.88010900000000        1.25636900000000        0.00027600000000
C           -5.67241800000000       -3.66057000000000        0.00045200000000
C            5.05060500000000        0.03258000000000        0.00000700000000
C           -3.59728700000000       -4.91851800000000        0.00034400000000
C           -3.57633100000000        2.45979300000000       -0.00017500000000
C            5.07034000000000       -2.42564900000000       -0.00049400000000
C           -1.41708900000000        1.22741700000000        0.00018400000000
C            0.75039500000000        0.00214800000000        0.00018900000000
C            2.89925300000000       -1.22389700000000        0.00005200000000
C           -5.76795900000000        1.15791700000000        0.00002500000000
C            2.94757000000000       -3.71320500000000       -0.00040300000000
C           -3.51574600000000       -0.03256000000000        0.00019400000000
C            5.09735800000000       -4.86438200000000       -0.00100200000000
C           -1.37657100000000       -1.25246300000000        0.00021900000000
C            0.76844500000000       -2.48251000000000        0.00005500000000
C            3.62110800000000        4.94448600000000        0.00055900000000
C           -4.92077000000000       -0.07260900000000        0.00013600000000
C            3.69522100000000       -4.90210000000000       -0.00081300000000
C            5.72170400000000        3.73722500000000        0.00036800000000
C           -2.79308200000000       -1.26137700000000        0.00025500000000
C           -0.66245300000000       -2.49976200000000        0.00017700000000
C            1.48847100000000       -3.71225200000000       -0.00009500000000
C            1.43216100000000        3.71949200000000        0.00038200000000
C            3.59152500000000        2.49976700000000        0.00032400000000
C           -4.92527700000000       -2.48423700000000        0.00032100000000
C            5.71976700000000        1.26870300000000        0.00004100000000
C           -2.82526600000000       -3.74398500000000        0.00029700000000
C           -0.62525500000000       -4.92764200000000        0.00022100000000
C           -0.70601100000000        2.48063600000000        0.00015900000000
C            1.44851600000000        1.24208800000000        0.00026100000000
C            3.59872400000000        0.02109600000000        0.00016800000000
C           -4.99033600000000       -4.87447600000000        0.00043200000000
C            5.73651900000000       -1.19580900000000       -0.00031400000000
C           -2.83024800000000        1.22144800000000        0.00012400000000
C            5.77604400000000       -3.66303700000000       -0.00083300000000
C           -0.68542800000000       -0.00937300000000        0.00022800000000
C            1.46683200000000       -1.23006400000000        0.00011900000000
C            3.62704500000000       -2.45776900000000       -0.00026400000000
H           -6.78716100000000        3.62672000000000       -0.00124000000000
H            1.26940700000000       -5.86482900000000        0.00006700000000
H           -6.57072500000000       -1.24258200000000        0.00023200000000
H           -6.75728700000000       -3.62420300000000        0.00052700000000
H           -3.11645000000000       -5.88885300000000        0.00031600000000
H           -6.43376900000000        1.12112900000000       -0.87394100000000
H            5.65235100000000       -5.79985200000000       -0.00130400000000
H            3.20529800000000       -5.86792900000000       -0.00102600000000
H           -1.12876700000000       -5.88697400000000        0.00034700000000
H           -5.55334800000000       -5.80239100000000        0.00050600000000
H           -3.13880400000000        5.85605900000000       -0.00153100000000
H           -1.20725100000000        5.86262400000000        0.00012200000000
H           -5.57864400000000        5.79961400000000       -0.00195800000000
H            5.56414400000000        5.87161400000000        0.00064400000000
H            1.18581000000000        5.86958200000000        0.00038300000000
H            3.11720500000000        5.90309400000000        0.00066800000000
H            6.80931900000000        3.73285800000000        0.00034400000000
H            6.80798100000000        1.27408900000000       -0.00009000000000
H            6.82470900000000       -1.18607300000000       -0.00041300000000
H            6.86340300000000       -3.64152100000000       -0.00098000000000
H           -6.43349100000000        1.12154900000000        0.87429500000000
75
 energy: -127.409576092478 gnorm: 0.026796521139 xtb: 6.7.1pre (5071a88)
C           -3.62578986788434        4.87209820855702       -0.00109041385404
C           -5.67613583010418        3.63103281957277       -0.00099613209582
C           -0.68972308677475        4.88618749499358        0.00011496783011
C           -5.00107489474334        4.84801796860552       -0.00139447748259
C           -2.87049355616767        3.68609017956320       -0.00042072054829
C           -4.97258290295737        2.44374830914150       -0.00039989510104
C            5.00914366857128        4.90019749891421        0.00053666618148
C            0.68101133727983        4.88958973701480        0.00031515076533
C            0.75023343326469       -4.89032822968368        0.00005480018615
C            2.88187783537763        3.72355605778890        0.00043034207009
N           -5.54267499947390       -1.25128133808642        0.00026659952359
C            5.01009744344997        2.47884313456063        0.00025796557677
C           -3.49547762530361       -2.48769929733707        0.00029883103673
C           -1.36657613966766       -3.71623146651848        0.00022842684756
C           -1.42102232614639        3.68795627539264       -0.00004670677812
C            0.72696023475646        2.47309442869358        0.00027426490478
C            2.86914844413293        1.24971428045894        0.00025215093074
C           -5.64806690578655       -3.65203148528907        0.00043988468570
C            5.02093880768821        0.03249094432198       -0.00002298723393
C           -3.58719542698871       -4.90210339362304        0.00034984333669
C           -3.55970048498358        2.44880363692723       -0.00018510041959
C            5.04402673776908       -2.41505819849970       -0.00045414751143
C           -1.40697369690989        1.22378528501205        0.00015675801696
C            0.74725898156197        0.00345357476405        0.00020014139096
C            2.88655948950687       -1.21637185871761        0.00001161431678
C           -5.75067487672090        1.15662840696796        0.00002320910784
C            2.93559125661665       -3.69162482063300       -0.00038373678645
C           -3.50743482434982       -0.02787637896739        0.00019365703287
C            5.08096705722642       -4.83680309365215       -0.00100181165270
C           -1.37214966773675       -1.24591611624787        0.00022010204527
C            0.76511181380968       -2.47148413019469        0.00005539217750
C            3.61663369825832        4.91378975567073        0.00055605087181
C           -4.90067689503805       -0.06800755013907        0.00015520253010
C            3.68876593609724       -4.87094633387247       -0.00079942704682
C            5.69950519867880        3.71519294362345        0.00037159987853
C           -2.78176651322773       -1.25578663409660        0.00025046955081
C           -0.66070579907223       -2.48742429189584        0.00017878466141
C            1.48407736851477       -3.69469301282132       -0.00009791826565
C            1.43006417214248        3.70393858029830        0.00035518426360
C            3.57692530041865        2.48627561923154        0.00032307162655
C           -4.90968452267547       -2.47715843788834        0.00033361338537
C            5.69198616141571        1.26139811416878        0.00005825449239
C           -2.81479428820125       -3.72953498558802        0.00029553563353
C           -0.62143166717424       -4.90481738614878        0.00022236779204
C           -0.70030887738084        2.47039433593851        0.00013750670195
C            1.44477000450638        1.23836611697801        0.00026621951226
C            3.58108794661211        0.02152231187864        0.00010728342397
C           -4.96894590569752       -4.86197758019750        0.00043851697837
C            5.70836978218543       -1.18852461810805       -0.00029815243701
C           -2.81540170551501        1.22033196904694        0.00011058513996
C            5.75252133692686       -3.64093852092780       -0.00081600891786
C           -0.67956119486866       -0.00600299090311        0.00020990215304
C            1.46157360138786       -1.22451727175679        0.00009951366795
C            3.61091563773969       -2.44362889057777       -0.00025840980399
H           -6.75923200137293        3.61601237862567       -0.00120595169243
H            1.26331213381147       -5.84023127167362        0.00006526976632
H           -6.55677303680339       -1.25108093204672        0.00023857263962
H           -6.72944192207766       -3.61893178680383        0.00050715265507
H           -3.11077150035357       -5.86984299980750        0.00032335258641
H           -6.41423123803481        1.13130832704640       -0.87696884140453
H            5.63391304071252       -5.76912359115922       -0.00129841729240
H            3.20792837198151       -5.83697546644049       -0.00100459216885
H           -1.12200481475889       -5.86181761982430        0.00034125668240
H           -5.53082161619717       -5.78649983788556        0.00050127624956
H           -3.13477581234467        5.83260020420105       -0.00146296014068
H           -1.19867334554478        5.83809547596622        0.00011409927424
H           -5.56059009616226        5.77444494450573       -0.00194561505648
H            5.54763444764397        5.84100942178999        0.00064123022990
H            1.18169800908772        5.84603611415106        0.00040438969025
H            3.12167201312022        5.87261583523124        0.00067068752237
H            6.78251681596498        3.71095204570772        0.00033653525728
H            6.77615346986812        1.26634113175518       -0.00006236053271
H            6.79257534138768       -1.17853341152154       -0.00042142618834
H            6.83537854432234       -3.61983904811349       -0.00096625609385
H           -6.41390600859598        1.13172241058218        0.87730221372465
75
 energy: -127.411398450650 gnorm: 0.005753333060 xtb: 6.7.1pre (5071a88)
C           -3.61102561147139        4.85948341018184       -0.00107853677002
C           -5.65675440055022        3.62205517257295       -0.00098869790228
C           -0.68601353885021        4.87378231365078        0.00010377296715
C           -4.98364921231509        4.83696153746481       -0.00137868872768
C           -2.85905470017888        3.67648776539780       -0.00043878032361
C           -4.95540476684700        2.43697532710056       -0.00040693021875
C            4.99758544464040        4.88271621465659        0.00054158898470
C            0.68235260964717        4.87793789228788        0.00031822649353
C            0.74913806210663       -4.87706795693355        0.00005369654815
C            2.87203255915880        3.70927369736403        0.00042377292813
N           -5.53570350676967       -1.25402349937648        0.00026662366499
C            4.99104594264628        2.47052429143041        0.00026036702062
C           -3.48600410108674       -2.48245592520742        0.00029849251661
C           -1.36411436273021       -3.70467013625380        0.00023506442002
C           -1.41588310728743        3.67822299342912       -0.00007671661202
C            0.72469386688411        2.46687688313701        0.00025243590538
C            2.85810110282395        1.24500210551694        0.00022467061033
C           -5.62883132520039       -3.64716977243528        0.00042965491656
C            4.99791680389120        0.03254698116135       -0.00004276697054
C           -3.57321577926232       -4.89345602509260        0.00036400575974
C           -3.54599209984711        2.44043630654637       -0.00020975083251
C            5.02357284340934       -2.40634793896905       -0.00044615795088
C           -1.40063063949575        1.22048662724059        0.00013005920519
C            0.74223150798612        0.00434084458186        0.00018061332665
C            2.87408389183367       -1.21049755568440       -0.00001414413349
C           -5.73699191874670        1.15440152037231        0.00003145111798
C            2.92327917321189       -3.67586409980060       -0.00037352458635
C           -3.50335332896745       -0.02617859976485        0.00018444077395
C            5.06640496853262       -4.81875670386782       -0.00098389728679
C           -1.37035436079242       -1.24181540091850        0.00021356921581
C            0.76087093107045       -2.46366947296260        0.00005127780370
C            3.60907526231194        4.89424293814294        0.00055721971098
C           -4.88657261863673       -0.06533060808231        0.00016230674421
C            3.67835411345052       -4.85039318157616       -0.00077845030140
C            5.68473448727284        3.69782110711342        0.00037882805870
C           -2.77358956219033       -1.25274348570237        0.00024479824725
C           -0.66034930317786       -2.47860336729884        0.00017755593358
C            1.47888478731360       -3.68244873581053       -0.00009700700514
C            1.42704194696157        3.69420341919920        0.00034296206411
C            3.56463166132171        2.47669079845491        0.00031157924595
C           -4.89874810422792       -2.47073667077956        0.00033788402275
C            5.67255290584756        1.25494817319823        0.00006770479216
C           -2.80470325190688       -3.71894981080288        0.00031024105140
C           -0.61904848761577       -4.89133188537222        0.00022291785440
C           -0.69718842866943        2.46312789816254        0.00010722966566
C            1.43927299313871        1.23596235107739        0.00024204663240
C            3.56599140479184        0.02212320704860        0.00007310123549
C           -4.94921576924077       -4.85652125962833        0.00043896929055
C            5.68831651807937       -1.18193375852704       -0.00030071817653
C           -2.80517517817806        1.21828061432527        0.00008729935525
C            5.73554777619476       -3.62330551032939       -0.00079458299272
C           -0.67679667138621       -0.00388687712852        0.00019022076975
C            1.45511088555563       -1.22046472093528        0.00007701689780
C            3.59703411357355       -2.43295698023310       -0.00026118752217
H           -6.73781568245110        3.60674516143026       -0.00116881735724
H            1.26315386873148       -5.82451257822454        0.00005747352446
H           -6.54751795893493       -1.25643219686018        0.00024712371141
H           -6.70846091935741       -3.61625186527781        0.00048351570949
H           -3.09378898124321       -5.85782645583471        0.00034514972890
H           -6.39804706116950        1.13612222743189       -0.87857883656298
H            5.61724022196382       -5.74918903175770       -0.00130261423993
H            3.19885775360937       -5.81540177937380       -0.00097117567081
H           -1.12006675240307       -5.84583493684678        0.00033882879622
H           -5.51020089935461       -5.77909577957516        0.00049850414947
H           -3.11992216676869        5.81818828728807       -0.00141205312877
H           -1.19504880820474        5.82358882945345        0.00011123356122
H           -5.54289906105252        5.76079259115540       -0.00191136144346
H            5.53424048580617        5.82141654403731        0.00064262825255
H            1.18321404887843        5.83232260134071        0.00043966230409
H            3.11574513622504        5.85218591501504        0.00067217310702
H            6.76515313596207        3.68848627354226        0.00033819414192
H            6.75373657030428        1.25811277819980       -0.00001997562603
H            6.76953197639387       -1.17062748940795       -0.00041720289303
H            6.81575101917303       -3.59766669473070       -0.00094380093380
H           -6.39769135413511        1.13653714765291        0.87892222343060
75
 energy: -127.411448324560 gnorm: 0.002067565722 xtb: 6.7.1pre (5071a88)
C           -3.60753097281152        4.85962198641389       -0.00107354244974
C           -5.65368431010147        3.62208934673487       -0.00097703719979
C           -0.68530402485828        4.87420849926701        0.00010131872457
C           -4.98037639228304        4.83748583095721       -0.00136286626174
C           -2.85693072579243        3.67615249413416       -0.00045205889962
C           -4.95307659097411        2.43655711006395       -0.00040911658437
C            4.99681379522528        4.88133350689968        0.00054619331015
C            0.68282791437275        4.87861280708007        0.00032300592879
C            0.74864348218590       -4.87702594509204        0.00005454444719
C            2.87026518249055        3.70837527378311        0.00041755047063
N           -5.53604916095171       -1.25488928080707        0.00026593344198
C            4.98843062726251        2.46939722646343        0.00026161994092
C           -3.48484594416502       -2.48222126094884        0.00030055066980
C           -1.36359464862507       -3.70374855249984        0.00023860015584
C           -1.41484441558542        3.67827368758775       -0.00009141144569
C            0.72365711699822        2.46681631057886        0.00023140959382
C            2.85535288473677        1.24475712918192        0.00020586538900
C           -5.62524282470172       -3.64849105861524        0.00042563642022
C            4.99442841489455        0.03255856486160       -0.00004621101121
C           -3.56886743568001       -4.89416303701518        0.00037508164297
C           -3.54395763691690        2.43968243881733       -0.00022476450414
C            5.02028626791644       -2.40516082043508       -0.00044449514273
C           -1.40064651493614        1.22018701535294        0.00010795753200
C            0.74045983219426        0.00456127609057        0.00015946580654
C            2.87106913534273       -1.20974920123929       -0.00003081670533
C           -5.73518104043853        1.15416630165785        0.00003626180065
C            2.92054380538684       -3.67432105317083       -0.00037130096552
C           -3.50384051737224       -0.02675244412925        0.00017356684120
C            5.06407473014818       -4.81728631772158       -0.00097852684511
C           -1.37088716986539       -1.24156363923631        0.00020358381729
C            0.75955394012733       -2.46292739023220        0.00004380684931
C            3.60818950342392        4.89311259813778        0.00055871341565
C           -4.88569946082012       -0.06547991308621        0.00015971006675
C            3.67601757060163       -4.84881795895378       -0.00076841821182
C            5.68358275760553        3.69530554580123        0.00038463815842
C           -2.77292454704952       -1.25294074057318        0.00023925035172
C           -0.66075990985987       -2.47764754688355        0.00017400750328
C            1.47730283565103       -3.68149500273218       -0.00009784815888
C            1.42623061167779        3.69411869142800        0.00033387906199
C            3.56244732370098        2.47584464070539        0.00030134297727
C           -4.89783401799784       -2.47023647902545        0.00033747975139
C            5.67032715035794        1.25382489087813        0.00007469335191
C           -2.80282231450737       -3.71787020168788        0.00031496459550
C           -0.61906692272210       -4.89103977849685        0.00022635827070
C           -0.69740381855973        2.46278022481194        0.00008580519245
C            1.43736764298462        1.23609515609709        0.00021919868560
C            3.56301226768418        0.02235352291290        0.00005533832108
C           -4.94473263487236       -4.85810968752700        0.00044250913367
C            5.68575511912099       -1.18089186072781       -0.00029927479083
C           -2.80452897914769        1.21773927841136        0.00006885989159
C            5.73322454529943       -3.62089925440462       -0.00078949794205
C           -0.67727634512926       -0.00363824123128        0.00017170591568
C            1.45313128081668       -1.21999828128757        0.00006117033377
C            3.59426653866594       -2.43167019681749       -0.00026691966315
H           -6.73458504634347        3.60574728078210       -0.00114994972449
H            1.26339503915999       -5.82379683106738        0.00005698859161
H           -6.54748268322710       -1.25741276298460        0.00025386821188
H           -6.70488685554576       -3.61858535169960        0.00046977197993
H           -3.08616767844928       -5.85696193566341        0.00036667973579
H           -6.39540194911700        1.13658787457500       -0.87872550769078
H            5.61445807061564       -5.74755894610383       -0.00128845113259
H            3.19546613667478       -5.81324111440458       -0.00095178966164
H           -1.12086959554281       -5.84489403468184        0.00034162771460
H           -5.50534871636348       -5.78074126374363        0.00049842177921
H           -3.11493254379213        5.81753614896378       -0.00139192444352
H           -1.19446744734639        5.82369931550531        0.00011316955413
H           -5.53915716456332        5.76132121751891       -0.00188477911633
H            5.53332275272963        5.81972183390018        0.00065148133523
H            1.18424295120182        5.83249171195797        0.00046163140878
H            3.11419256016432        5.85067259554908        0.00067621490585
H            6.76380163634739        3.68242554885222        0.00034884046937
H            6.75108822659931        1.25584331456237        0.00000375724678
H            6.76652048048468       -1.16874678105597       -0.00041271608578
H            6.81314890194036       -3.59209819230229       -0.00093071814738
H           -6.39503107577528        1.13700616100780        0.87908991208977
75
 energy: -127.411454660389 gnorm: 0.000681887779 xtb: 6.7.1pre (5071a88)
C           -3.60690396761673        4.86029559603876       -0.00106653256673
C           -5.65314484443677        3.62267739436147       -0.00096546055941
C           -0.68495617878384        4.87506114794560        0.00009866474939
C           -4.97983897694108        4.83830319733685       -0.00134730457469
C           -2.85655036141282        3.67655737004580       -0.00046016792938
C           -4.95282774514618        2.43683837461602       -0.00041006447535
C            4.99728617832189        4.88134884923341        0.00055281008047
C            0.68310173055542        4.87954669446115        0.00032546210966
C            0.74848941396259       -4.87757701416335        0.00005517245746
C            2.87002246424187        3.70859161350090        0.00041090674122
N           -5.53685383204824       -1.25537609408681        0.00026434765254
C            4.98795716585692        2.46926899373682        0.00026212214550
C           -3.48485176517686       -2.48242327559141        0.00029963831742
C           -1.36351322883934       -3.70380850756948        0.00023959087335
C           -1.41464249303201        3.67889858844656       -0.00010510866143
C            0.72327153817239        2.46718588422690        0.00021066287343
C            2.85452072501592        1.24488655794762        0.00018828914383
C           -5.62408127447559       -3.64970708859746        0.00042160633487
C            4.99363755972037        0.03252495679466       -0.00004952476921
C           -3.56749921933515       -4.89512235870548        0.00038648561175
C           -3.54366797517544        2.43978788395910       -0.00023640380752
C            5.01946674910684       -2.40511491580084       -0.00044556856607
C           -1.40108158723947        1.22032875654161        0.00008569936450
C            0.73978609108191        0.00470092767757        0.00013652987933
C            2.87015583472918       -1.20961401841332       -0.00004524098900
C           -5.73509198137802        1.15428103440660        0.00003972499707
C            2.91982625818163       -3.67423545037776       -0.00037194396880
C           -3.50451012586187       -0.02715136921684        0.00016186121766
C            5.06368434991010       -4.81740437434620       -0.00096594012192
C           -1.37132401078233       -1.24159767749149        0.00019100417138
C            0.75913805633686       -2.46290742296184        0.00003441368680
C            3.60864680298488        4.89336367150478        0.00055943552975
C           -4.88605699675925       -0.06571568430719        0.00015558504503
C            3.67567567425356       -4.84890498503687       -0.00075850040798
C            5.68376763023771        3.69481104878394        0.00039235493989
C           -2.77303923990555       -1.25323904825685        0.00023085416758
C           -0.66099993149057       -2.47756393488595        0.00016710526298
C            1.47686447367126       -3.68151012222494       -0.00010062248607
C            1.42614569097411        3.69457388949332        0.00032444788774
C            3.56199753442063        2.47587799734018        0.00029144171717
C           -4.89808512016103       -2.47038056316697        0.00033516381156
C            5.67005145621739        1.25356686893427        0.00008013474302
C           -2.80251784960698       -3.71786905340188        0.00031969268236
C           -0.61900520685102       -4.89146872152208        0.00022888253067
C           -0.69771613509450        2.46309630886969        0.00006443050672
C            1.43672862891884        1.23638537244050        0.00019549051472
C            3.56223139739128        0.02246994683451        0.00004153804403
C           -4.94330525671470       -4.85940440816911        0.00044593669235
C            5.68529663673975       -1.18077767293526       -0.00029914923305
C           -2.80482118876157        1.21767383038876        0.00005114263793
C            5.73276874877817       -3.62062202165393       -0.00078204688791
C           -0.67764586798781       -0.00349895117423        0.00015113706350
C            1.45250153600797       -1.21991616996762        0.00004417168168
C            3.59353229125715       -2.43150736885107       -0.00027342629270
H           -6.73404702823260        3.60573448267618       -0.00112779199712
H            1.26354227488431       -5.82408321125947        0.00005892096933
H           -6.54820146792770       -1.25774230867919        0.00025969218802
H           -6.70382827051732       -3.62064564861616        0.00045907398805
H           -3.08308827587043       -5.85701824848623        0.00038804856718
H           -6.39499504976210        1.13692090136823       -0.87873075712479
H            5.61388159302731       -5.74771718089262       -0.00127257179097
H            3.19451921663095       -5.81302119465756       -0.00093413231166
H           -1.12092616634675       -5.84517359050442        0.00034702976900
H           -5.50384348556354       -5.78210966951547        0.00050297665850
H           -3.11361337377144        5.81783478283679       -0.00137996789781
H           -1.19390342531131        5.82460946948635        0.00011967662977
H           -5.53834831198384        5.76228294262680       -0.00185468436730
H            5.53384150077744        5.81966179343768        0.00066226422947
H            1.18473866876553        5.83325536157763        0.00048058397596
H            3.11434565390840        5.85078259630156        0.00067879451740
H            6.76394226721319        3.67979699783518        0.00036271057495
H            6.75069696619172        1.25490120986854        0.00002351124519
H            6.76592998264525       -1.16813864367686       -0.00040536593317
H            6.81260389149771       -3.58996313124655       -0.00092016685439
H           -6.39460841628664        1.13733980652848        0.87911522339529
75
 energy: -127.411455354600 gnorm: 0.000218973970 xtb: 6.7.1pre (5071a88)
C           -3.60719325948235        4.86062081213586       -0.00105790351576
C           -5.65334614856899        3.62301977913634       -0.00094680502765
C           -0.68485103126822        4.87546535445334        0.00009673377408