75
 energy: -127.411455358364 gnorm: 0.000220476672 xtb: 6.7.1pre (5071a88)
C           -3.60719325948235        4.86062081213586       -0.00105790351576
C           -5.65334614856899        3.62301977913634       -0.00094680502765
C           -0.68485103126822        4.87546535445334        0.00009673377408
C           -4.98011772814311        4.83866962030806       -0.00132477597025
C           -2.85670125139320        3.67683932272016       -0.00046801354669
C           -4.95307892268513        2.43710082449384       -0.00040845179651
C            4.99779487355823        4.88143719814742        0.00056156173072
C            0.68319177680998        4.87995790792579        0.00032641449665
C            0.74848102526101       -4.87779189762444        0.00005608514822
C            2.87018758288785        3.70878607074629        0.00040206795793
N           -5.53739905936315       -1.25557672521231        0.00025990351926
C            4.98804295158777        2.46931801064589        0.00026312439503
C           -3.48508422460638       -2.48257182914595        0.00029382085329
C           -1.36359610356821       -3.70389262273253        0.00023975141383
C           -1.41474335092867        3.67926497717592       -0.00011951249228
C            0.72321339766703        2.46744429598003        0.00018594104279
C            2.85444769782107        1.24498337452650        0.00016832569548
C           -5.62379674552916       -3.65029131239765        0.00041771648305
C            4.99363707240952        0.03247293926137       -0.00005336257352
C           -3.56734817646345       -4.89564364967745        0.00039953499111
C           -3.54383751785413        2.43997186715502       -0.00024760119498
C            5.01943077153389       -2.40529252660742       -0.00044618201537
C           -1.40138587526549        1.22051545705194        0.00005885798315
C            0.73963154412321        0.00478995911159        0.00010859138939
C            2.87007037393750       -1.20960341203340       -0.00006240684841
C           -5.73540712601421        1.15441899868053        0.00004337245448
C            2.91982974187000       -3.67432379952983       -0.00037320267190
C           -3.50491940436251       -0.02729310653397        0.00014545716672
C            5.06382542857631       -4.81765519261182       -0.00095040443093
C           -1.37152345364306       -1.24160325421700        0.00017196066940
C            0.75911573994360       -2.46297175626084        0.00002072324831
C            3.60922889987518        4.89355688039790        0.00055914685804
C           -4.88641559804160       -0.06583520425108        0.00014813823715
C            3.67592373024496       -4.84908595999433       -0.00074643079151
C            5.68410328874989        3.69480412328387        0.00040300281645
C           -2.77320328215025       -1.25337268026844        0.00021535279823
C           -0.66109139650259       -2.47762303215577        0.00015571804682
C            1.47691027950637       -3.68154844408642       -0.00010575917448
C            1.42629060241947        3.69482548404426        0.00031164786218
C            3.56208546166887        2.47598661091184        0.00028033293362
C           -4.89847324642177       -2.47053074759950        0.00033012980429
C            5.67018157350923        1.25355134927626        0.00008551380326
C           -2.80268999035228       -3.71798415526184        0.00032279573702
C           -0.61890985215412       -4.89164224876519        0.00023273615987
C           -0.69789273540648        2.46338823225865        0.00003976267189
C            1.43666930811681        1.23657537627680        0.00016777152663
C            3.56222996797046        0.02251545594830        0.00002576192458
C           -4.94305526252150       -4.85998946828382        0.00045228395095
C            5.68535607193763       -1.18090171694932       -0.00029815500993
C           -2.80512496601951        1.21776693156376        0.00003050964950
C            5.73283915841157       -3.62082771172851       -0.00077332832591
C           -0.67777123361319       -0.00338821973343        0.00012410774070
C            1.45245579504295       -1.21989204785696        0.00002264709542
C            3.59352303428625       -2.43155695901824       -0.00028114202395
H           -6.73428611885627        3.60581863386628       -0.00109812471676
H            1.26365468733145       -5.82421185343355        0.00006260935419
H           -6.54875342777556       -1.25770401079696        0.00026421582900
H           -6.70363325479834       -3.62190233558383        0.00044959578147
H           -3.08216363334940       -5.85706240678277        0.00041371005866
H           -6.39523796511650        1.13715485220097       -0.87871966591089
H            5.61394376144761       -5.74805212467423       -0.00124590792157
H            3.19444550619853       -5.81304702511662       -0.00091295943922
H           -1.12066141865370       -5.84542105758992        0.00035545092841
H           -5.50369744943838       -5.78267814691370        0.00051244080676
H           -3.11358780796338        5.81799391595507       -0.00136706976938
H           -1.19361027701662        5.82515050057623        0.00012852462908
H           -5.53849992865896        5.76276305238952       -0.00181672707944
H            5.53442954079343        5.81974992494765        0.00067803249541
H            1.18493126973963        5.83362119023831        0.00049795850928
H            3.11479727616777        5.85092978295690        0.00067895245861
H            6.76426035968251        3.67868219434580        0.00038264949812
H            6.75081173826613        1.25453941042691        0.00004207528007
H            6.76596788641908       -1.16800996505176       -0.00039616351371
H            6.81263933689306       -3.58924918315113       -0.00090656344425
H           -6.39483128871597        1.13756911811082        0.87912709954669
