      -----------------------------------------------------------      
     |                   =====================                   |     
     |                           x T B                           |     
     |                   =====================                   |     
     |                         S. Grimme                         |     
     |          Mulliken Center for Theoretical Chemistry        |     
     |                    University of Bonn                     |     
      -----------------------------------------------------------      

   * xtb version 6.7.1pre (5071a88) compiled by 'Marcel@Raven' on 2024-07-23

   xtb is free software: you can redistribute it and/or modify it under
   the terms of the GNU Lesser General Public License as published by
   the Free Software Foundation, either version 3 of the License, or
   (at your option) any later version.
   
   xtb is distributed in the hope that it will be useful,
   but WITHOUT ANY WARRANTY; without even the implied warranty of
   MERCHANTABILITY or FITNESS FOR A PARTICULAR PURPOSE.  See the
   GNU Lesser General Public License for more details.
   
   Cite this work as:
   * C. Bannwarth, E. Caldeweyher, S. Ehlert, A. Hansen, P. Pracht,
     J. Seibert, S. Spicher, S. Grimme, WIREs Comput. Mol. Sci., 2020, 11,
     e01493. DOI: 10.1002/wcms.1493
   
   for GFN2-xTB:
   * C. Bannwarth, S. Ehlert and S. Grimme., J. Chem. Theory Comput., 2019,
     15, 1652-1671. DOI: 10.1021/acs.jctc.8b01176
   for GFN1-xTB:
   * S. Grimme, C. Bannwarth, P. Shushkov, J. Chem. Theory Comput., 2017,
     13, 1989-2009. DOI: 10.1021/acs.jctc.7b00118
   for GFN0-xTB:
   * P. Pracht, E. Caldeweyher, S. Ehlert, S. Grimme, ChemRxiv, 2019, preprint.
     DOI: 10.26434/chemrxiv.8326202.v1
   for GFN-FF:
   * S. Spicher and S. Grimme, Angew. Chem. Int. Ed., 2020, 59, 15665-15673.
     DOI: 10.1002/anie.202004239
   
   for ALPB and GBSA implicit solvation:
   * S. Ehlert, M. Stahn, S. Spicher, S. Grimme, J. Chem. Theory Comput.,
     2021, 17, 4250-4261. DOI: 10.1021/acs.jctc.1c00471
   
   for ddCOSMO and CPCM-X implicit solvation:
   * M. Stahn, S. Ehlert, S. Grimme, J. Phys. Chem. A,
     2023, XX, XXXX-XXXX. DOI: 10.1021/acs.jpca.3c04382
   
   for DFT-D4:
   * E. Caldeweyher, C. Bannwarth and S. Grimme, J. Chem. Phys., 2017,
     147, 034112. DOI: 10.1063/1.4993215
   * E. Caldeweyher, S. Ehlert, A. Hansen, H. Neugebauer, S. Spicher,
     C. Bannwarth and S. Grimme, J. Chem. Phys., 2019, 150, 154122.
     DOI: 10.1063/1.5090222
   * E. Caldeweyher, J.-M. Mewes, S. Ehlert and S. Grimme, Phys. Chem. Chem. Phys.
     2020, 22, 8499-8512. DOI: 10.1039/D0CP00502A
   
   for sTDA-xTB:
   * S. Grimme and C. Bannwarth, J. Chem. Phys., 2016, 145, 054103.
     DOI: 10.1063/1.4959605
   
   in the mass-spec context:
   * V. Asgeirsson, C. Bauer and S. Grimme, Chem. Sci., 2017, 8, 4879.
     DOI: 10.1039/c7sc00601b
   * J. Koopman and S. Grimme, ACS Omega 2019, 4, 12, 15120-15133.
     DOI: 10.1021/acsomega.9b02011
   
   for metadynamics refer to:
   * S. Grimme, J. Chem. Theory Comput., 2019, 155, 2847-2862
     DOI: 10.1021/acs.jctc.9b00143
   
   for SPH calculations refer to:
   * S. Spicher and S. Grimme, J. Chem. Theory Comput., 2021, 17, 1701-1714
     DOI: 10.1021/acs.jctc.0c01306
   
   for ONIOM refer to:
   * C. Plett, A. Katbashev, S. Ehlert, S. Grimme, M. Bursch,
     Phys. Chem. Chem. Phys., 2023, 25, 17860-17868. DOI: 10.1039/D3CP02178E
   
   for DIPRO refer to:
   * J. Kohn, N. Gildemeister, S. Grimme, D. Fazzi, A. Hansen,
     J. Chem. Phys., 2023, just accepted.
   
   for PTB refer to:
   * S. Grimme, M. Mueller, A. Hansen, J. Chem. Phys., 2023, 158, 124111.
     DOI: 10.1063/5.0137838
   
   with help from (in alphabetical order)
   P. Atkinson, C. Bannwarth, F. Bohle, G. Brandenburg, E. Caldeweyher
   M. Checinski, S. Dohm, S. Ehlert, S. Ehrlich, I. Gerasimov, C. Hölzer
   A. Katbashev, J. Kohn, J. Koopman, C. Lavigne, S. Lehtola, F. März, M. Müller,
   F. Musil, H. Neugebauer, J. Pisarek, C. Plett, P. Pracht, F. Pultar,
   J. Seibert, P. Shushkov, S. Spicher, M. Stahn, M. Steiner, T. Strunk,
   J. Stückrath, T. Rose, and J. Unsleber
   
 * started run on 2025/12/08 at 00:45:23.428     
   ID    Z sym.   atoms
    1    6 C      1-167
    2    1 H      168-199
    3   16 S      200-202

           -------------------------------------------------
          |                Calculation Setup                |
           -------------------------------------------------

          program call               : xtb "C:\Users\LENOVO GAMING\Documents\GitHub\molecular-conductivity-sim\results\2nm-3Sdoped-1.5percent\xtbopt.xyz" --sp
          coordinate file            : C:\Users\LENOVO GAMING\Documents\GitHub\molecular-conductivity-sim\results\2nm-3Sdoped-1.5percent\xtbopt.xyz
          omp threads                :                    16


           -------------------------------------------------
          |                 G F N 2 - x T B                 |
           -------------------------------------------------

        Reference                      10.1021/acs.jctc.8b01176
      * Hamiltonian:
        H0-scaling (s, p, d)           1.850000    2.230000    2.230000
        zeta-weighting                 0.500000
      * Dispersion:
        s8                             2.700000
        a1                             0.520000
        a2                             5.000000
        s9                             5.000000
      * Repulsion:
        kExp                           1.500000    1.000000
        rExp                           1.000000
      * Coulomb:
        alpha                          2.000000
        third order                    shell-resolved
        anisotropic                    true
        a3                             3.000000
        a5                             4.000000
        cn-shift                       1.200000
        cn-exp                         4.000000
        max-rad                        5.000000

q/qsh data taken from xtbrestart
CAMM data taken from xtbrestart

          ...................................................
          :                      SETUP                      :
          :.................................................:
          :  # basis functions                 730          :
          :  # atomic orbitals                 727          :
          :  # shells                          375          :
          :  # electrons                       718          :
          :  max. iterations                   250          :
          :  Hamiltonian                  GFN2-xTB          :
          :  restarted?                       true          :
          :  GBSA solvation                  false          :
          :  PC potential                    false          :
          :  electronic temp.          300.0000000     K    :
          :  accuracy                    1.0000000          :
          :  -> integral cutoff          0.2500000E+02      :
          :  -> integral neglect         0.1000000E-07      :
          :  -> SCF convergence          0.1000000E-05 Eh   :
          :  -> wf. convergence          0.1000000E-03 e    :
          :  Broyden damping             0.4000000          :
          :  net charge                          0          :
          :  unpaired electrons                  0          :
          ...................................................

 iter      E             dE          RMSdq      gap      omega  full diag
   1   -392.5455065 -0.392546E+03  0.636E-06    0.01       0.0  T
   2   -392.5455065  0.371150E-07  0.310E-04    0.01      22.7  T
   3   -392.5455065 -0.371258E-07  0.385E-06    0.01    1828.1  T

   *** convergence criteria satisfied after 3 iterations ***

         #    Occupation            Energy/Eh            Energy/eV
      -------------------------------------------------------------
         1        2.0000           -0.7277425             -19.8029
       ...           ...                  ...                  ...
       353        2.0000           -0.3672073              -9.9922
       354        2.0000           -0.3643763              -9.9152
       355        2.0000           -0.3546033              -9.6492
       356        2.0000           -0.3521870              -9.5835
       357        2.0000           -0.3518307              -9.5738
       358        2.0000           -0.3419837              -9.3059
       359        1.1019           -0.3285312              -8.9398 (HOMO)
       360        0.8981           -0.3281427              -8.9292 (LUMO)
       361        0.0000           -0.3166932              -8.6177
       362                         -0.2964336              -8.0664
       363                         -0.2938101              -7.9950
       364                         -0.2903047              -7.8996
       ...                                ...                  ...
       727                          0.7880396              21.4436
      -------------------------------------------------------------
                  HL-Gap            0.0003884 Eh            0.0106 eV
             Fermi-level           -0.3283370 Eh           -8.9345 eV

 SCC (total)                   0 d,  0 h,  0 min,  0.767 sec
 SCC setup                      ...        0 min,  0.002 sec (  0.261%)
 Dispersion                     ...        0 min,  0.022 sec (  2.868%)
 classical contributions        ...        0 min,  0.001 sec (  0.130%)
 integral evaluation            ...        0 min,  0.054 sec (  7.040%)
 iterations                     ...        0 min,  0.497 sec ( 64.798%)
 molecular gradient             ...        0 min,  0.178 sec ( 23.207%)
 printout                       ...        0 min,  0.013 sec (  1.695%)

         :::::::::::::::::::::::::::::::::::::::::::::::::::::
         ::                     SUMMARY                     ::
         :::::::::::::::::::::::::::::::::::::::::::::::::::::
         :: total energy            -385.086537319650 Eh    ::
         :: gradient norm              0.000231337005 Eh/a0 ::
         :: HOMO-LUMO gap              0.010569986388 eV    ::
         ::.................................................::
         :: SCC energy              -392.562296584814 Eh    ::
         :: -> isotropic ES            0.004102673813 Eh    ::
         :: -> anisotropic ES          0.011549381130 Eh    ::
         :: -> anisotropic XC          0.131399622689 Eh    ::
         :: -> dispersion             -0.500368038517 Eh    ::
         :: repulsion energy           7.475759265164 Eh    ::
         :: add. restraining           0.000000000000 Eh    ::
         :: total charge              -0.000000000000 e     ::
         :::::::::::::::::::::::::::::::::::::::::::::::::::::

           -------------------------------------------------
          |                Property Printout                |
           -------------------------------------------------

    * Orbital Energies and Occupations

         #    Occupation            Energy/Eh            Energy/eV
      -------------------------------------------------------------
         1        2.0000           -0.7277425             -19.8029
       ...           ...                  ...                  ...
       347        2.0000           -0.3873543             -10.5404
       348        2.0000           -0.3859191             -10.5014
       349        2.0000           -0.3836784             -10.4404
       350        2.0000           -0.3830795             -10.4241
       351        2.0000           -0.3802136             -10.3461
       352        2.0000           -0.3700193             -10.0687
       353        2.0000           -0.3672073              -9.9922
       354        2.0000           -0.3643763              -9.9152
       355        2.0000           -0.3546033              -9.6492
       356        2.0000           -0.3521870              -9.5835
       357        2.0000           -0.3518307              -9.5738
       358        2.0000           -0.3419837              -9.3059
       359        1.1019           -0.3285312              -8.9398 (HOMO)
       360        0.8981           -0.3281427              -8.9292 (LUMO)
       361        0.0000           -0.3166932              -8.6177
       362                         -0.2964336              -8.0664
       363                         -0.2938101              -7.9950
       364                         -0.2903047              -7.8996
       365                         -0.2791575              -7.5963
       366                         -0.2769612              -7.5365
       367                         -0.2753008              -7.4913
       368                         -0.2667427              -7.2584
       369                         -0.2655722              -7.2266
       370                         -0.2632199              -7.1626
       ...                                ...                  ...
       727                          0.7880396              21.4436
      -------------------------------------------------------------
                  HL-Gap            0.0003884 Eh            0.0106 eV
             Fermi-level           -0.3283370 Eh           -8.9345 eV

     #   Z          covCN         q      C6AA      α(0)
     1   6 C        3.025    -0.043    29.042     8.840
     2   6 C        2.916    -0.028    28.709     8.786
     3   6 C        2.925    -0.043    29.059     8.840
     4   6 C        2.987     0.007    27.866     8.659
     5   6 C        2.973     0.047    26.935     8.513
     6   6 C        3.004     0.000    28.010     8.682
     7   6 C        2.971     0.004    27.927     8.668
     8   6 C        3.037    -0.055    29.331     8.883
     9   6 C        2.964     0.044    27.002     8.523
    10   6 C        2.998     0.000    28.011     8.682
    11   6 C        2.989     0.001    28.001     8.680
    12   6 C        2.927    -0.048    29.187     8.860
    13   6 C        2.984     0.014    27.704     8.634
    14   6 C        2.993    -0.003    28.095     8.695
    15   6 C        2.991     0.003    27.954     8.673
    16   6 C        3.031    -0.054    29.297     8.878
    17   6 C        2.985     0.014    27.702     8.634
    18   6 C        2.994    -0.004    28.114     8.698
    19   6 C        2.990     0.001    27.988     8.678
    20   6 C        2.965     0.046    26.961     8.517
    21   6 C        3.001    -0.002    28.052     8.688
    22   6 C        2.973     0.004    27.925     8.668
    23   6 C        3.027    -0.053    29.299     8.879
    24   6 C        2.965     0.045    26.988     8.521
    25   6 C        3.002    -0.001    28.029     8.685
    26   6 C        2.989     0.001    27.997     8.680
    27   6 C        2.922    -0.037    28.932     8.821
    28   6 C        2.988     0.013    27.711     8.635
    29   6 C        2.995    -0.001    28.050     8.688
    30   6 C        2.978     0.007    27.858     8.658
    31   6 C        2.914    -0.029    28.719     8.788
    32   6 C        2.923    -0.038    28.950     8.823
    33   6 C        2.983     0.005    27.914     8.667
    34   6 C        2.920    -0.037    28.925     8.819
    35   6 C        2.919    -0.037    28.912     8.817
    36   6 C        2.981     0.006    27.871     8.660
    37   6 C        2.983    -0.002    28.073     8.691
    38   6 C        2.988     0.002    27.963     8.674
    39   6 C        2.990     0.002    27.974     8.676
    40   6 C        2.987    -0.000    28.026     8.684
    41   6 C        2.988     0.000    28.016     8.683
    42   6 C        2.985     0.001    28.001     8.680
    43   6 C        2.987    -0.000    28.024     8.684
    44   6 C        2.989    -0.000    28.027     8.684
    45   6 C        2.991     0.001    28.005     8.681
    46   6 C        2.988    -0.000    28.024     8.684
    47   6 C        2.990    -0.000    28.022     8.683
    48   6 C        2.990    -0.000    28.020     8.683
    49   6 C        2.989     0.000    28.010     8.682
    50   6 C        2.989    -0.000    28.024     8.684
    51   6 C        2.991    -0.000    28.020     8.683
    52   6 C        2.990     0.000    28.018     8.683
    53   6 C        2.986    -0.002    28.061     8.689
    54   6 C        2.987     0.001    28.001     8.680
    55   6 C        2.989    -0.000    28.022     8.683
    56   6 C        2.990     0.000    28.019     8.683
    57   6 C        2.987     0.000    28.012     8.682
    58   6 C        2.986     0.000    28.014     8.682
    59   6 C        2.988    -0.000    28.024     8.684
    60   6 C        2.987     0.000    28.018     8.683
    61   6 C        2.981     0.005    27.905     8.665
    62   6 C        2.990     0.001    27.988     8.678
    63   6 C        2.992     0.001    27.985     8.678
    64   6 C        2.982     0.005    27.909     8.666
    65   6 C        2.920    -0.036    28.906     8.817
    66   6 C        2.920    -0.037    28.910     8.817
    67   6 C        2.991     0.008    27.831     8.654
    68   6 C        2.914    -0.029    28.716     8.787
    69   6 C        2.015    -0.069    32.898     9.263
    70   6 C        2.984     0.018    27.602     8.618
    71   6 C        2.988     0.000    28.013     8.682
    72   6 C        2.988    -0.002    28.067     8.690
    73   6 C        3.003     0.004    27.911     8.666
    74   6 C        2.989     0.002    27.981     8.677
    75   6 C        2.990     0.000    28.019     8.683
    76   6 C        2.988    -0.000    28.023     8.684
    77   6 C        2.990    -0.000    28.021     8.683
    78   6 C        2.991    -0.000    28.020     8.683
    79   6 C        2.991     0.000    28.016     8.683
    80   6 C        2.990    -0.000    28.020     8.683
    81   6 C        2.990    -0.000    28.023     8.684
    82   6 C        2.991     0.000    28.014     8.682
    83   6 C        2.991    -0.000    28.021     8.683
    84   6 C        2.991    -0.000    28.025     8.684
    85   6 C        2.991    -0.000    28.022     8.683
    86   6 C        2.991     0.000    28.019     8.683
    87   6 C        2.991    -0.000    28.029     8.685
    88   6 C        2.991     0.000    28.014     8.682
    89   6 C        2.991     0.000    28.016     8.682
    90   6 C        2.990    -0.001    28.032     8.685
    91   6 C        2.988     0.000    28.020     8.683
    92   6 C        2.989    -0.000    28.020     8.683
    93   6 C        2.989     0.000    28.020     8.683
    94   6 C        2.987    -0.000    28.021     8.683
    95   6 C        2.982     0.005    27.907     8.666
    96   6 C        2.991     0.001    27.988     8.678
    97   6 C        2.991     0.001    27.987     8.678
    98   6 C        2.981     0.005    27.906     8.665
    99   6 C        2.919    -0.037    28.910     8.817
   100   6 C        2.919    -0.037    28.912     8.817
   101   6 C        2.986     0.009    27.806     8.650
   102   6 C        2.919    -0.033    28.826     8.804
   103   6 C        2.919    -0.035    28.874     8.812
   104   6 C        2.977     0.005    27.903     8.665
   105   6 C        2.989     0.000    28.015     8.682
   106   6 C        2.993     0.001    27.993     8.679
   107   6 C        2.990     0.002    27.980     8.677
   108   6 C        2.988    -0.000    28.025     8.684
   109   6 C        2.990    -0.000    28.028     8.684
   110   6 C        2.991     0.000    28.011     8.682
   111   6 C        2.988    -0.000    28.031     8.685
   112   6 C        2.991    -0.001    28.039     8.686
   113   6 C        2.990    -0.000    28.026     8.684
   114   6 C        2.991     0.000    28.014     8.682
   115   6 C        2.990    -0.000    28.022     8.684
   116   6 C        2.991    -0.000    28.020     8.683
   117   6 C        2.990     0.000    28.020     8.683
   118   6 C        2.991    -0.000    28.025     8.684
   119   6 C        2.989    -0.000    28.025     8.684
   120   6 C        2.988     0.001    28.007     8.681
   121   6 C        2.989     0.000    28.017     8.683
   122   6 C        2.989    -0.000    28.025     8.684
   123   6 C        2.986     0.001    28.008     8.681
   124   6 C        2.985    -0.002    28.057     8.689
   125   6 C        2.987     0.000    28.017     8.683
   126   6 C        2.987    -0.000    28.024     8.684
   127   6 C        2.985     0.000    28.014     8.682
   128   6 C        2.985     0.000    28.012     8.682
   129   6 C        2.981     0.005    27.910     8.666
   130   6 C        2.991     0.001    27.985     8.678
   131   6 C        2.989     0.001    27.988     8.678
   132   6 C        2.981     0.005    27.905     8.665
   133   6 C        2.920    -0.037    28.913     8.818
   134   6 C        2.920    -0.037    28.910     8.817
   135   6 C        2.975     0.007    27.866     8.659
   136   6 C        2.921    -0.036    28.887     8.814
   137   6 C        2.912    -0.029    28.733     8.790
   138   6 C        2.921    -0.036    28.900     8.816
   139   6 C        2.986     0.001    27.991     8.679
   140   6 C        2.994     0.002    27.974     8.676
   141   6 C        2.979     0.013    27.718     8.636
   142   6 C        2.924    -0.044    29.094     8.846
   143   6 C        2.989     0.001    27.989     8.678
   144   6 C        2.993     0.000    28.014     8.682
   145   6 C        2.974     0.012    27.733     8.638
   146   6 C        2.924    -0.045    29.119     8.849
   147   6 C        2.990     0.002    27.976     8.676
   148   6 C        2.994    -0.000    28.023     8.684
   149   6 C        2.975     0.013    27.715     8.636
   150   6 C        2.925    -0.046    29.155     8.855
   151   6 C        2.990     0.001    28.000     8.680
   152   6 C        2.994    -0.003    28.081     8.693
   153   6 C        2.981     0.013    27.723     8.637
   154   6 C        3.029    -0.054    29.307     8.880
   155   6 C        2.973     0.004    27.928     8.669
   156   6 C        3.002    -0.001    28.046     8.687
   157   6 C        2.965     0.046    26.968     8.518
   158   6 C        2.988     0.001    27.999     8.680
   159   6 C        3.001    -0.001    28.033     8.685
   160   6 C        2.965     0.045    26.986     8.521
   161   6 C        3.031    -0.053    29.290     8.877
   162   6 C        2.978     0.007    27.860     8.658
   163   6 C        2.995    -0.001    28.051     8.688
   164   6 C        2.988     0.013    27.713     8.635
   165   6 C        2.923    -0.037    28.932     8.821
   166   6 C        2.923    -0.038    28.951     8.824
   167   6 C        2.914    -0.029    28.720     8.788
   168   1 H        0.926     0.043     2.412     2.428
   169   1 H        0.926     0.038     2.480     2.463
   170   1 H        0.926     0.039     2.463     2.454
   171   1 H        0.926     0.041     2.434     2.440
   172   1 H        0.926     0.036     2.498     2.472
   173   1 H        0.926     0.042     2.423     2.434
   174   1 H        0.926     0.041     2.432     2.439
   175   1 H        0.926     0.034     2.530     2.487
   176   1 H        0.926     0.036     2.499     2.472
   177   1 H        0.926     0.036     2.497     2.471
   178   1 H        0.926     0.048     2.344     2.394
   179   1 H        0.926     0.041     2.435     2.440
   180   1 H        0.926     0.036     2.507     2.476
   181   1 H        0.926     0.034     2.535     2.490
   182   1 H        0.926     0.031     2.574     2.509
   183   1 H        0.926     0.032     2.553     2.499
   184   1 H        0.926     0.033     2.544     2.494
   185   1 H        0.926     0.033     2.544     2.494
   186   1 H        0.926     0.034     2.528     2.486
   187   1 H        0.926     0.041     2.436     2.441
   188   1 H        0.926     0.041     2.434     2.440
   189   1 H        0.926     0.034     2.530     2.488
   190   1 H        0.926     0.031     2.565     2.505
   191   1 H        0.926     0.032     2.564     2.504
   192   1 H        0.926     0.034     2.535     2.490
   193   1 H        0.926     0.035     2.519     2.482
   194   1 H        0.926     0.034     2.524     2.484
   195   1 H        0.926     0.034     2.527     2.486
   196   1 H        0.926     0.034     2.527     2.486
   197   1 H        0.926     0.034     2.524     2.484
   198   1 H        0.926     0.035     2.519     2.482
   199   1 H        0.926     0.034     2.534     2.490
   200  16 S        2.228    -0.106   145.494    20.301
   201  16 S        2.225    -0.115   145.874    20.328
   202  16 S        2.227    -0.118   145.995    20.336

 Mol. C6AA /au·bohr⁶  :     946444.114282
 Mol. C8AA /au·bohr⁸  :   26982499.068445
 Mol. α(0) /au        :       1593.512983


Wiberg/Mayer (AO) data.
largest (>0.10) Wiberg bond orders for each atom

 ---------------------------------------------------------------------------
     #   Z sym  total        # sym  WBO       # sym  WBO       # sym  WBO
 ---------------------------------------------------------------------------
     1   6 C    3.972 --     5 C    1.416     2 C    1.402   168 H    0.967
     2   6 C    3.977 --     3 C    1.472     1 C    1.402   169 H    0.969
     3   6 C    3.975 --     2 C    1.472     4 C    1.345   170 H    0.960
     4   6 C    3.975 --     3 C    1.345     6 C    1.281    33 C    1.145
     5   6 C    3.954 --     1 C    1.416     6 C    1.298   200 S    1.063
     6   6 C    3.977 --     5 C    1.298     4 C    1.281     7 C    1.168
     7   6 C    3.948 --    37 C    1.287    10 C    1.272     6 C    1.168
     8   6 C    3.950 --     9 C    1.530    13 C    1.235   171 H    0.963
     9   6 C    3.945 --     8 C    1.530    10 C    1.205   200 S    1.052
    10   6 C    3.946 --     7 C    1.272    11 C    1.253     9 C    1.205
    11   6 C    3.973 --    10 C    1.253    14 C    1.252    41 C    1.240
    12   6 C    3.901 --    13 C    1.366    17 C    1.343   172 H    0.966
    13   6 C    3.977 --    12 C    1.366     8 C    1.235    14 C    1.212
    14   6 C    3.959 --    15 C    1.270    11 C    1.252    13 C    1.212
    15   6 C    3.979 --    14 C    1.270    18 C    1.266    45 C    1.221
    16   6 C    3.939 --    20 C    1.509    17 C    1.250   173 H    0.964
    17   6 C    3.976 --    12 C    1.343    16 C    1.250    18 C    1.218
    18   6 C    3.961 --    15 C    1.266    19 C    1.249    17 C    1.218
    19   6 C    3.974 --    21 C    1.273    18 C    1.249    49 C    1.224
    20   6 C    3.946 --    16 C    1.509    21 C    1.224   201 S    1.053
    21   6 C    3.934 --    19 C    1.273    22 C    1.225    20 C    1.224
    22   6 C    3.949 --    53 C    1.273    25 C    1.233    21 C    1.225
    23   6 C    3.954 --    24 C    1.521    28 C    1.246   174 H    0.964
    24   6 C    3.957 --    23 C    1.521    25 C    1.216   201 S    1.051
    25   6 C    3.947 --    26 C    1.281    22 C    1.233    24 C    1.216
    26   6 C    3.974 --    25 C    1.281    29 C    1.234    57 C    1.228
    27   6 C    3.945 --    31 C    1.478    28 C    1.314   175 H    0.969
    28   6 C    3.984 --    27 C    1.314    29 C    1.249    23 C    1.246
    29   6 C    3.983 --    30 C    1.264    28 C    1.249    26 C    1.234
    30   6 C    3.982 --    32 C    1.387    29 C    1.264    61 C    1.136
    31   6 C    3.982 --    27 C    1.478    32 C    1.407   191 H    0.970
    32   6 C    3.939 --    31 C    1.407    30 C    1.387   192 H    0.962
    33   6 C    3.961 --    34 C    1.318    38 C    1.298     4 C    1.145
    34   6 C    3.964 --    35 C    1.515    33 C    1.318   176 H    0.960
    35   6 C    3.960 --    34 C    1.515    36 C    1.316   177 H    0.959
    36   6 C    3.953 --    35 C    1.316    39 C    1.277    67 C    1.163
    37   6 C    3.966 --     7 C    1.287    42 C    1.251    38 C    1.203
    38   6 C    3.979 --    33 C    1.298    39 C    1.252    37 C    1.203
    39   6 C    3.972 --    36 C    1.277    38 C    1.252    40 C    1.217
    40   6 C    3.957 --    43 C    1.265    71 C    1.261    39 C    1.217
    41   6 C    3.966 --    42 C    1.275    11 C    1.240    46 C    1.229
    42   6 C    3.966 --    41 C    1.275    37 C    1.251    43 C    1.219
    43   6 C    3.955 --    40 C    1.265    44 C    1.258    42 C    1.219
    44   6 C    3.964 --    43 C    1.258    75 C    1.249    47 C    1.239
    45   6 C    3.953 --    46 C    1.271    50 C    1.251    15 C    1.221
    46   6 C    3.963 --    45 C    1.271    47 C    1.244    41 C    1.229
    47   6 C    3.958 --    48 C    1.260    46 C    1.244    44 C    1.239
    48   6 C    3.960 --    47 C    1.260    51 C    1.251    79 C    1.232
    49   6 C    3.958 --    54 C    1.275    50 C    1.242    19 C    1.224
    50   6 C    3.963 --    51 C    1.252    45 C    1.251    49 C    1.242
    51   6 C    3.960 --    50 C    1.252    48 C    1.251    52 C    1.243
    52   6 C    3.961 --    55 C    1.270    51 C    1.243    83 C    1.232
    53   6 C    3.966 --    22 C    1.273    58 C    1.236    54 C    1.235
    54   6 C    3.964 --    49 C    1.275    53 C    1.235    55 C    1.235
    55   6 C    3.954 --    52 C    1.270    56 C    1.237    54 C    1.235
    56   6 C    3.960 --    59 C    1.257    87 C    1.252    55 C    1.237
    57   6 C    3.954 --    58 C    1.297    26 C    1.228    62 C    1.212
    58   6 C    3.968 --    57 C    1.297    53 C    1.236    59 C    1.213
    59   6 C    3.958 --    60 C    1.273    56 C    1.257    58 C    1.213
    60   6 C    3.961 --    59 C    1.273    91 C    1.247    63 C    1.222
    61   6 C    3.954 --    65 C    1.338    62 C    1.287    30 C    1.136
    62   6 C    3.980 --    61 C    1.287    63 C    1.254    57 C    1.212
    63   6 C    3.978 --    64 C    1.278    62 C    1.254    60 C    1.222
    64   6 C    3.964 --    66 C    1.333    63 C    1.278    95 C    1.154
    65   6 C    3.969 --    66 C    1.495    61 C    1.338   193 H    0.960
    66   6 C    3.956 --    65 C    1.495    64 C    1.333   194 H    0.961
    67   6 C    3.895 --    72 C    1.292    68 C    1.242    36 C    1.163
    68   6 C    3.925 --    69 C    1.568    67 C    1.242   178 H    0.943
    69   6 C    3.114 --    68 C    1.568    70 C    1.344
    70   6 C    3.919 --    69 C    1.344    73 C    1.221   101 C    1.159
    71   6 C    3.951 --    76 C    1.265    40 C    1.261    72 C    1.208
    72   6 C    3.977 --    67 C    1.292    73 C    1.255    71 C    1.208
    73   6 C    3.920 --    72 C    1.255    70 C    1.221    74 C    1.218
    74   6 C    3.946 --    77 C    1.262   105 C    1.251    73 C    1.218
    75   6 C    3.961 --    76 C    1.259    44 C    1.249    80 C    1.236
    76   6 C    3.959 --    71 C    1.265    75 C    1.259    77 C    1.220
    77   6 C    3.954 --    74 C    1.262    78 C    1.255    76 C    1.220
    78   6 C    3.959 --    77 C    1.255   109 C    1.249    81 C    1.240
    79   6 C    3.957 --    80 C    1.266    84 C    1.246    48 C    1.232
    80   6 C    3.957 --    79 C    1.266    81 C    1.242    75 C    1.236
    81   6 C    3.957 --    82 C    1.262    80 C    1.242    78 C    1.240
    82   6 C    3.957 --    81 C    1.262    85 C    1.250   113 C    1.231
    83   6 C    3.958 --    88 C    1.265    84 C    1.247    52 C    1.232
    84   6 C    3.959 --    85 C    1.251    83 C    1.247    79 C    1.246
    85   6 C    3.960 --    84 C    1.251    82 C    1.250    86 C    1.244
    86   6 C    3.957 --    89 C    1.269    85 C    1.244   117 C    1.230
    87   6 C    3.962 --    92 C    1.252    56 C    1.252    88 C    1.242
    88   6 C    3.957 --    83 C    1.265    87 C    1.242    89 C    1.237
    89   6 C    3.958 --    86 C    1.269    90 C    1.238    88 C    1.237
    90   6 C    3.960 --    93 C    1.256   121 C    1.251    89 C    1.238
    91   6 C    3.958 --    92 C    1.276    60 C    1.247    96 C    1.218
    92   6 C    3.961 --    91 C    1.276    87 C    1.252    93 C    1.216
    93   6 C    3.961 --    94 C    1.274    90 C    1.256    92 C    1.216
    94   6 C    3.956 --    93 C    1.274   125 C    1.248    97 C    1.219
    95   6 C    3.958 --    99 C    1.323    96 C    1.285    64 C    1.154
    96   6 C    3.978 --    95 C    1.285    97 C    1.251    91 C    1.218
    97   6 C    3.978 --    98 C    1.284    96 C    1.251    94 C    1.219
    98   6 C    3.958 --   100 C    1.323    97 C    1.284   129 C    1.155
    99   6 C    3.960 --   100 C    1.508    95 C    1.323   195 H    0.961
   100   6 C    3.960 --    99 C    1.508    98 C    1.323   196 H    0.960
   101   6 C    3.955 --   102 C    1.318   106 C    1.282    70 C    1.159
   102   6 C    3.943 --   103 C    1.503   101 C    1.318   179 H    0.963
   103   6 C    3.968 --   102 C    1.503   104 C    1.332   180 H    0.960
   104   6 C    3.945 --   103 C    1.332   107 C    1.284   135 C    1.139
   105   6 C    3.961 --   110 C    1.271    74 C    1.251   106 C    1.219
   106   6 C    3.976 --   101 C    1.282   107 C    1.250   105 C    1.219
   107   6 C    3.981 --   104 C    1.284   106 C    1.250   108 C    1.222
   108   6 C    3.937 --   111 C    1.279   139 C    1.231   107 C    1.222
   109   6 C    3.963 --   110 C    1.258    78 C    1.249   114 C    1.239
   110   6 C    3.957 --   105 C    1.271   109 C    1.258   111 C    1.215
   111   6 C    3.969 --   108 C    1.279   112 C    1.255   110 C    1.215
   112   6 C    3.949 --   111 C    1.255   115 C    1.247   143 C    1.237
   113   6 C    3.961 --   114 C    1.269   118 C    1.245    82 C    1.231
   114   6 C    3.953 --   113 C    1.269   109 C    1.239   115 C    1.234
   115   6 C    3.965 --   116 C    1.266   112 C    1.247   114 C    1.234
   116   6 C    3.951 --   115 C    1.266   119 C    1.253   147 C    1.221
   117   6 C    3.961 --   122 C    1.265   118 C    1.250    86 C    1.230
   118   6 C    3.956 --   117 C    1.250   119 C    1.249   113 C    1.245
   119   6 C    3.964 --   116 C    1.253   118 C    1.249   120 C    1.243
   120   6 C    3.956 --   123 C    1.277   119 C    1.243   151 C    1.220
   121   6 C    3.960 --   126 C    1.255    90 C    1.251   122 C    1.239
   122   6 C    3.952 --   117 C    1.265   121 C    1.239   123 C    1.236
   123   6 C    3.964 --   120 C    1.277   122 C    1.236   124 C    1.231
   124   6 C    3.961 --   155 C    1.270   127 C    1.241   123 C    1.231
   125   6 C    3.962 --   126 C    1.274    94 C    1.248   130 C    1.221
   126   6 C    3.957 --   125 C    1.274   121 C    1.255   127 C    1.214
   127   6 C    3.967 --   128 C    1.291   124 C    1.241   126 C    1.214
   128   6 C    3.949 --   127 C    1.291   158 C    1.229   131 C    1.214
   129   6 C    3.964 --   133 C    1.330   130 C    1.279    98 C    1.155
   130   6 C    3.977 --   129 C    1.279   131 C    1.253   125 C    1.221
   131   6 C    3.980 --   132 C    1.286   130 C    1.253   128 C    1.214
   132   6 C    3.952 --   134 C    1.337   131 C    1.286   162 C    1.138
   133   6 C    3.955 --   134 C    1.497   129 C    1.330   197 H    0.960
   134   6 C    3.969 --   133 C    1.497   132 C    1.337   198 H    0.960
   135   6 C    3.979 --   136 C    1.376   140 C    1.273   104 C    1.139
   136   6 C    3.885 --   137 C    1.392   135 C    1.376   181 H    0.962
   137   6 C    3.983 --   138 C    1.497   136 C    1.392   182 H    0.970
   138   6 C    3.891 --   137 C    1.497   141 C    1.276   183 H    0.969
   139   6 C    3.974 --   144 C    1.286   140 C    1.239   108 C    1.231
   140   6 C    3.944 --   135 C    1.273   139 C    1.239   141 C    1.218
   141   6 C    3.985 --   142 C    1.330   138 C    1.276   140 C    1.218
   142   6 C    3.780 --   145 C    1.333   141 C    1.330   184 H    0.966
   143   6 C    3.974 --   144 C    1.266   148 C    1.255   112 C    1.237
   144   6 C    3.950 --   139 C    1.286   143 C    1.266   145 C    1.176
   145   6 C    3.985 --   142 C    1.333   146 C    1.319   144 C    1.176
   146   6 C    3.760 --   149 C    1.334   145 C    1.319   185 H    0.966
   147   6 C    3.974 --   148 C    1.284   152 C    1.253   116 C    1.221
   148   6 C    3.938 --   147 C    1.284   143 C    1.255   149 C    1.184
   149   6 C    3.979 --   146 C    1.334   150 C    1.309   148 C    1.184
   150   6 C    3.824 --   153 C    1.370   149 C    1.309   186 H    0.966
   151   6 C    3.971 --   152 C    1.264   156 C    1.263   120 C    1.220
   152   6 C    3.934 --   151 C    1.264   147 C    1.253   153 C    1.206
   153   6 C    3.977 --   150 C    1.370   154 C    1.240   152 C    1.206
   154   6 C    3.929 --   157 C    1.516   153 C    1.240   187 H    0.964
   155   6 C    3.948 --   124 C    1.270   156 C    1.233   159 C    1.229
   156   6 C    3.918 --   151 C    1.263   155 C    1.233   157 C    1.220
   157   6 C    3.946 --   154 C    1.516   156 C    1.220   202 S    1.051
   158   6 C    3.974 --   159 C    1.280   163 C    1.234   128 C    1.229
   159   6 C    3.944 --   158 C    1.280   155 C    1.229   160 C    1.219
   160   6 C    3.957 --   161 C    1.519   159 C    1.219   202 S    1.050
   161   6 C    3.951 --   160 C    1.519   164 C    1.248   188 H    0.964
   162   6 C    3.982 --   166 C    1.385   163 C    1.264   132 C    1.138
   163   6 C    3.983 --   162 C    1.264   164 C    1.249   158 C    1.234
   164   6 C    3.984 --   165 C    1.312   163 C    1.249   161 C    1.248
   165   6 C    3.943 --   167 C    1.478   164 C    1.312   189 H    0.969
   166   6 C    3.937 --   167 C    1.408   162 C    1.385   199 H    0.961
   167   6 C    3.982 --   165 C    1.478   166 C    1.408   190 H    0.970
   168   1 H    0.997 --     1 C    0.967
   169   1 H    0.997 --     2 C    0.969
   170   1 H    0.997 --     3 C    0.960
   171   1 H    0.997 --     8 C    0.963
   172   1 H    0.997 --    12 C    0.966
   173   1 H    0.997 --    16 C    0.964
   174   1 H    0.997 --    23 C    0.964
   175   1 H    0.998 --    27 C    0.969
   176   1 H    0.998 --    34 C    0.960
   177   1 H    0.997 --    35 C    0.959
   178   1 H    0.980 --    68 C    0.943
   179   1 H    0.997 --   102 C    0.963
   180   1 H    0.997 --   103 C    0.960
   181   1 H    0.998 --   136 C    0.962
   182   1 H    0.998 --   137 C    0.970
   183   1 H    0.998 --   138 C    0.969
   184   1 H    0.998 --   142 C    0.966
   185   1 H    0.998 --   146 C    0.966
   186   1 H    0.997 --   150 C    0.966
   187   1 H    0.997 --   154 C    0.964
   188   1 H    0.997 --   161 C    0.964
   189   1 H    0.998 --   165 C    0.969
   190   1 H    0.998 --   167 C    0.970
   191   1 H    0.998 --    31 C    0.970
   192   1 H    0.998 --    32 C    0.962
   193   1 H    0.998 --    65 C    0.960
   194   1 H    0.998 --    66 C    0.961
   195   1 H    0.998 --    99 C    0.961
   196   1 H    0.998 --   100 C    0.960
   197   1 H    0.998 --   133 C    0.960
   198   1 H    0.998 --   134 C    0.960
   199   1 H    0.998 --   166 C    0.961
   200  16 S    2.437 --     5 C    1.063     9 C    1.052
   201  16 S    2.413 --    20 C    1.053    24 C    1.051
   202  16 S    2.410 --   157 C    1.051   160 C    1.050
 ---------------------------------------------------------------------------

Topologies differ in total number of bonds
Writing topology from bond orders to xtbtopo.mol

molecular dipole:
                 x           y           z       tot (Debye)
 q only:       -0.369       0.418       0.589
   full:       -0.481       0.340       0.778       2.480
molecular quadrupole (traceless):
                xx          xy          yy          xz          yz          zz
 q only:      -28.519       8.447      57.470       2.558      -3.805     -28.952
  q+dip:       -6.216      12.881     101.025       4.731      -7.000     -94.809
   full:      -37.061      12.817      72.568       4.760      -6.164     -35.507


           -------------------------------------------------
          | TOTAL ENERGY             -385.086537319650 Eh   |
          | GRADIENT NORM               0.000231337005 Eh/α |
          | HOMO-LUMO GAP               0.010569986388 eV   |
           -------------------------------------------------

------------------------------------------------------------------------
 * finished run on 2025/12/08 at 00:45:24.333     
------------------------------------------------------------------------
 total:
 * wall-time:     0 d,  0 h,  0 min,  0.902 sec
 *  cpu-time:     0 d,  0 h,  0 min, 11.891 sec
 * ratio c/w:    13.183 speedup
 SCF:
 * wall-time:     0 d,  0 h,  0 min,  0.772 sec
 *  cpu-time:     0 d,  0 h,  0 min, 10.406 sec
 * ratio c/w:    13.480 speedup

normal termination of xtb
