      -----------------------------------------------------------      
     |                   =====================                   |     
     |                           x T B                           |     
     |                   =====================                   |     
     |                         S. Grimme                         |     
     |          Mulliken Center for Theoretical Chemistry        |     
     |                    University of Bonn                     |     
      -----------------------------------------------------------      

   * xtb version 6.7.1pre (5071a88) compiled by 'Marcel@Raven' on 2024-07-23

   xtb is free software: you can redistribute it and/or modify it under
   the terms of the GNU Lesser General Public License as published by
   the Free Software Foundation, either version 3 of the License, or
   (at your option) any later version.
   
   xtb is distributed in the hope that it will be useful,
   but WITHOUT ANY WARRANTY; without even the implied warranty of
   MERCHANTABILITY or FITNESS FOR A PARTICULAR PURPOSE.  See the
   GNU Lesser General Public License for more details.
   
   Cite this work as:
   * C. Bannwarth, E. Caldeweyher, S. Ehlert, A. Hansen, P. Pracht,
     J. Seibert, S. Spicher, S. Grimme, WIREs Comput. Mol. Sci., 2020, 11,
     e01493. DOI: 10.1002/wcms.1493
   
   for GFN2-xTB:
   * C. Bannwarth, S. Ehlert and S. Grimme., J. Chem. Theory Comput., 2019,
     15, 1652-1671. DOI: 10.1021/acs.jctc.8b01176
   for GFN1-xTB:
   * S. Grimme, C. Bannwarth, P. Shushkov, J. Chem. Theory Comput., 2017,
     13, 1989-2009. DOI: 10.1021/acs.jctc.7b00118
   for GFN0-xTB:
   * P. Pracht, E. Caldeweyher, S. Ehlert, S. Grimme, ChemRxiv, 2019, preprint.
     DOI: 10.26434/chemrxiv.8326202.v1
   for GFN-FF:
   * S. Spicher and S. Grimme, Angew. Chem. Int. Ed., 2020, 59, 15665-15673.
     DOI: 10.1002/anie.202004239
   
   for ALPB and GBSA implicit solvation:
   * S. Ehlert, M. Stahn, S. Spicher, S. Grimme, J. Chem. Theory Comput.,
     2021, 17, 4250-4261. DOI: 10.1021/acs.jctc.1c00471
   
   for ddCOSMO and CPCM-X implicit solvation:
   * M. Stahn, S. Ehlert, S. Grimme, J. Phys. Chem. A,
     2023, XX, XXXX-XXXX. DOI: 10.1021/acs.jpca.3c04382
   
   for DFT-D4:
   * E. Caldeweyher, C. Bannwarth and S. Grimme, J. Chem. Phys., 2017,
     147, 034112. DOI: 10.1063/1.4993215
   * E. Caldeweyher, S. Ehlert, A. Hansen, H. Neugebauer, S. Spicher,
     C. Bannwarth and S. Grimme, J. Chem. Phys., 2019, 150, 154122.
     DOI: 10.1063/1.5090222
   * E. Caldeweyher, J.-M. Mewes, S. Ehlert and S. Grimme, Phys. Chem. Chem. Phys.
     2020, 22, 8499-8512. DOI: 10.1039/D0CP00502A
   
   for sTDA-xTB:
   * S. Grimme and C. Bannwarth, J. Chem. Phys., 2016, 145, 054103.
     DOI: 10.1063/1.4959605
   
   in the mass-spec context:
   * V. Asgeirsson, C. Bauer and S. Grimme, Chem. Sci., 2017, 8, 4879.
     DOI: 10.1039/c7sc00601b
   * J. Koopman and S. Grimme, ACS Omega 2019, 4, 12, 15120-15133.
     DOI: 10.1021/acsomega.9b02011
   
   for metadynamics refer to:
   * S. Grimme, J. Chem. Theory Comput., 2019, 155, 2847-2862
     DOI: 10.1021/acs.jctc.9b00143
   
   for SPH calculations refer to:
   * S. Spicher and S. Grimme, J. Chem. Theory Comput., 2021, 17, 1701-1714
     DOI: 10.1021/acs.jctc.0c01306
   
   for ONIOM refer to:
   * C. Plett, A. Katbashev, S. Ehlert, S. Grimme, M. Bursch,
     Phys. Chem. Chem. Phys., 2023, 25, 17860-17868. DOI: 10.1039/D3CP02178E
   
   for DIPRO refer to:
   * J. Kohn, N. Gildemeister, S. Grimme, D. Fazzi, A. Hansen,
     J. Chem. Phys., 2023, just accepted.
   
   for PTB refer to:
   * S. Grimme, M. Mueller, A. Hansen, J. Chem. Phys., 2023, 158, 124111.
     DOI: 10.1063/5.0137838
   
   with help from (in alphabetical order)
   P. Atkinson, C. Bannwarth, F. Bohle, G. Brandenburg, E. Caldeweyher
   M. Checinski, S. Dohm, S. Ehlert, S. Ehrlich, I. Gerasimov, C. Hölzer
   A. Katbashev, J. Kohn, J. Koopman, C. Lavigne, S. Lehtola, F. März, M. Müller,
   F. Musil, H. Neugebauer, J. Pisarek, C. Plett, P. Pracht, F. Pultar,
   J. Seibert, P. Shushkov, S. Spicher, M. Stahn, M. Steiner, T. Strunk,
   J. Stückrath, T. Rose, and J. Unsleber
   
 * started run on 2025/12/08 at 00:44:23.873     
   ID    Z sym.   atoms
    1    6 C      1-167
    2    1 H      168-199
    3   16 S      200-202

           -------------------------------------------------
          |                Calculation Setup                |
           -------------------------------------------------

          program call               : xtb "C:\Users\LENOVO GAMING\Documents\GitHub\molecular-conductivity-sim\dataset\2nm-3Sdoped-1.5percent.xyz" --opt --parallel 4
          coordinate file            : C:\Users\LENOVO GAMING\Documents\GitHub\molecular-conductivity-sim\dataset\2nm-3Sdoped-1.5percent.xyz
          omp threads                :                     4


           -------------------------------------------------
          |                 G F N 2 - x T B                 |
           -------------------------------------------------

        Reference                      10.1021/acs.jctc.8b01176
      * Hamiltonian:
        H0-scaling (s, p, d)           1.850000    2.230000    2.230000
        zeta-weighting                 0.500000
      * Dispersion:
        s8                             2.700000
        a1                             0.520000
        a2                             5.000000
        s9                             5.000000
      * Repulsion:
        kExp                           1.500000    1.000000
        rExp                           1.000000
      * Coulomb:
        alpha                          2.000000
        third order                    shell-resolved
        anisotropic                    true
        a3                             3.000000
        a5                             4.000000
        cn-shift                       1.200000
        cn-exp                         4.000000
        max-rad                        5.000000


          ...................................................
          :                      SETUP                      :
          :.................................................:
          :  # basis functions                 730          :
          :  # atomic orbitals                 727          :
          :  # shells                          375          :
          :  # electrons                       718          :
          :  max. iterations                   250          :
          :  Hamiltonian                  GFN2-xTB          :
          :  restarted?                      false          :
          :  GBSA solvation                  false          :
          :  PC potential                    false          :
          :  electronic temp.          300.0000000     K    :
          :  accuracy                    1.0000000          :
          :  -> integral cutoff          0.2500000E+02      :
          :  -> integral neglect         0.1000000E-07      :
          :  -> SCF convergence          0.1000000E-05 Eh   :
          :  -> wf. convergence          0.1000000E-03 e    :
          :  Broyden damping             0.4000000          :
          :  net charge                          0          :
          :  unpaired electrons                  0          :
          ...................................................

 iter      E             dE          RMSdq      gap      omega  full diag
   1   -391.7351993 -0.391735E+03  0.509E+00    0.34       0.0  T
   2   -389.2252164  0.250998E+01  0.350E+00    0.40       1.0  T
   3   -373.5326895  0.156925E+02  0.482E+00    0.23       1.0  T
   4   -371.4239476  0.210874E+01  0.433E+00    0.08       1.0  T
   5   -389.1375145 -0.177136E+02  0.212E+00    0.34       1.0  T
   6   -391.4696195 -0.233210E+01  0.122E+00    0.52       1.0  T
   7   -391.7560853 -0.286466E+00  0.828E-01    0.18       1.0  T
   8   -391.8755853 -0.119500E+00  0.657E-01    0.13       1.0  T
   9   -391.6939727  0.181613E+00  0.974E-01    0.27       1.0  T
  10   -391.7905783 -0.966056E-01  0.813E-01    0.13       1.0  T
  11   -392.0206987 -0.230120E+00  0.247E-01    0.02       1.0  T
  12   -392.0167675  0.393122E-02  0.205E-01    0.02       1.0  T
  13   -391.9877328  0.290347E-01  0.370E-01    0.07       1.0  T
  14   -392.0163194 -0.285866E-01  0.202E-01    0.02       1.0  T
  15   -392.0293505 -0.130310E-01  0.125E-01    0.03       1.0  T
  16   -392.0341885 -0.483809E-02  0.278E-02    0.02       1.0  T
  17   -392.0339815  0.207078E-03  0.332E-02    0.02       1.0  T
  18   -392.0341870 -0.205518E-03  0.160E-02    0.02       1.0  T
  19   -392.0331728  0.101422E-02  0.583E-02    0.02       1.0  T
  20   -392.0340383 -0.865508E-03  0.256E-02    0.02       1.0  T
  21   -392.0343136 -0.275325E-03  0.109E-02    0.02       1.0  T
  22   -392.0343068  0.681892E-05  0.921E-03    0.02       1.0  T
  23   -392.0343470 -0.402382E-04  0.164E-03    0.02       4.3  T
  24   -392.0343347  0.123365E-04  0.589E-03    0.02       1.2  T
  25   -392.0343464 -0.117633E-04  0.281E-03    0.02       2.5  T
  26   -392.0343492 -0.275472E-05  0.621E-04    0.02      11.3  T
  27   -392.0343492  0.246644E-07  0.604E-04    0.02      11.6  T
  28   -392.0343493 -0.138108E-06  0.473E-05    0.02     148.6  T

   *** convergence criteria satisfied after 28 iterations ***

         #    Occupation            Energy/Eh            Energy/eV
      -------------------------------------------------------------
         1        2.0000           -0.7239843             -19.7006
       ...           ...                  ...                  ...
       353        2.0000           -0.3666099              -9.9760
       354        2.0000           -0.3636513              -9.8955
       355        2.0000           -0.3557371              -9.6801
       356        2.0000           -0.3539686              -9.6320
       357        2.0000           -0.3522441              -9.5851
       358        1.9999           -0.3422452              -9.3130
       359        1.2098           -0.3327407              -9.0543 (HOMO)
       360        0.7903           -0.3319317              -9.0323 (LUMO)
       361        0.0000           -0.3165211              -8.6130
       362                         -0.2965147              -8.0686
       363                         -0.2938763              -7.9968
       364                         -0.2914726              -7.9314
       ...                                ...                  ...
       727                          0.7533913              20.5008
      -------------------------------------------------------------
                  HL-Gap            0.0008090 Eh            0.0220 eV
             Fermi-level           -0.3323362 Eh           -9.0433 eV

 SCC (total)                   0 d,  0 h,  0 min,  5.765 sec
 SCC setup                      ...        0 min,  0.005 sec (  0.087%)
 Dispersion                     ...        0 min,  0.015 sec (  0.260%)
 classical contributions        ...        0 min,  0.001 sec (  0.017%)
 integral evaluation            ...        0 min,  0.095 sec (  1.648%)
 iterations                     ...        0 min,  5.199 sec ( 90.182%)
 molecular gradient             ...        0 min,  0.430 sec (  7.459%)
 printout                       ...        0 min,  0.020 sec (  0.347%)

         :::::::::::::::::::::::::::::::::::::::::::::::::::::
         ::                     SUMMARY                     ::
         :::::::::::::::::::::::::::::::::::::::::::::::::::::
         :: total energy            -385.052758815464 Eh    ::
         :: gradient norm              0.081379101925 Eh/a0 ::
         :: HOMO-LUMO gap              0.022013549312 eV    ::
         ::.................................................::
         :: SCC energy              -392.050779375447 Eh    ::
         :: -> isotropic ES            0.003434082622 Eh    ::
         :: -> anisotropic ES          0.011971959530 Eh    ::
         :: -> anisotropic XC          0.140436935466 Eh    ::
         :: -> dispersion             -0.493537965034 Eh    ::
         :: repulsion energy           6.998020559983 Eh    ::
         :: add. restraining           0.000000000000 Eh    ::
         :: total charge              -0.000000000000 e     ::
         :::::::::::::::::::::::::::::::::::::::::::::::::::::

      ----------------------------------------------------------- 
     |                   =====================                   |
     |                        A N C O P T                        |
     |                   =====================                   |
     |               Approximate Normal Coordinate               |
     |                Rational Function Optimizer                |
      ----------------------------------------------------------- 
      ----------------------------------------------------------- 
     |                   =====================                   |
     |                        A N C O P T                        |
     |                   =====================                   |
     |               Approximate Normal Coordinate               |
     |                Rational Function Optimizer                |
      ----------------------------------------------------------- 

          ...................................................
          :                      SETUP                      :
          :.................................................:
          :   optimization level            normal          :
          :   max. optcycles                   606          :
          :   ANC micro-cycles                  20          :
          :   degrees of freedom               600          :
          :.................................................:
          :   RF solver                   davidson          :
          :   write xtbopt.log                true          :
          :   linear?                        false          :
          :   energy convergence         0.5000000E-05 Eh   :
          :   grad. convergence          0.1000000E-02 Eh/α :
          :   maxmium RF displ.          1.0000000          :
          :   Hlow (freq-cutoff)         0.1000000E-01      :
          :   Hmax (freq-cutoff)         5.0000000          :
          :   S6 in model hess.         20.0000000          :
          ...................................................

generating ANC from exact Hessian ...
Using Lindh-Hessian (1995)
 Shifting diagonal of input Hessian by   9.940263717738897E-003
 Lowest  eigenvalues of input Hessian
    0.000000    0.000000    0.000000    0.000000    0.000000    0.000000
    0.010000    0.010078    0.010152    0.010209    0.010214    0.010664
    0.010713    0.010797    0.010841    0.010955    0.011648    0.011761
 Highest eigenvalues
    2.104880    2.113822    2.115130    2.135678    2.143733    2.156200
 

........................................................................
.............................. CYCLE    1 ..............................
........................................................................

 iter      E             dE          RMSdq      gap      omega  full diag
   1   -392.0343493 -0.392034E+03  0.523E-05    0.02       0.0  T
   2   -392.0343461  0.316312E-05  0.281E-03    0.02       2.5  T
   3   -392.0343493 -0.313061E-05  0.292E-04    0.02      24.1  T
   4   -392.0343493 -0.273506E-07  0.130E-04    0.02      54.2  T
   5   -392.0343493 -0.307000E-08  0.936E-05    0.02      75.2  T
     SCC iter.                  ...        0 min,  0.921 sec
     gradient                   ...        0 min,  0.434 sec
 * total energy  :  -385.0527588 Eh     change        0.2495085E-08 Eh
   gradient norm :     0.0813911 Eh/α   predicted     0.0000000E+00 (-100.00%)
   displ. norm   :     0.5226845 α      lambda       -0.2505002E-01
   maximum displ.:     0.2235202 α      in ANC's #44, #41, #49, ...

........................................................................
.............................. CYCLE    2 ..............................
........................................................................

 iter      E             dE          RMSdq      gap      omega  full diag
   1   -391.9318870 -0.391932E+03  0.884E-01    0.23       0.0  T
   2   -390.3237873  0.160810E+01  0.197E+00    0.18       1.0  T
   3   -391.9205739 -0.159679E+01  0.975E-01    0.50       1.0  T
   4   -391.9722198 -0.516459E-01  0.804E-01    0.34       1.0  T
   5   -392.2180734 -0.245854E+00  0.127E-01    0.02       1.0  T
   6   -392.0952873  0.122786E+00  0.569E-01    0.08       1.0  T
   7   -392.1287056 -0.334183E-01  0.501E-01    0.08       1.0  T
   8   -392.2011317 -0.724261E-01  0.236E-01    0.03       1.0  T
   9   -392.2219825 -0.208508E-01  0.442E-02    0.02       1.0  T
  10   -392.2227005 -0.717952E-03  0.478E-03    0.02       1.5  T
  11   -392.2227033 -0.285378E-05  0.357E-03    0.02       2.0  T
  12   -392.2226341  0.691932E-04  0.139E-02    0.01       1.0  T
  13   -392.2227026 -0.684227E-04  0.380E-03    0.02       1.9  T
  14   -392.2227046 -0.204690E-05  0.306E-03    0.02       2.3  T
  15   -392.2227079 -0.325846E-05  0.931E-04    0.02       7.6  T
  16   -392.2227082 -0.292922E-06  0.313E-04    0.02      22.5  T
  17   -392.2227082 -0.275143E-07  0.161E-04    0.02      43.8  T
     SCC iter.                  ...        0 min,  3.126 sec
     gradient                   ...        0 min,  0.443 sec
 * total energy  :  -385.0721883 Eh     change       -0.1942952E-01 Eh
   gradient norm :     0.0438076 Eh/α   predicted    -0.1594868E-01 ( -17.92%)
   displ. norm   :     0.5927467 α      lambda       -0.1473913E-01
   maximum displ.:     0.2863145 α      in ANC's #44, #41, #49, ...

........................................................................
.............................. CYCLE    3 ..............................
........................................................................

 iter      E             dE          RMSdq      gap      omega  full diag
   1   -392.1383834 -0.392138E+03  0.834E-01    0.24       0.0  T
   2   -390.7654844  0.137290E+01  0.186E+00    0.19       1.0  T
   3   -392.0735222 -0.130804E+01  0.996E-01    0.51       1.0  T
   4   -392.1304995 -0.569773E-01  0.833E-01    0.23       1.0  T
   5   -392.3442898 -0.213790E+00  0.363E-01    0.05       1.0  T
   6   -392.2835921  0.606977E-01  0.550E-01    0.08       1.0  T
   7   -392.3908338 -0.107242E+00  0.100E-01    0.02       1.0  T
   8   -392.3874468  0.338691E-02  0.136E-01    0.02       1.0  T
   9   -392.3904051 -0.295829E-02  0.104E-01    0.02       1.0  T
  10   -392.3939578 -0.355268E-02  0.374E-02    0.01       1.0  T
  11   -392.3944265 -0.468712E-03  0.130E-02    0.01       1.0  T
  12   -392.3944589 -0.323337E-04  0.914E-03    0.01       1.0  T
  13   -392.3944849 -0.260112E-04  0.388E-03    0.01       1.8  T
  14   -392.3944894 -0.457562E-05  0.176E-03    0.01       4.0  T
  15   -392.3944904 -0.947496E-06  0.777E-04    0.01       9.1  T
  16   -392.3944906 -0.228268E-06  0.480E-05    0.01     146.6  T
     SCC iter.                  ...        0 min,  2.985 sec
     gradient                   ...        0 min,  0.460 sec
 * total energy  :  -385.0824499 Eh     change       -0.1026161E-01 Eh
   gradient norm :     0.0153407 Eh/α   predicted    -0.9959382E-02 (  -2.95%)
   displ. norm   :     0.4576491 α      lambda       -0.4611816E-02
   maximum displ.:     0.2361870 α      in ANC's #44, #41, #49, ...

........................................................................
.............................. CYCLE    4 ..............................
........................................................................

 iter      E             dE          RMSdq      gap      omega  full diag
   1   -392.3797344 -0.392380E+03  0.556E-01    0.09       0.0  T
   2   -391.6330872  0.746647E+00  0.144E+00    0.50       1.0  T
   3   -392.1851752 -0.552088E+00  0.935E-01    0.45       1.0  T
   4   -392.3682056 -0.183030E+00  0.584E-01    0.08       1.0  T
   5   -392.4655298 -0.973242E-01  0.279E-01    0.04       1.0  T
   6   -392.4924276 -0.268978E-01  0.884E-02    0.01       1.0  T
   7   -392.4911854  0.124215E-02  0.105E-01    0.01       1.0  T
   8   -392.4947795 -0.359404E-02  0.380E-02    0.02       1.0  T
   9   -392.4951189 -0.339419E-03  0.224E-02    0.01       1.0  T
  10   -392.4952258 -0.106970E-03  0.149E-02    0.01       1.0  T
  11   -392.4953074 -0.815133E-04  0.213E-03    0.01       3.3  T
  12   -392.4953089 -0.155765E-05  0.701E-04    0.01      10.0  T
  13   -392.4953088  0.866426E-07  0.851E-04    0.01       8.3  T
  14   -392.4953088 -0.478536E-08  0.850E-04    0.01       8.3  T
     SCC iter.                  ...        0 min,  2.608 sec
     gradient                   ...        0 min,  0.466 sec
 * total energy  :  -385.0854854 Eh     change       -0.3035477E-02 Eh
   gradient norm :     0.0084711 Eh/α   predicted    -0.2789428E-02 (  -8.11%)
   displ. norm   :     0.2479483 α      lambda       -0.9629600E-03
   maximum displ.:     0.1249389 α      in ANC's #44, #41, #49, ...

........................................................................
.............................. CYCLE    5 ..............................
........................................................................

 iter      E             dE          RMSdq      gap      omega  full diag
   1   -392.5376030 -0.392538E+03  0.563E-02    0.01       0.0  T
   2   -392.2815161  0.256087E+00  0.802E-01    0.29       1.0  T
   3   -392.5383361 -0.256820E+00  0.210E-02    0.01       1.0  T
   4   -392.5370349  0.130119E-02  0.579E-02    0.01       1.0  T
   5   -392.5373773 -0.342396E-03  0.498E-02    0.02       1.0  T
   6   -392.5382892 -0.911883E-03  0.121E-02    0.01       1.0  T
   7   -392.5383448 -0.556009E-04  0.253E-03    0.01       2.8  T
   8   -392.5383468 -0.204465E-05  0.105E-03    0.01       6.7  T
   9   -392.5383472 -0.366791E-06  0.191E-04    0.01      36.9  T
  10   -392.5383472 -0.665176E-08  0.903E-05    0.01      77.9  T
     SCC iter.                  ...        0 min,  1.866 sec
     gradient                   ...        0 min,  0.435 sec
 * total energy  :  -385.0860711 Eh     change       -0.5857171E-03 Eh
   gradient norm :     0.0062665 Eh/α   predicted    -0.5110892E-03 ( -12.74%)
   displ. norm   :     0.0942277 α      lambda       -0.1447679E-03
   maximum displ.:     0.0329396 α      in ANC's #24, #44, #18, ...

........................................................................
.............................. CYCLE    6 ..............................
........................................................................

 iter      E             dE          RMSdq      gap      omega  full diag
   1   -392.5342625 -0.392534E+03  0.187E-01    0.02       0.0  T
   2   -392.1353359  0.398927E+00  0.995E-01    0.59       1.0  T
   3   -392.4348514 -0.299515E+00  0.537E-01    0.09       1.0  T
   4   -392.5448797 -0.110028E+00  0.788E-02    0.01       1.0  T
   5   -392.5472055 -0.232582E-02  0.654E-03    0.01       1.1  T
   6   -392.5471115  0.940044E-04  0.168E-02    0.01       1.0  T
   7   -392.5471872 -0.756598E-04  0.868E-03    0.01       1.0  T
   8   -392.5472161 -0.289771E-04  0.316E-04    0.01      22.3  T
   9   -392.5472161  0.445184E-07  0.440E-04    0.01      16.0  T
  10   -392.5472162 -0.644043E-07  0.153E-04    0.01      45.9  T
     SCC iter.                  ...        0 min,  1.910 sec
     gradient                   ...        0 min,  0.456 sec
 * total energy  :  -385.0861696 Eh     change       -0.9847935E-04 Eh
   gradient norm :     0.0032705 Eh/α   predicted    -0.7305858E-04 ( -25.81%)
   displ. norm   :     0.0840155 α      lambda       -0.6668236E-04
   maximum displ.:     0.0316224 α      in ANC's #24, #13, #18, ...

........................................................................
.............................. CYCLE    7 ..............................
........................................................................

 iter      E             dE          RMSdq      gap      omega  full diag
   1   -392.5387605 -0.392539E+03  0.162E-01    0.02       0.0  T
   2   -392.1599942  0.378766E+00  0.970E-01    0.56       1.0  T
   3   -392.4746502 -0.314656E+00  0.436E-01    0.07       1.0  T
   4   -392.5450831 -0.704328E-01  0.953E-02    0.01       1.0  T
   5   -392.5485177 -0.343464E-02  0.579E-03    0.01       1.2  T
   6   -392.5484978  0.199012E-04  0.894E-03    0.01       1.0  T
   7   -392.5484995 -0.170924E-05  0.828E-03    0.01       1.0  T
   8   -392.5485256 -0.260867E-04  0.920E-04    0.01       7.6  T
   9   -392.5485259 -0.290904E-06  0.132E-04    0.01      53.2  T
  10   -392.5485259  0.220689E-08  0.144E-04    0.01      48.8  T
     SCC iter.                  ...        0 min,  1.839 sec
     gradient                   ...        0 min,  0.441 sec
 * total energy  :  -385.0862153 Eh     change       -0.4565937E-04 Eh
   gradient norm :     0.0010917 Eh/α   predicted    -0.3358170E-04 ( -26.45%)
   displ. norm   :     0.1335050 α      lambda       -0.3799165E-04
   maximum displ.:     0.0509571 α      in ANC's #13, #6, #18, ...

........................................................................
.............................. CYCLE    8 ..............................
........................................................................

 iter      E             dE          RMSdq      gap      omega  full diag
   1   -392.5415801 -0.392542E+03  0.116E-01    0.02       0.0  T
   2   -392.2059267  0.335653E+00  0.914E-01    0.49       1.0  T
   3   -392.5281451 -0.322218E+00  0.218E-01    0.03       1.0  T
   4   -392.5354468 -0.730172E-02  0.170E-01    0.02       1.0  T
   5   -392.5461461 -0.106993E-01  0.294E-02    0.01       1.0  T
   6   -392.5464507 -0.304612E-03  0.819E-03    0.01       1.0  T
   7   -392.5464566 -0.590040E-05  0.672E-03    0.01       1.0  T
   8   -392.5464737 -0.170705E-04  0.917E-04    0.01       7.7  T
   9   -392.5464737 -0.799755E-07  0.735E-04    0.01       9.6  T
  10   -392.5464739 -0.204998E-06  0.678E-05    0.01     103.8  T
     SCC iter.                  ...        0 min,  1.900 sec
     gradient                   ...        0 min,  0.419 sec
 * total energy  :  -385.0862508 Eh     change       -0.3548358E-04 Eh
   gradient norm :     0.0028076 Eh/α   predicted    -0.1914688E-04 ( -46.04%)
   displ. norm   :     0.0781612 α      lambda       -0.2753937E-04
   maximum displ.:     0.0330162 α      in ANC's #6, #13, #3, ...

........................................................................
.............................. CYCLE    9 ..............................
........................................................................

 iter      E             dE          RMSdq      gap      omega  full diag
   1   -392.5446706 -0.392545E+03  0.325E-02    0.01       0.0  T
   2   -392.2954659  0.249205E+00  0.808E-01    0.19       1.0  T
   3   -392.5449610 -0.249495E+00  0.145E-02    0.01       1.0  T
   4   -392.5450264 -0.654353E-04  0.372E-03    0.01       1.9  T
   5   -392.5450213  0.509345E-05  0.428E-03    0.01       1.6  T
   6   -392.5450273 -0.596507E-05  0.126E-03    0.01       5.6  T
   7   -392.5450278 -0.546755E-06  0.409E-04    0.01      17.2  T
   8   -392.5450279 -0.574509E-07  0.122E-04    0.01      57.6  T
     SCC iter.                  ...        0 min,  1.535 sec
     gradient                   ...        0 min,  0.348 sec
 * total energy  :  -385.0862745 Eh     change       -0.2375233E-04 Eh
   gradient norm :     0.0024377 Eh/α   predicted    -0.1385682E-04 ( -41.66%)
   displ. norm   :     0.1900344 α      lambda       -0.5615233E-04
   maximum displ.:     0.0847660 α      in ANC's #6, #3, #13, ...

........................................................................
.............................. CYCLE   10 ..............................
........................................................................

 iter      E             dE          RMSdq      gap      omega  full diag
   1   -392.5389681 -0.392539E+03  0.996E-02    0.02       0.0  T
   2   -392.2157705  0.323198E+00  0.915E-01    0.51       1.0  T
   3   -392.5387860 -0.323016E+00  0.100E-01    0.01       1.0  T
   4   -392.5392445 -0.458476E-03  0.930E-02    0.02       1.0  T
   5   -392.5424294 -0.318485E-02  0.129E-02    0.01       1.0  T
   6   -392.5420531  0.376287E-03  0.338E-02    0.01       1.0  T
   7   -392.5424770 -0.423894E-03  0.549E-03    0.01       1.3  T
   8   -392.5424875 -0.105539E-04  0.128E-03    0.01       5.5  T
   9   -392.5424858  0.169130E-05  0.245E-03    0.01       2.9  T
  10   -392.5424882 -0.232741E-05  0.167E-04    0.01      42.1  T
  11   -392.5424882  0.106223E-08  0.171E-04    0.01      41.2  T
  12   -392.5424882 -0.109615E-07  0.327E-05    0.01     215.1  T
     SCC iter.                  ...        0 min,  1.771 sec
     gradient                   ...        0 min,  0.283 sec
 * total energy  :  -385.0863122 Eh     change       -0.3767969E-04 Eh
   gradient norm :     0.0012289 Eh/α   predicted    -0.2909140E-04 ( -22.79%)
   displ. norm   :     0.1756228 α      lambda       -0.2017260E-04
   maximum displ.:     0.0874074 α      in ANC's #6, #3, #4, ...

........................................................................
.............................. CYCLE   11 ..............................
........................................................................

 iter      E             dE          RMSdq      gap      omega  full diag
   1   -392.5403195 -0.392540E+03  0.688E-02    0.02       0.0  T
   2   -392.2393368  0.300983E+00  0.885E-01    0.41       1.0  T
   3   -392.5419198 -0.302583E+00  0.139E-02    0.01       1.0  T
   4   -392.5419242 -0.443309E-05  0.873E-03    0.01       1.0  T
   5   -392.5419276 -0.338991E-05  0.637E-03    0.01       1.1  T
   6   -392.5419231  0.455339E-05  0.663E-03    0.01       1.1  T
   7   -392.5419396 -0.164859E-04  0.457E-04    0.01      15.4  T
   8   -392.5419393  0.279901E-06  0.932E-04    0.01       7.6  T
   9   -392.5419387  0.615562E-06  0.158E-03    0.01       4.5  T
  10   -392.5419396 -0.950044E-06  0.146E-04    0.01      48.3  T
     SCC iter.                  ...        0 min,  1.836 sec
     gradient                   ...        0 min,  0.437 sec
 * total energy  :  -385.0863329 Eh     change       -0.2074609E-04 Eh
   gradient norm :     0.0012195 Eh/α   predicted    -0.1022963E-04 ( -50.69%)
   displ. norm   :     0.1147975 α      lambda       -0.1790947E-04
   maximum displ.:     0.0622451 α      in ANC's #6, #4, #3, ...

........................................................................
.............................. CYCLE   12 ..............................
........................................................................

 iter      E             dE          RMSdq      gap      omega  full diag
   1   -392.5432255 -0.392543E+03  0.139E-02    0.01       0.0  T
   2   -392.4915939  0.516316E-01  0.367E-01    0.05       1.0  T
   3   -392.5429228 -0.513288E-01  0.299E-02    0.01       1.0  T
   4   -392.5432371 -0.314291E-03  0.592E-03    0.01       1.2  T
   5   -392.5432458 -0.869250E-05  0.272E-03    0.01       2.6  T
   6   -392.5432484 -0.259018E-05  0.824E-04    0.01       8.5  T
   7   -392.5432485 -0.192797E-06  0.397E-04    0.01      17.7  T
   8   -392.5432485  0.959284E-08  0.402E-04    0.01      17.5  T
     SCC iter.                  ...        0 min,  1.572 sec
     gradient                   ...        0 min,  0.475 sec
 * total energy  :  -385.0863565 Eh     change       -0.2358742E-04 Eh
   gradient norm :     0.0014117 Eh/α   predicted    -0.9010072E-05 ( -61.80%)
   displ. norm   :     0.2385535 α      lambda       -0.3864520E-04
   maximum displ.:     0.1272406 α      in ANC's #6, #4, #3, ...

........................................................................
.............................. CYCLE   13 ..............................
........................................................................

 iter      E             dE          RMSdq      gap      omega  full diag
   1   -392.5444590 -0.392544E+03  0.431E-02    0.01       0.0  T
   2   -392.2954486  0.249010E+00  0.792E-01    0.24       1.0  T
   3   -392.5449219 -0.249473E+00  0.168E-02    0.01       1.0  T
   4   -392.5447301  0.191842E-03  0.248E-02    0.01       1.0  T
   5   -392.5444708  0.259334E-03  0.355E-02    0.01       1.0  T
   6   -392.5449640 -0.493275E-03  0.793E-04    0.01       8.9  T
   7   -392.5449639  0.158562E-06  0.985E-04    0.01       7.1  T
   8   -392.5449639 -0.596932E-07  0.822E-04    0.01       8.6  T
     SCC iter.                  ...        0 min,  1.560 sec
     gradient                   ...        0 min,  0.448 sec
 * total energy  :  -385.0864018 Eh     change       -0.4524083E-04 Eh
   gradient norm :     0.0015570 Eh/α   predicted    -0.1981460E-04 ( -56.20%)
   displ. norm   :     0.3163903 α      lambda       -0.3512968E-04
   maximum displ.:     0.1692359 α      in ANC's #6, #4, #3, ...

........................................................................
.............................. CYCLE   14 ..............................
........................................................................

 iter      E             dE          RMSdq      gap      omega  full diag
   1   -392.5455856 -0.392546E+03  0.431E-02    0.01       0.0  T
   2   -392.3118438  0.233742E+00  0.768E-01    0.20       1.0  T
   3   -392.5457863 -0.233943E+00  0.262E-02    0.01       1.0  T
   4   -392.5459190 -0.132660E-03  0.880E-03    0.01       1.0  T
   5   -392.5459333 -0.143426E-04  0.432E-03    0.01       1.6  T
   6   -392.5459390 -0.568689E-05  0.152E-03    0.01       4.6  T
   7   -392.5459385  0.519038E-06  0.179E-03    0.01       3.9  T
   8   -392.5459396 -0.105562E-05  0.799E-04    0.01       8.8  T
   9   -392.5459398 -0.246052E-06  0.572E-05    0.01     123.0  T
  10   -392.5459398  0.928469E-08  0.162E-04    0.01      43.5  T
     SCC iter.                  ...        0 min,  1.869 sec
     gradient                   ...        0 min,  0.451 sec
 * total energy  :  -385.0864421 Eh     change       -0.4032606E-04 Eh
   gradient norm :     0.0014160 Eh/α   predicted    -0.1835013E-04 ( -54.50%)
   displ. norm   :     0.3087849 α      lambda       -0.2624897E-04
   maximum displ.:     0.1649268 α      in ANC's #6, #4, #3, ...

........................................................................
.............................. CYCLE   15 ..............................
........................................................................

 iter      E             dE          RMSdq      gap      omega  full diag
   1   -392.5462845 -0.392546E+03  0.302E-02    0.01       0.0  T
   2   -392.5241015  0.221830E-01  0.239E-01    0.04       1.0  T
   3   -392.5434033 -0.193018E-01  0.883E-02    0.01       1.0  T
   4   -392.5462732 -0.286988E-02  0.764E-03    0.01       1.0  T
   5   -392.5462846 -0.114501E-04  0.511E-03    0.01       1.4  T
   6   -392.5462944 -0.977327E-05  0.100E-03    0.01       7.0  T
   7   -392.5462941  0.245648E-06  0.120E-03    0.01       5.9  T
   8   -392.5462947 -0.509625E-06  0.314E-04    0.01      22.4  T
   9   -392.5462947 -0.368377E-07  0.618E-05    0.01     113.8  T
     SCC iter.                  ...        0 min,  1.663 sec
     gradient                   ...        0 min,  0.454 sec
 * total energy  :  -385.0864715 Eh     change       -0.2941603E-04 Eh
   gradient norm :     0.0009962 Eh/α   predicted    -0.1368341E-04 ( -53.48%)
   displ. norm   :     0.2625307 α      lambda       -0.1928315E-04
   maximum displ.:     0.1389550 α      in ANC's #6, #4, #3, ...

........................................................................
.............................. CYCLE   16 ..............................
........................................................................

 iter      E             dE          RMSdq      gap      omega  full diag
   1   -392.5455870 -0.392546E+03  0.269E-02    0.01       0.0  T
   2   -392.4982273  0.473597E-01  0.352E-01    0.04       1.0  T
   3   -392.5450071 -0.467797E-01  0.421E-02    0.01       1.0  T
   4   -392.5455977 -0.590626E-03  0.554E-03    0.01       1.3  T
   5   -392.5455832  0.144930E-04  0.800E-03    0.01       1.0  T
   6   -392.5456074 -0.242020E-04  0.163E-03    0.01       4.3  T
   7   -392.5456076 -0.173201E-06  0.137E-03    0.01       5.1  T
   8   -392.5456083 -0.706241E-06  0.822E-05    0.01      85.6  T
   9   -392.5456083  0.382648E-07  0.324E-04    0.01      21.7  T
     SCC iter.                  ...        0 min,  1.672 sec
     gradient                   ...        0 min,  0.428 sec
 * total energy  :  -385.0864917 Eh     change       -0.2024043E-04 Eh
   gradient norm :     0.0007259 Eh/α   predicted    -0.9939904E-05 ( -50.89%)
   displ. norm   :     0.1850678 α      lambda       -0.1241842E-04
   maximum displ.:     0.0983438 α      in ANC's #4, #6, #3, ...

........................................................................
.............................. CYCLE   17 ..............................
........................................................................

 iter      E             dE          RMSdq      gap      omega  full diag
   1   -392.5454235 -0.392545E+03  0.199E-02    0.01       0.0  T
   2   -392.5132911  0.321324E-01  0.290E-01    0.04       1.0  T
   3   -392.5451459 -0.318548E-01  0.295E-02    0.01       1.0  T
   4   -392.5454358 -0.289885E-03  0.256E-03    0.01       2.7  T
   5   -392.5454326  0.322854E-05  0.354E-03    0.01       2.0  T
   6   -392.5454370 -0.446019E-05  0.858E-04    0.01       8.2  T
   7   -392.5454364  0.607129E-06  0.146E-03    0.01       4.8  T
   8   -392.5454372 -0.826877E-06  0.809E-05    0.01      87.0  T
   9   -392.5454372  0.131673E-07  0.204E-04    0.01      34.5  T
     SCC iter.                  ...        0 min,  1.639 sec
     gradient                   ...        0 min,  0.457 sec
 * total energy  :  -385.0865041 Eh     change       -0.1234256E-04 Eh
   gradient norm :     0.0005901 Eh/α   predicted    -0.6305245E-05 ( -48.91%)
   displ. norm   :     0.0890467 α      lambda       -0.6633463E-05
   maximum displ.:     0.0493544 α      in ANC's #4, #6, #3, ...

........................................................................
.............................. CYCLE   18 ..............................
........................................................................

 iter      E             dE          RMSdq      gap      omega  full diag
   1   -392.5453072 -0.392545E+03  0.146E-02    0.01       0.0  T
   2   -392.4594843  0.858229E-01  0.474E-01    0.06       1.0  T
   3   -392.5452474 -0.857631E-01  0.173E-02    0.01       1.0  T
   4   -392.5453427 -0.952547E-04  0.483E-03    0.01       1.5  T
   5   -392.5453476 -0.494167E-05  0.218E-03    0.01       3.2  T
   6   -392.5453489 -0.131568E-05  0.109E-03    0.01       6.5  T
   7   -392.5453491 -0.133488E-06  0.881E-04    0.01       8.0  T
   8   -392.5453494 -0.298720E-06  0.458E-05    0.01     153.5  T
     SCC iter.                  ...        0 min,  1.557 sec
     gradient                   ...        0 min,  0.469 sec
 * total energy  :  -385.0865120 Eh     change       -0.7934826E-05 Eh
   gradient norm :     0.0005248 Eh/α   predicted    -0.3329141E-05 ( -58.04%)
   displ. norm   :     0.0998531 α      lambda       -0.8357549E-05
   maximum displ.:     0.0485970 α      in ANC's #4, #2, #7, ...

........................................................................
.............................. CYCLE   19 ..............................
........................................................................

 iter      E             dE          RMSdq      gap      omega  full diag
   1   -392.5451158 -0.392545E+03  0.181E-02    0.01       0.0  T
   2   -392.4212448  0.123871E+00  0.570E-01    0.08       1.0  T
   3   -392.5449389 -0.123694E+00  0.263E-02    0.01       1.0  T
   4   -392.5451733 -0.234323E-03  0.640E-03    0.01       1.1  T
   5   -392.5451843 -0.110707E-04  0.202E-03    0.01       3.5  T
   6   -392.5451831  0.118591E-05  0.254E-03    0.01       2.8  T
   7   -392.5451853 -0.213437E-05  0.926E-04    0.01       7.6  T
   8   -392.5451856 -0.314179E-06  0.123E-04    0.01      57.2  T
   9   -392.5451856 -0.702585E-09  0.111E-04    0.01      63.3  T
     SCC iter.                  ...        0 min,  1.678 sec
     gradient                   ...        0 min,  0.426 sec
 * total energy  :  -385.0865213 Eh     change       -0.9246513E-05 Eh
   gradient norm :     0.0004443 Eh/α   predicted    -0.4199283E-05 ( -54.59%)
   displ. norm   :     0.0939802 α      lambda       -0.6209940E-05
   maximum displ.:     0.0414658 α      in ANC's #4, #2, #7, ...

........................................................................
.............................. CYCLE   20 ..............................
........................................................................

 iter      E             dE          RMSdq      gap      omega  full diag
   1   -392.5452123 -0.392545E+03  0.106E-02    0.01       0.0  T
   2   -392.5447801  0.432180E-03  0.339E-02    0.01       1.0  T
   3   -392.5428602  0.191992E-02  0.783E-02    0.02       1.0  T
   4   -392.5452119 -0.235164E-02  0.162E-03    0.01       4.3  T
   5   -392.5452124 -0.557290E-06  0.690E-04    0.01      10.2  T
   6   -392.5452125 -0.996642E-07  0.394E-04    0.01      17.9  T
     SCC iter.                  ...        0 min,  1.101 sec
     gradient                   ...        0 min,  0.434 sec
 * total energy  :  -385.0865281 Eh     change       -0.6853027E-05 Eh
   gradient norm :     0.0004136 Eh/α   predicted    -0.3119374E-05 ( -54.48%)
   displ. norm   :     0.0939505 α      lambda       -0.5458631E-05
   maximum displ.:     0.0404965 α      in ANC's #2, #4, #7, ...
 * RMSD in coord.:     0.2027297 α      energy gain  -0.3376931E-01 Eh

generating ANC from exact Hessian ...
Using Lindh-Hessian (1995)
 Shifting diagonal of input Hessian by   9.935999492904538E-003
 Lowest  eigenvalues of input Hessian
    0.000000    0.000000    0.000000    0.000000    0.000000    0.000000
    0.010000    0.010082    0.010169    0.010230    0.010236    0.010726
    0.010790    0.010870    0.010924    0.011041    0.011806    0.011919
 Highest eigenvalues
    2.189168    2.197917    2.206586    2.217566    2.234315    2.240942
 

........................................................................
.............................. CYCLE   21 ..............................
........................................................................

 iter      E             dE          RMSdq      gap      omega  full diag
   1   -392.5454365 -0.392545E+03  0.104E-02    0.01       0.0  T
   2   -392.5419821  0.345441E-02  0.948E-02    0.01       1.0  T
   3   -392.5450948 -0.311268E-02  0.304E-02    0.01       1.0  T
   4   -392.5454375 -0.342758E-03  0.139E-03    0.01       5.1  T
   5   -392.5454367  0.838965E-06  0.180E-03    0.01       3.9  T
   6   -392.5454378 -0.106228E-05  0.690E-04    0.01      10.2  T
   7   -392.5454379 -0.176696E-06  0.174E-04    0.01      40.3  T
   8   -392.5454380 -0.903992E-08  0.586E-05    0.01     120.0  T
     SCC iter.                  ...        0 min,  1.429 sec
     gradient                   ...        0 min,  0.440 sec
 * total energy  :  -385.0865343 Eh     change       -0.6208023E-05 Eh
   gradient norm :     0.0004739 Eh/α   predicted     0.0000000E+00 (-100.00%)
   displ. norm   :     0.0187750 α      lambda       -0.2277473E-05
   maximum displ.:     0.0060065 α      in ANC's #11, #2, #4, ...

........................................................................
.............................. CYCLE   22 ..............................
........................................................................

 iter      E             dE          RMSdq      gap      omega  full diag
   1   -392.5454943 -0.392545E+03  0.640E-03    0.01       0.0  T
   2   -392.5170006  0.284937E-01  0.270E-01    0.04       1.0  T
   3   -392.5454664 -0.284657E-01  0.104E-02    0.01       1.0  T
   4   -392.5455009 -0.345119E-04  0.398E-03    0.01       1.8  T
   5   -392.5455049 -0.399496E-05  0.207E-03    0.01       3.4  T
   6   -392.5455065 -0.165613E-05  0.114E-04    0.01      61.5  T
   7   -392.5455065  0.121048E-08  0.113E-04    0.01      62.4  T
   8   -392.5455065 -0.179307E-08  0.868E-05    0.01      81.0  T
     SCC iter.                  ...        0 min,  1.470 sec
     gradient                   ...        0 min,  0.441 sec
 * total energy  :  -385.0865373 Eh     change       -0.2984996E-05 Eh
   gradient norm :     0.0002264 Eh/α   predicted    -0.1161702E-05 ( -61.08%)
   displ. norm   :     0.0851027 α      lambda       -0.7884073E-05
   maximum displ.:     0.0283858 α      in ANC's #4, #2, #11, ...

   *** GEOMETRY OPTIMIZATION CONVERGED AFTER 22 ITERATIONS ***

------------------------------------------------------------------------
 total energy gain   :        -0.0337785 Eh      -21.1963 kcal/mol
 total RMSD          :         0.2028185 a0        0.1073 Å
 total power (kW/mol):        -4.0311565 (step)   -1.6916 (real)
------------------------------------------------------------------------

 ANCopt (total)                0 d,  0 h,  0 min, 52.427 sec
 optimizer setup                ...        0 min,  0.003 sec (  0.006%)
 model hessian                  ...        0 min,  0.412 sec (  0.786%)
 ANC generation                 ...        0 min,  0.169 sec (  0.322%)
 coordinate transformation      ...        0 min,  0.007 sec (  0.013%)
 single point calculation       ...        0 min, 51.750 sec ( 98.709%)
 optimization log               ...        0 min,  0.057 sec (  0.109%)
 hessian update                 ...        0 min,  0.006 sec (  0.011%)
 rational function              ...        0 min,  0.018 sec (  0.034%)

================
 final structure:
================
202
 xtb: 6.7.1pre (5071a88)
C           11.13665235867828        6.91478012920793       -0.12679229275634
C           10.66503182349994        8.11669640273622        0.36624318343301
C            9.31305327760777        8.27724157658853        0.55072709168287
C            8.40415420137470        7.24813852760867        0.26985080583059
C           10.25939430023596        5.86935328645169       -0.35718507667212
C            8.87548458920786        5.97279799976548       -0.12545423102854
C            7.95885000715724        4.86174043803795       -0.23749622144477
C           10.19382725522443        1.95013087966125       -1.01965680874898
C            9.76352823947074        3.22658345535490       -0.81536516726886
C            8.40935325198624        3.54240190286761       -0.50345335088443
C            7.50105614646677        2.44854410059749       -0.45490494326798
C            9.76156815859860       -0.44609271860169       -1.09456904853604
C            9.31522577716822        0.85546593092488       -0.92131046189293
C            7.94736882610131        1.11431821258092       -0.63923247302246
C            7.05302665512088        0.02550292530129       -0.54342607680906
C            9.33502517447224       -2.84647315582274       -1.12180809094494
C            8.89094301516981       -1.52290597520549       -0.96694016628919
C            7.51910436356112       -1.30146523715724       -0.67923838564858
C            6.64167044981742       -2.40643059280141       -0.52863923423796
C            8.48709094368385       -3.90266623006330       -0.94941013584715
C            7.11739068905504       -3.73880846489745       -0.61366519071449
C            6.23991176846611       -4.83660019701637       -0.35544731409612
C            8.53986377062959       -7.80065943727826       -0.22951001300630
C            8.05996437311010       -6.55164155827007       -0.49393818901725
C            6.71069695683499       -6.17941618649186       -0.24480519015503
C            5.83441830909862       -7.21545818906844        0.16015114368996
C            8.20644193795858      -10.07808952272281        0.59478753689293
C            7.70130203236531       -8.81271397465155        0.27159208337900
C            6.32235335702700       -8.52703267995107        0.42129331324489
C            5.45639545360485       -9.56273618146185        0.84696800739652
C            7.36087832847968      -11.05402526027643        1.06285105770638
C            6.00261438481449      -10.80123406255373        1.17846899727722
C            6.98586516333227        7.47908924110661        0.35398342192398
C            6.47439337455405        8.77458195991696        0.50323964312892
C            5.13125079348477        9.00762260187160        0.58040932877616
C            4.20746829307348        7.95719635383665        0.53080982862132
C            6.57762970275786        5.08373410365810       -0.01509716057847
C            6.08632219289384        6.40355432544479        0.22936517441640
C            4.69031616621811        6.64206924984195        0.34099664560827
C            3.77389546593674        5.55809594451322        0.25441449274093
C            6.12074740535804        2.68467145632205       -0.23235149341687
C            5.65655324551196        4.00463924258999       -0.05269043469255
C            4.25940046019398        4.24236204699281        0.08959894759435
C            3.34716811752039        3.16155716486227        0.05214836087986
C            5.67471172327421        0.26700302921873       -0.32396362846512
C            5.21031767964150        1.59322282881546       -0.20315237562560
C            3.82322629334450        1.83304147203997       -0.06349287788932
C            2.91824148518467        0.74822773802570       -0.05256075784947
C            5.26067756763488       -2.15931208990499       -0.30948830138425
C            4.78106814078331       -0.82635156521994       -0.24546263062273
C            3.39624848110240       -0.58108846866638       -0.11364860211915
C            2.49330194415915       -1.66864456386816       -0.05258015448179
C            4.86366548471528       -4.57590119366128       -0.14190792705373
C            4.37003300597979       -3.24352055131201       -0.17029562708535
C            2.97908307318240       -2.99293394688975       -0.04521407532602
C            2.07091475054895       -4.07220388570166        0.08442702971723
C            4.44560660423103       -6.95045097333585        0.29710468853750
C            3.96053291888540       -5.64368973593829        0.11208679187776
C            2.56090206418069       -5.39198566917296        0.19690420006241
C            1.65639456662710       -6.45662539438039        0.39517102105187
C            4.03744450004163       -9.30464607112239        0.89534689861765
C            3.54779421569359       -8.01232647402512        0.60852937489467
C            2.14978341589198       -7.77056166355021        0.61611386811231
C            1.24710358139899       -8.82983630486044        0.85463482356759
C            3.11933488716789      -10.31346952450847        1.19819217545302
C            1.76901762136707      -10.08752491462141        1.17124591451917
C            2.79698528170016        8.19374080350548        0.63532845579242
C            2.27023629431305        9.48670383239276        0.88250670924076
C            0.93667887171055        9.64927159659650        0.89024218135631
C           -0.00806138472740        8.66495854300392        0.71108088400544
C            2.38217895233325        5.79699473867871        0.33170372852873
C            1.89138368443333        7.12242044836528        0.50470281955302
C            0.49395647243484        7.34802983090465        0.54808636625464
C           -0.42388798095310        6.27670794079583        0.40567545371927
C            1.95423708698251        3.40096669530087        0.12729665148841
C            1.47037840406753        4.72236494938357        0.24512463155153
C            0.06960188049952        4.96159683341965        0.27539208572393
C           -0.83715816262192        3.88340544927958        0.17428708790649
C            1.52368699567948        0.99140630801170        0.01311027009094
C            1.04332664785741        2.31557784255428        0.07913804262513
C           -0.35157398309368        2.55660264727998        0.09516073160905
C           -1.25842868556588        1.47675258002166        0.02987267790776
C            1.09846319096180       -1.42216256652802        0.00025336241547
C            0.61566441588020       -0.09344495857716        0.00588280175677
C           -0.77702651804902        0.14890390680934        0.00539318320919
C           -1.68719505328556       -0.93458005100085       -0.01872199693479
C            0.67819387166916       -3.82692922331663        0.11921191248755
C            0.19102515315975       -2.50077427310238        0.04582169873809
C           -1.20438394493309       -2.25743758662121        0.02697007717484
C           -2.11657881198471       -3.34005984033916        0.06145837212448
C            0.25965757516693       -6.21417396898302        0.39624702967653
C           -0.23050219058806       -4.90332515519083        0.23525907124849
C           -1.63209919681279       -4.66040153443776        0.19513044486189
C           -2.54300621446349       -5.73177521147421        0.29294233073659
C           -0.16941724245538       -8.59756701067664        0.76796452324412
C           -0.65514706106685       -7.29126048985107        0.55318304065662
C           -2.05298547001757       -7.05244288558911        0.48822261352449
C           -2.95895157858755       -8.12524396940714        0.61906529694709
C           -1.09511101831067       -9.64269374889744        0.86701587931717
C           -2.44165988011592       -9.41477998492181        0.79161700360741
C           -1.41427030018454        8.91381210647127        0.68292252416346
C           -1.90974210847593       10.21424533375252        0.81852190713706
C           -3.25649277820710       10.46218677018719        0.76673357657902
C           -4.18785082701050        9.43071872330327        0.58014688642461
C           -1.81755464438703        6.52213560757725        0.39045343938223
C           -2.31493723143964        7.84803263453227        0.51133102136749
C           -3.70796295711786        8.10609196291849        0.45960331678887
C           -4.60587963375377        7.01987680230246        0.27949647470664
C           -2.23013998585590        4.12695877395648        0.15349766449378
C           -2.71824063483569        5.44901670712928        0.24416559673329
C           -4.11604302972466        5.70116791636680        0.18441712119725
C           -5.01176017243279        4.62065760217100        0.01854230694923
C           -2.65401822403951        1.72049131631683       -0.01164799326501
C           -3.13456730112056        3.04453602088580        0.03408957456070
C           -4.52635661278335        3.29301564192860       -0.04400937692480
C           -5.42329769200683        2.21459729337578       -0.19512576685393
C           -3.08301608445804       -0.69194963195060       -0.08604721345634
C           -3.56111009998526        0.63757098902354       -0.10269538081116
C           -4.94937029549938        0.88303223154041       -0.21040601686676
C           -5.85306605670245       -0.20179034841371       -0.33888097287682
C           -3.50825375713618       -3.09885787345470       -0.02814382152103
C           -3.99177595868995       -1.77188770358411       -0.13236592117786
C           -5.38258102025366       -1.52941187860952       -0.27837815961624
C           -6.29756071592444       -2.61638085566494       -0.34430802839719
C           -3.93717308462111       -5.49116561929120        0.19680361081414
C           -4.41992893492664       -4.17846674110589        0.00625512964318
C           -5.81684255630054       -3.93925124880221       -0.14847244096361
C           -6.71995683232773       -5.01763284598303       -0.08721229386398
C           -4.37389581651939       -7.87828440152238        0.55178072770110
C           -4.85353035003612       -6.57211731872140        0.30970327298735
C           -6.24746326965918       -6.33471320160864        0.18380880928705
C           -7.15544230943407       -7.40706668688662        0.32298233373213
C           -5.30545864705207       -8.90704876130523        0.72141490958870
C           -6.64998025276200       -8.67696760224433        0.61255507638592
C           -5.61051733717822        9.68307731600556        0.50047498930630
C           -6.15283220734981       10.96405621820433        0.60971480932494
C           -7.52093414228477       11.18642310029392        0.51322195435093
C           -8.38496495139769       10.14194626055637        0.30450109072790
C           -5.99970775492986        7.26737596928015        0.19128829043217
C           -6.49138317177808        8.59412447920357        0.29528061006314
C           -7.89443322874660        8.82597831175250        0.19198710999838
C           -8.75980505086055        7.75010993370967       -0.02341756342739
C           -6.40161618046468        4.86925493825227       -0.08937013587749
C           -6.88773706278371        6.19232413356160       -0.00763945672094
C           -8.29244772403927        6.43914776520298       -0.12901283149308
C           -9.15708409891514        5.36384671130733       -0.35741393691581
C           -6.81113702628740        2.46769555211349       -0.33897482882243
C           -7.29310243035204        3.79074067192303       -0.29057245885108
C           -8.68961915464208        4.05171031353108       -0.44766224954630
C           -9.54898587651651        2.97673300893577       -0.70125849189590
C           -7.23809072831824        0.04992253189501       -0.53562383345023
C           -7.70052729603620        1.38813995451967       -0.54456201655927
C           -9.07730030455954        1.67251676644749       -0.76063609999541
C           -9.93111217988277        0.59167848561293       -1.05020429135066
C           -7.67371338820234       -2.38003922551078       -0.59337919792460
C           -8.12980377524331       -1.03502647157170       -0.73588649774859
C           -9.47173865745958       -0.69373481476641       -1.05407349546454
C           -8.10636397598087       -4.79332385538159       -0.30520182337950
C           -8.56797045079837       -3.49303584416424       -0.62576348537623
C           -9.94663000918804       -3.36846806398643       -0.94800625721544
C          -10.82144173445000       -4.41123694759233       -0.85948353151704
C           -8.56931496316023       -7.18244490372799        0.14658310956558
C           -9.01375680125959       -5.88664655496027       -0.20859638409065
C          -10.39384288227963       -5.68847397303595       -0.45740399592187
C          -11.30487267395082       -6.74257490853827       -0.31616007751387
C           -9.51071532389930       -8.20003728971843        0.29335633888425
C          -10.86165654969201       -7.98321772056864        0.07119990443777
H           12.18695180647817        6.76610815037431       -0.32545852011491
H           11.35013317399941        8.91971388836622        0.59011868943295
H            8.95845081345247        9.21930285281436        0.93276506051423
H           11.23251416875891        1.77187972059636       -1.25502263135242
H           10.80180139992712       -0.62732712065900       -1.32046959863905
H           10.36771585971562       -3.03171898159828       -1.37670979958180
H            9.58014738325464       -8.01999514503694       -0.41841363083878
H            9.26289323813350      -10.26642374802980        0.47558426837594
H            7.13781093665677        9.62248218375617        0.52897689427833
H            4.79471776561090       10.02735532142199        0.67001503583472
H            2.92646028028153       10.32179186991364        1.06301510072082
H           -1.20261403331685       11.01971723118141        0.95894103229525
H           -3.59134876392767       11.48144188913390        0.86979079255653
H           -5.51402080792521       11.81663865723911        0.77203684863871
H           -7.89964143793611       12.19434630753174        0.60212857923890
H           -9.44876042678602       10.31058225911883        0.22460367432465
H           -9.82041310756738        7.93876430493038       -0.10994670198632
H          -10.21509756515269        5.55403937489162       -0.46685334801672
H          -10.60146550607420        3.16554660949461       -0.85463323757850
H          -10.96754363305127        0.78398084278277       -1.28401980369434
H          -11.86092120745276       -4.25322167756550       -1.10554736264557
H          -12.35108914547444       -6.55966919800014       -0.51035893053655
H          -11.55978896274912       -8.79788670404657        0.19600557864001
H            7.74634835968518      -12.02670825863438        1.33118126213010
H            5.37165234825225      -11.59710614981691        1.53826206312777
H            3.46262177298936      -11.30483441450282        1.44337484215388
H            1.11217885526521      -10.90796465053362        1.40860384290576
H           -0.75892625613541      -10.65897713985378        0.98957326401110
H           -3.10160342533248      -10.26337398412975        0.86115898339305
H           -4.98028896172199       -9.90972755649879        0.94322140573939
H           -7.31836641284470       -9.51115438272185        0.74584897416808
H           -9.20362838860788       -9.19013735780167        0.58665028399307
S           11.01387032128300        4.43635893650160       -1.00780938919107
S            9.21655378321864       -5.46677952933440       -1.23324524451372
S          -10.65187791948932       -1.88480636377037       -1.55147960174889
 
 Bond Distances (Angstroems)
 ---------------------------
C1-C2=1.3821         C1-C5=1.3840         C1-H168=1.0792       C2-C1=1.3821         C2-C3=1.3739         C2-H169=1.0790       
C3-C2=1.3739         C3-C4=1.4014         C3-H170=1.0767       C4-C3=1.4014         C4-C6=1.4159         C4-C33=1.4394        
C5-C1=1.3840         C5-C6=1.4070         C5-S200=1.7453       C6-C4=1.4159         C6-C5=1.4070         C6-C7=1.4447         
C7-C6=1.4447         C7-C10=1.4193        C7-C37=1.4165        C8-C9=1.3624         C8-C13=1.4071        C8-H171=1.0798       
C9-C8=1.3624         C9-C10=1.4251        C9-S200=1.7504       C10-C7=1.4193        C10-C9=1.4251        C10-C11=1.4226       
C11-C10=1.4226       C11-C14=1.4189       C11-C41=1.4179       C12-C13=1.3868       C12-C17=1.3906       C12-H172=1.0798      
C13-C8=1.4071        C13-C12=1.3868       C13-C14=1.4204       C14-C11=1.4189       C14-C13=1.4204       C14-C15=1.4123       
C15-C14=1.4123       C15-C18=1.4130       C15-C45=1.4164       C16-C17=1.4046       C16-C20=1.3654       C16-H173=1.0797      
C17-C12=1.3906       C17-C16=1.4046       C17-C18=1.4191       C18-C15=1.4130       C18-C17=1.4191       C18-C19=1.4190       
C19-C18=1.4190       C19-C21=1.4173       C19-C49=1.4199       C20-C16=1.3654       C20-C21=1.4197       C20-S201=1.7490      
C21-C19=1.4173       C21-C20=1.4197       C21-C22=1.4289       C22-C21=1.4289       C22-C25=1.4272       C22-C53=1.4169       
C23-C24=1.3639       C23-C28=1.4066       C23-H174=1.0798      C24-C23=1.3639       C24-C25=1.4217       C24-S201=1.7496      
C25-C22=1.4272       C25-C24=1.4217       C25-C26=1.4161       C26-C25=1.4161       C26-C29=1.4236       C26-C57=1.4205       
C27-C28=1.4003       C27-C31=1.3735       C27-H175=1.0797      C28-C23=1.4066       C28-C27=1.4003       C28-C29=1.4162       
C29-C26=1.4236       C29-C28=1.4162       C29-C30=1.4155       C30-C29=1.4155       C30-C32=1.3936       C30-C61=1.4430       
C31-C27=1.3735       C31-C32=1.3864       C31-H191=1.0801      C32-C30=1.3936       C32-C31=1.3864       C32-H192=1.0775      
C33-C4=1.4394        C33-C34=1.4008       C33-C38=1.4077       C34-C33=1.4008       C34-C35=1.3654       C34-H176=1.0769      
C35-C34=1.3654       C35-C36=1.3997       C35-H177=1.0776      C36-C35=1.3997       C36-C39=1.4138       C36-C67=1.4340       
C37-C7=1.4165        C37-C38=1.4294       C37-C42=1.4192       C38-C33=1.4077       C38-C37=1.4294       C38-C39=1.4206       
C39-C36=1.4138       C39-C38=1.4206       C39-C40=1.4221       C40-C39=1.4221       C40-C43=1.4121       C40-C71=1.4142       
C41-C11=1.4179       C41-C42=1.4107       C41-C46=1.4216       C42-C37=1.4192       C42-C41=1.4107       C42-C43=1.4244       
C43-C40=1.4121       C43-C42=1.4244       C43-C44=1.4148       C44-C43=1.4148       C44-C47=1.4160       C44-C75=1.4154       
C45-C15=1.4164       C45-C46=1.4104       C45-C50=1.4143       C46-C41=1.4216       C46-C45=1.4104       C46-C47=1.4146       
C47-C44=1.4160       C47-C46=1.4146       C47-C48=1.4128       C48-C47=1.4128       C48-C51=1.4140       C48-C79=1.4171       
C49-C19=1.4199       C49-C50=1.4181       C49-C54=1.4100       C50-C45=1.4143       C50-C49=1.4181       C50-C51=1.4125       
C51-C48=1.4140       C51-C50=1.4125       C51-C52=1.4149       C52-C51=1.4149       C52-C55=1.4106       C52-C83=1.4174       
C53-C22=1.4169       C53-C54=1.4212       C53-C58=1.4214       C54-C49=1.4100       C54-C53=1.4212       C54-C55=1.4189       
C55-C52=1.4106       C55-C54=1.4189       C55-C56=1.4165       C56-C55=1.4165       C56-C59=1.4123       C56-C87=1.4146       
C57-C26=1.4205       C57-C58=1.4061       C57-C62=1.4250       C58-C53=1.4214       C58-C57=1.4061       C58-C59=1.4246       
C59-C56=1.4123       C59-C58=1.4246       C59-C60=1.4110       C60-C59=1.4110       C60-C63=1.4208       C60-C91=1.4176       
C61-C30=1.4430       C61-C62=1.4114       C61-C65=1.3973       C62-C57=1.4250       C62-C61=1.4114       C62-C63=1.4188       
C63-C60=1.4208       C63-C62=1.4188       C63-C64=1.4120       C64-C63=1.4120       C64-C66=1.3980       C64-C95=1.4381       
C65-C61=1.3973       C65-C66=1.3694       C65-H193=1.0774      C66-C64=1.3980       C66-C65=1.3694       C66-H194=1.0774      
C67-C36=1.4340       C67-C68=1.4179       C67-C72=1.4089       C68-C67=1.4179       C68-C69=1.3435       C68-H178=1.0773      
C69-C68=1.3435       C69-C70=1.3760       C70-C69=1.3760       C70-C73=1.4188       C70-C101=1.4283      C71-C40=1.4142       
C71-C72=1.4239       C71-C76=1.4120       C72-C67=1.4089       C72-C71=1.4239       C72-C73=1.4162       C73-C70=1.4188       
C73-C72=1.4162       C73-C74=1.4179       C74-C73=1.4179       C74-C77=1.4107       C74-C105=1.4152      C75-C44=1.4154       
C75-C76=1.4121       C75-C80=1.4178       C76-C71=1.4120       C76-C75=1.4121       C76-C77=1.4214       C77-C74=1.4107       
C77-C76=1.4214       C77-C78=1.4124       C78-C77=1.4124       C78-C81=1.4151       C78-C109=1.4143      C79-C48=1.4171       
C79-C80=1.4102       C79-C84=1.4147       C80-C75=1.4178       C80-C79=1.4102       C80-C81=1.4157       C81-C78=1.4151       
C81-C80=1.4157       C81-C82=1.4116       C82-C81=1.4116       C82-C85=1.4126       C82-C113=1.4173      C83-C52=1.4174       
C83-C84=1.4137       C83-C88=1.4103       C84-C79=1.4147       C84-C83=1.4137       C84-C85=1.4136       C85-C82=1.4126       
C85-C84=1.4136       C85-C86=1.4152       C86-C85=1.4152       C86-C89=1.4090       C86-C117=1.4184      C87-C56=1.4146       
C87-C88=1.4147       C87-C92=1.4134       C88-C83=1.4103       C88-C87=1.4147       C88-C89=1.4166       C89-C86=1.4090       
C89-C88=1.4166       C89-C90=1.4161       C90-C89=1.4161       C90-C93=1.4128       C90-C121=1.4153      C91-C60=1.4176       
C91-C92=1.4087       C91-C96=1.4218       C92-C87=1.4134       C92-C91=1.4087       C92-C93=1.4231       C93-C90=1.4128       
C93-C92=1.4231       C93-C94=1.4097       C94-C93=1.4097       C94-C97=1.4221       C94-C125=1.4180      C95-C64=1.4381       
C95-C96=1.4101       C95-C99=1.3996       C96-C91=1.4218       C96-C95=1.4101       C96-C97=1.4196       C97-C94=1.4221       
C97-C96=1.4196       C97-C98=1.4102       C98-C97=1.4102       C98-C100=1.4001      C98-C129=1.4379      C99-C95=1.3996       
C99-C100=1.3678      C99-H195=1.0774      C100-C98=1.4001      C100-C99=1.3678      C100-H196=1.0773     C101-C70=1.4283      
C101-C102=1.3982     C101-C106=1.4059     C102-C101=1.3982     C102-C103=1.3704     C102-H179=1.0810     C103-C102=1.3704     
C103-C104=1.4022     C103-H180=1.0778     C104-C103=1.4022     C104-C107=1.4140     C104-C135=1.4471     C105-C74=1.4152      
C105-C106=1.4213     C105-C110=1.4086     C106-C101=1.4059     C106-C105=1.4213     C106-C107=1.4177     C107-C104=1.4140     
C107-C106=1.4177     C107-C108=1.4208     C108-C107=1.4208     C108-C111=1.4100     C108-C139=1.4184     C109-C78=1.4143      
C109-C110=1.4122     C109-C114=1.4156     C110-C105=1.4086     C110-C109=1.4122     C110-C111=1.4216     C111-C108=1.4100     
C111-C110=1.4216     C111-C112=1.4133     C112-C111=1.4133     C112-C115=1.4150     C112-C143=1.4160     C113-C82=1.4173      
C113-C114=1.4093     C113-C118=1.4156     C114-C109=1.4156     C114-C113=1.4093     C114-C115=1.4160     C115-C112=1.4150     
C115-C114=1.4160     C115-C116=1.4108     C116-C115=1.4108     C116-C119=1.4135     C116-C147=1.4180     C117-C86=1.4184      
C117-C118=1.4130     C117-C122=1.4122     C118-C113=1.4156     C118-C117=1.4130     C118-C119=1.4139     C119-C116=1.4135     
C119-C118=1.4139     C119-C120=1.4177     C120-C119=1.4177     C120-C123=1.4098     C120-C151=1.4214     C121-C90=1.4153      
C121-C122=1.4162     C121-C126=1.4135     C122-C117=1.4122     C122-C121=1.4162     C122-C123=1.4193     C123-C120=1.4098     
C123-C122=1.4193     C123-C124=1.4223     C124-C123=1.4223     C124-C127=1.4211     C124-C155=1.4183     C125-C94=1.4180      
C125-C126=1.4116     C125-C130=1.4216     C126-C121=1.4135     C126-C125=1.4116     C126-C127=1.4257     C127-C124=1.4211     
C127-C126=1.4257     C127-C128=1.4079     C128-C127=1.4079     C128-C131=1.4253     C128-C158=1.4213     C129-C98=1.4379      
C129-C130=1.4123     C129-C133=1.3982     C130-C125=1.4216     C130-C129=1.4123     C130-C131=1.4196     C131-C128=1.4253     
C131-C130=1.4196     C131-C132=1.4120     C132-C131=1.4120     C132-C134=1.3971     C132-C162=1.4424     C133-C129=1.3982     
C133-C134=1.3684     C133-H197=1.0772     C134-C132=1.3971     C134-C133=1.3684     C134-H198=1.0772     C135-C104=1.4471     
C135-C136=1.3953     C135-C140=1.4156     C136-C135=1.3953     C136-C137=1.3894     C136-H181=1.0776     C137-C136=1.3894     
C137-C138=1.3715     C137-H182=1.0804     C138-C137=1.3715     C138-C141=1.4089     C138-H183=1.0800     C139-C108=1.4184     
C139-C140=1.4187     C139-C144=1.4085     C140-C135=1.4156     C140-C139=1.4187     C140-C141=1.4258     C141-C138=1.4089     
C141-C140=1.4258     C141-C142=1.3974     C142-C141=1.3974     C142-C145=1.3958     C142-H184=1.0807     C143-C112=1.4160     
C143-C144=1.4119     C143-C148=1.4137     C144-C139=1.4085     C144-C143=1.4119     C144-C145=1.4314     C145-C142=1.3958     
C145-C144=1.4314     C145-C146=1.3986     C146-C145=1.3986     C146-C149=1.3958     C146-H185=1.0805     C147-C116=1.4180     
C147-C148=1.4089     C147-C152=1.4138     C148-C143=1.4137     C148-C147=1.4089     C148-C149=1.4294     C149-C146=1.3958     
C149-C148=1.4294     C149-C150=1.3994     C150-C149=1.3994     C150-C153=1.3882     C150-H186=1.0802     C151-C120=1.4214     
C151-C152=1.4159     C151-C156=1.4186     C152-C147=1.4138     C152-C151=1.4159     C152-C153=1.4223     C153-C150=1.3882     
C153-C152=1.4223     C153-C154=1.4075     C154-C153=1.4075     C154-C157=1.3650     C154-H187=1.0797     C155-C124=1.4183     
C155-C156=1.4274     C155-C159=1.4281     C156-C151=1.4186     C156-C155=1.4274     C156-C157=1.4207     C157-C154=1.3650     
C157-C156=1.4207     C157-S202=1.7489     C158-C128=1.4213     C158-C159=1.4165     C158-C163=1.4241     C159-C155=1.4281     
C159-C158=1.4165     C159-C160=1.4213     C160-C159=1.4213     C160-C161=1.3640     C160-S202=1.7501     C161-C160=1.3640     
C161-C164=1.4056     C161-H188=1.0798     C162-C132=1.4424     C162-C163=1.4152     C162-C166=1.3940     C163-C158=1.4241     
C163-C162=1.4152     C163-C164=1.4163     C164-C161=1.4056     C164-C163=1.4163     C164-C165=1.4004     C165-C164=1.4004     
C165-C167=1.3732     C165-H189=1.0797     C166-C162=1.3940     C166-C167=1.3861     C166-H199=1.0773     C167-C165=1.3732     
C167-C166=1.3861     C167-H190=1.0801     H168-C1=1.0792       H169-C2=1.0790       H170-C3=1.0767       H171-C8=1.0798       
H172-C12=1.0798      H173-C16=1.0797      H174-C23=1.0798      H175-C27=1.0797      H176-C34=1.0769      H177-C35=1.0776      
H178-C68=1.0773      H179-C102=1.0810     H180-C103=1.0778     H181-C136=1.0776     H182-C137=1.0804     H183-C138=1.0800     
H184-C142=1.0807     H185-C146=1.0805     H186-C150=1.0802     H187-C154=1.0797     H188-C161=1.0798     H189-C165=1.0797     
H190-C167=1.0801     H191-C31=1.0801      H192-C32=1.0775      H193-C65=1.0774      H194-C66=1.0774      H195-C99=1.0774      
H196-C100=1.0773     H197-C133=1.0772     H198-C134=1.0772     H199-C166=1.0773     S200-C5=1.7453       S200-C9=1.7504       
S201-C20=1.7490      S201-C24=1.7496      S202-C157=1.7489     S202-C160=1.7501     
 C  H  Rav=1.0788 sigma=0.0014  Rmin=1.0767  Rmax=1.0810    32
 C  C  Rav=1.4111 sigma=0.0158  Rmin=1.3435  Rmax=1.4471   231
 S  C  Rav=1.7489 sigma=0.0017  Rmin=1.7453  Rmax=1.7504     6
 
 selected bond angles (degree)
 --------------------
C5-C1-C2=120.00                H168-C1-C2=121.17              H168-C1-C5=118.83              C3-C2-C1=119.03                
H169-C2-C1=120.30              H169-C2-C3=120.66              C4-C3-C2=121.70                H170-C3-C2=118.29              
H170-C3-C4=120.00              C6-C4-C3=120.10                C33-C4-C3=120.63               C33-C4-C6=119.26               
C6-C5-C1=122.72                S200-C5-C1=114.09              S200-C5-C6=123.16              C5-C6-C4=116.08                
C7-C6-C4=120.21                C7-C6-C5=123.69                C10-C7-C6=121.87               C37-C7-C6=119.08               
C37-C7-C10=118.99              C13-C8-C9=121.41               H171-C8-C9=119.42              H171-C8-C13=119.17             
C10-C9-C8=122.72               S200-C9-C8=113.92              S200-C9-C10=123.34             C9-C10-C7=123.27               
C11-C10-C7=120.38              C11-C10-C9=116.34              
 
 selected dihedral angles (degree)
 ---------------------------------
C3-C2-C1-C5=356.43            C3-C2-C1-H168=177.31          H169-C2-C1-C5=177.20          H169-C2-C1-H168=358.09        
C4-C3-C2-C1=  0.92            C4-C3-C2-H169=180.14          H170-C3-C2-C1=180.17          H170-C3-C2-H169=359.39        
C6-C4-C3-C2=  4.54            C6-C4-C3-H170=185.30          C33-C4-C3-C2=185.72           C33-C4-C3-H170=  6.48         
C6-C5-C1-C2=  0.80            C6-C5-C1-H168=179.94          S200-C5-C1-C2=178.89          S200-C5-C1-H168=358.02        
C5-C6-C4-C3=353.04            C5-C6-C4-C33=171.87           C7-C6-C4-C3=171.48            C7-C6-C4-C33=350.31           
C4-C6-C5-C1=  4.43            C4-C6-C5-S200=186.52          C7-C6-C5-C1=186.05            C7-C6-C5-S200=  8.14          
C10-C7-C6-C4=186.22           C10-C7-C6-C5=  4.54           C37-C7-C6-C4=  3.27           C37-C7-C6-C5=181.59           
C10-C9-C8-C13=359.43          C10-C9-C8-H171=179.89         S200-C9-C8-C13=180.78         S200-C9-C8-H171=  1.24        
C9-C10-C7-C6=353.35           C9-C10-C7-C37=176.29          C11-C10-C7-C6=172.72          C11-C10-C7-C37=355.67         
C7-C10-C9-C8=177.48           C7-C10-C9-S200=356.00         C11-C10-C9-C8=358.08          C11-C10-C9-S200=176.60        
           -------------------------------------------------
          |                Final Singlepoint                |
           -------------------------------------------------

          ...................................................
          :                      SETUP                      :
          :.................................................:
          :  # basis functions                 730          :
          :  # atomic orbitals                 727          :
          :  # shells                          375          :
          :  # electrons                       718          :
          :  max. iterations                   250          :
          :  Hamiltonian                  GFN2-xTB          :
          :  restarted?                      false          :
          :  GBSA solvation                  false          :
          :  PC potential                    false          :
          :  electronic temp.          300.0000000     K    :
          :  accuracy                    1.0000000          :
          :  -> integral cutoff          0.2500000E+02      :
          :  -> integral neglect         0.1000000E-07      :
          :  -> SCF convergence          0.1000000E-05 Eh   :
          :  -> wf. convergence          0.1000000E-03 e    :
          :  Broyden damping             0.4000000          :
          :  net charge                          0          :
          :  unpaired electrons                  0          :
          ...................................................

 iter      E             dE          RMSdq      gap      omega  full diag
   1   -392.5455065 -0.392546E+03  0.197E-05    0.01       0.0  T
   2   -392.5455062  0.374303E-06  0.984E-04    0.01       7.2  T
   3   -392.5455065 -0.374304E-06  0.191E-05    0.01     369.2  T

   *** convergence criteria satisfied after 3 iterations ***

         #    Occupation            Energy/Eh            Energy/eV
      -------------------------------------------------------------
         1        2.0000           -0.7277425             -19.8029
       ...           ...                  ...                  ...
       353        2.0000           -0.3672073              -9.9922
       354        2.0000           -0.3643763              -9.9152
       355        2.0000           -0.3546033              -9.6492
       356        2.0000           -0.3521870              -9.5835
       357        2.0000           -0.3518307              -9.5738
       358        2.0000           -0.3419838              -9.3059
       359        1.1019           -0.3285311              -8.9398 (HOMO)
       360        0.8981           -0.3281426              -8.9292 (LUMO)
       361        0.0000           -0.3166932              -8.6177
       362                         -0.2964337              -8.0664
       363                         -0.2938101              -7.9950
       364                         -0.2903047              -7.8996
       ...                                ...                  ...
       727                          0.7880396              21.4436
      -------------------------------------------------------------
                  HL-Gap            0.0003885 Eh            0.0106 eV
             Fermi-level           -0.3283369 Eh           -8.9345 eV

 SCC (total)                   0 d,  0 h,  0 min,  1.119 sec
 SCC setup                      ...        0 min,  0.004 sec (  0.357%)
 Dispersion                     ...        0 min,  0.010 sec (  0.894%)
 classical contributions        ...        0 min,  0.001 sec (  0.089%)
 integral evaluation            ...        0 min,  0.089 sec (  7.954%)
 iterations                     ...        0 min,  0.550 sec ( 49.151%)
 molecular gradient             ...        0 min,  0.447 sec ( 39.946%)
 printout                       ...        0 min,  0.018 sec (  1.609%)

         :::::::::::::::::::::::::::::::::::::::::::::::::::::
         ::                     SUMMARY                     ::
         :::::::::::::::::::::::::::::::::::::::::::::::::::::
         :: total energy            -385.086537319505 Eh    ::
[...]
    15   6 C       18   6 C                                       1.4129821
    17   6 C       18   6 C                                       1.4190666
    18   6 C       19   6 C                                       1.4189853
    16   6 C       20   6 C                                       1.3653782
    19   6 C       21   6 C                                       1.4173109
    20   6 C       21   6 C                                       1.4197370
    21   6 C       22   6 C                                       1.4289132
    23   6 C       24   6 C                                       1.3639178
    22   6 C       25   6 C                                       1.4272475
    24   6 C       25   6 C                                       1.4216687
    25   6 C       26   6 C                                       1.4160640
    23   6 C       28   6 C                                       1.4066072
    27   6 C       28   6 C                                       1.4002847
    26   6 C       29   6 C                                       1.4235533
    28   6 C       29   6 C                                       1.4161653
    29   6 C       30   6 C                                       1.4155438
    27   6 C       31   6 C                                       1.3735036
    30   6 C       32   6 C                                       1.3936016
    31   6 C       32   6 C                                       1.3864170
    33   6 C       34   6 C                                       1.4007793
    34   6 C       35   6 C                                       1.3653920
    35   6 C       36   6 C                                       1.3997249
     7   6 C       37   6 C                                       1.4165142
    33   6 C       38   6 C                                       1.4076516
    37   6 C       38   6 C                                       1.4293602
    36   6 C       39   6 C                                       1.4137648
    38   6 C       39   6 C                                       1.4206281
    39   6 C       40   6 C                                       1.4220836
    11   6 C       41   6 C                                       1.4179347
    37   6 C       42   6 C                                       1.4192397
    41   6 C       42   6 C                                       1.4106983
    40   6 C       43   6 C                                       1.4121032
    42   6 C       43   6 C                                       1.4243576
    43   6 C       44   6 C                                       1.4148180
    15   6 C       45   6 C                                       1.4164175
    41   6 C       46   6 C                                       1.4216172
    45   6 C       46   6 C                                       1.4103604
    44   6 C       47   6 C                                       1.4159656
    46   6 C       47   6 C                                       1.4145814
    47   6 C       48   6 C                                       1.4127768
    19   6 C       49   6 C                                       1.4199424
    45   6 C       50   6 C                                       1.4142793
    49   6 C       50   6 C                                       1.4180651
    48   6 C       51   6 C                                       1.4139676
    50   6 C       51   6 C                                       1.4125349
    51   6 C       52   6 C                                       1.4148570
    22   6 C       53   6 C                                       1.4169041
    49   6 C       54   6 C                                       1.4100109
    53   6 C       54   6 C                                       1.4211676
    52   6 C       55   6 C                                       1.4105957
    54   6 C       55   6 C                                       1.4188661
    55   6 C       56   6 C                                       1.4164747
    26   6 C       57   6 C                                       1.4204870
    53   6 C       58   6 C                                       1.4213847
    57   6 C       58   6 C                                       1.4061129
    56   6 C       59   6 C                                       1.4122900
    58   6 C       59   6 C                                       1.4246108
    59   6 C       60   6 C                                       1.4109931
    57   6 C       62   6 C                                       1.4250026
    61   6 C       62   6 C                                       1.4114220
    60   6 C       63   6 C                                       1.4208016
    62   6 C       63   6 C                                       1.4187820
    63   6 C       64   6 C                                       1.4120150
    61   6 C       65   6 C                                       1.3972708
    64   6 C       66   6 C                                       1.3980050
    65   6 C       66   6 C                                       1.3693554
    36   6 C       67   6 C                                       1.4339945
    67   6 C       68   6 C                                       1.4178559
    68   6 C       69   6 C                                       1.3434522
    69   6 C       70   6 C                                       1.3760470
    40   6 C       71   6 C                                       1.4141858
    67   6 C       72   6 C                                       1.4088666
    71   6 C       72   6 C                                       1.4239250
    70   6 C       73   6 C                                       1.4187638
    72   6 C       73   6 C                                       1.4161867
    73   6 C       74   6 C                                       1.4179035
    44   6 C       75   6 C                                       1.4153520
    71   6 C       76   6 C                                       1.4119864
    75   6 C       76   6 C                                       1.4121248
    74   6 C       77   6 C                                       1.4106820
    76   6 C       77   6 C                                       1.4213808
    77   6 C       78   6 C                                       1.4124210
    48   6 C       79   6 C                                       1.4171207
    75   6 C       80   6 C                                       1.4177963
    79   6 C       80   6 C                                       1.4101547
    78   6 C       81   6 C                                       1.4150827
    80   6 C       81   6 C                                       1.4156616
    81   6 C       82   6 C                                       1.4116389
    52   6 C       83   6 C                                       1.4174344
    79   6 C       84   6 C                                       1.4147296
    83   6 C       84   6 C                                       1.4137246
    82   6 C       85   6 C                                       1.4126322
    84   6 C       85   6 C                                       1.4136200
    85   6 C       86   6 C                                       1.4152477
    56   6 C       87   6 C                                       1.4145817
    83   6 C       88   6 C                                       1.4102921
    87   6 C       88   6 C                                       1.4147109
    86   6 C       89   6 C                                       1.4089524
    88   6 C       89   6 C                                       1.4165928
    89   6 C       90   6 C                                       1.4161074
    60   6 C       91   6 C                                       1.4176242
    87   6 C       92   6 C                                       1.4134440
    91   6 C       92   6 C                                       1.4087224
    90   6 C       93   6 C                                       1.4127602
    92   6 C       93   6 C                                       1.4230589
    93   6 C       94   6 C                                       1.4096669
    91   6 C       96   6 C                                       1.4218341
    95   6 C       96   6 C                                       1.4101424
    94   6 C       97   6 C                                       1.4221175
    96   6 C       97   6 C                                       1.4195796
    97   6 C       98   6 C                                       1.4102471
    95   6 C       99   6 C                                       1.3996465
    98   6 C      100   6 C                                       1.4000958
    99   6 C      100   6 C                                       1.3677806
    70   6 C      101   6 C                                       1.4283364
   101   6 C      102   6 C                                       1.3982155
   102   6 C      103   6 C                                       1.3703630
   103   6 C      104   6 C                                       1.4022015
    74   6 C      105   6 C                                       1.4151938
   101   6 C      106   6 C                                       1.4058915
   105   6 C      106   6 C                                       1.4212685
   104   6 C      107   6 C                                       1.4140225
   106   6 C      107   6 C                                       1.4176711
   107   6 C      108   6 C                                       1.4207592
    78   6 C      109   6 C                                       1.4142663
   105   6 C      110   6 C                                       1.4086234
   109   6 C      110   6 C                                       1.4121970
   108   6 C      111   6 C                                       1.4099551
   110   6 C      111   6 C                                       1.4216195
   111   6 C      112   6 C                                       1.4132680
    82   6 C      113   6 C                                       1.4173225
   109   6 C      114   6 C                                       1.4155870
   113   6 C      114   6 C                                       1.4092956
   112   6 C      115   6 C                                       1.4149780
   114   6 C      115   6 C                                       1.4159518
   115   6 C      116   6 C                                       1.4107891
    86   6 C      117   6 C                                       1.4183508
   113   6 C      118   6 C                                       1.4155642
   117   6 C      118   6 C                                       1.4129673
   116   6 C      119   6 C                                       1.4134732
   118   6 C      119   6 C                                       1.4139022
   119   6 C      120   6 C                                       1.4177490
    90   6 C      121   6 C                                       1.4152620
   117   6 C      122   6 C                                       1.4121815
   121   6 C      122   6 C                                       1.4161589
   120   6 C      123   6 C                                       1.4098213
   122   6 C      123   6 C                                       1.4193143
   123   6 C      124   6 C                                       1.4223349
    94   6 C      125   6 C                                       1.4180399
   121   6 C      126   6 C                                       1.4134676
   125   6 C      126   6 C                                       1.4115738
   124   6 C      127   6 C                                       1.4210658
   126   6 C      127   6 C                                       1.4256692
   127   6 C      128   6 C                                       1.4079330
   125   6 C      130   6 C                                       1.4215885
   129   6 C      130   6 C                                       1.4123468
   128   6 C      131   6 C                                       1.4252732
   130   6 C      131   6 C                                       1.4195984
   131   6 C      132   6 C                                       1.4119977
   129   6 C      133   6 C                                       1.3981922
   132   6 C      134   6 C                                       1.3971374
   133   6 C      134   6 C                                       1.3684029
   135   6 C      136   6 C                                       1.3953301
   136   6 C      137   6 C                                       1.3894104
   137   6 C      138   6 C                                       1.3715123
   108   6 C      139   6 C                                       1.4183771
   135   6 C      140   6 C                                       1.4155734
   139   6 C      140   6 C                                       1.4187393
   138   6 C      141   6 C                                       1.4089190
   140   6 C      141   6 C                                       1.4258245
   141   6 C      142   6 C                                       1.3974121
   112   6 C      143   6 C                                       1.4160317
   139   6 C      144   6 C                                       1.4085117
   143   6 C      144   6 C                                       1.4119157
   142   6 C      145   6 C                                       1.3957777
   144   6 C      145   6 C                                       1.4313860
   145   6 C      146   6 C                                       1.3985835
   116   6 C      147   6 C                                       1.4180443
   143   6 C      148   6 C                                       1.4136561
   147   6 C      148   6 C                                       1.4089295
   146   6 C      149   6 C                                       1.3958404
   148   6 C      149   6 C                                       1.4293501
   149   6 C      150   6 C                                       1.3994280
   120   6 C      151   6 C                                       1.4213940
   147   6 C      152   6 C                                       1.4137616
   151   6 C      152   6 C                                       1.4158933
   150   6 C      153   6 C                                       1.3881619
   152   6 C      153   6 C                                       1.4223440
   153   6 C      154   6 C                                       1.4075000
   124   6 C      155   6 C                                       1.4183407
   151   6 C      156   6 C                                       1.4185810
   155   6 C      156   6 C                                       1.4273705
   154   6 C      157   6 C                                       1.3650373
   156   6 C      157   6 C                                       1.4207437
   128   6 C      158   6 C                                       1.4212527
   155   6 C      159   6 C                                       1.4281128
   158   6 C      159   6 C                                       1.4165414
   159   6 C      160   6 C                                       1.4212882
   160   6 C      161   6 C                                       1.3640011
   158   6 C      163   6 C                                       1.4240959
   162   6 C      163   6 C                                       1.4151942
   161   6 C      164   6 C                                       1.4056470
   163   6 C      164   6 C                                       1.4162682
   164   6 C      165   6 C                                       1.4003765
   162   6 C      166   6 C                                       1.3940128
   165   6 C      167   6 C                                       1.3732018
   166   6 C      167   6 C                                       1.3861482
     1   6 C      168   1 H                                       1.0792130
     2   6 C      169   1 H                                       1.0790373
     3   6 C      170   1 H                                       1.0766502 (min)
     8   6 C      171   1 H                                       1.0798339
    12   6 C      172   1 H                                       1.0797974
    16   6 C      173   1 H                                       1.0796949
    23   6 C      174   1 H                                       1.0798069
    27   6 C      175   1 H                                       1.0797077
    34   6 C      176   1 H                                       1.0769031
    35   6 C      177   1 H                                       1.0775615
    68   6 C      178   1 H                                       1.0773047
   102   6 C      179   1 H                                       1.0809870
   103   6 C      180   1 H                                       1.0777897
   136   6 C      181   1 H                                       1.0776481
   137   6 C      182   1 H                                       1.0803856
   138   6 C      183   1 H                                       1.0800383
   142   6 C      184   1 H                                       1.0807254
   146   6 C      185   1 H                                       1.0805290
   150   6 C      186   1 H                                       1.0802259
   154   6 C      187   1 H                                       1.0797408
   161   6 C      188   1 H                                       1.0798306
   165   6 C      189   1 H                                       1.0796929
   167   6 C      190   1 H                                       1.0801162
    31   6 C      191   1 H                                       1.0801392
    32   6 C      192   1 H                                       1.0774863
    65   6 C      193   1 H                                       1.0773880
    66   6 C      194   1 H                                       1.0774495
    99   6 C      195   1 H                                       1.0774380
   100   6 C      196   1 H                                       1.0772528
   133   6 C      197   1 H                                       1.0771715
   134   6 C      198   1 H                                       1.0772071
   166   6 C      199   1 H                                       1.0773217
     5   6 C      200  16 S                                       1.7452849
     9   6 C      200  16 S                                       1.7504135 (max)
    20   6 C      201  16 S                                       1.7490367
    24   6 C      201  16 S                                       1.7496286
   157   6 C      202  16 S                                       1.7489407
   160   6 C      202  16 S                                       1.7500878

 * 3 distinct bonds (by element types)

   Z      Z             #   av. dist./Å        max./Å        min./Å
   1 H    6 C          32     1.0788148     1.0809870     1.0766502
   6 C    6 C         224     1.4101046     1.4339945     1.3434522
   6 C   16 S           6     1.7488987     1.7504135     1.7452849


optimized geometry written to: xtbopt.xyz


           -------------------------------------------------
          | TOTAL ENERGY             -385.086537319505 Eh   |
          | GRADIENT NORM               0.000230387193 Eh/α |
          | HOMO-LUMO GAP               0.010570724217 eV   |
           -------------------------------------------------

------------------------------------------------------------------------
 * finished run on 2025/12/08 at 00:45:23.389     
------------------------------------------------------------------------
 total:
 * wall-time:     0 d,  0 h,  0 min, 59.513 sec
 *  cpu-time:     0 d,  0 h,  3 min, 51.531 sec
 * ratio c/w:     3.890 speedup
 SCF:
 * wall-time:     0 d,  0 h,  0 min,  5.771 sec
 *  cpu-time:     0 d,  0 h,  0 min, 22.672 sec
 * ratio c/w:     3.929 speedup
 ANC optimizer:
 * wall-time:     0 d,  0 h,  0 min, 53.557 sec
 *  cpu-time:     0 d,  0 h,  3 min, 28.188 sec
 * ratio c/w:     3.887 speedup

normal termination of xtb
