202
 energy: -385.086537319505 gnorm: 0.000230387193 xtb: 6.7.1pre (5071a88)
C           11.13665235867828        6.91478012920793       -0.12679229275634
C           10.66503182349994        8.11669640273622        0.36624318343301
C            9.31305327760777        8.27724157658853        0.55072709168287
C            8.40415420137470        7.24813852760867        0.26985080583059
C           10.25939430023596        5.86935328645169       -0.35718507667212
C            8.87548458920786        5.97279799976548       -0.12545423102854
C            7.95885000715724        4.86174043803795       -0.23749622144477
C           10.19382725522443        1.95013087966125       -1.01965680874898
C            9.76352823947074        3.22658345535490       -0.81536516726886
C            8.40935325198624        3.54240190286761       -0.50345335088443
C            7.50105614646677        2.44854410059749       -0.45490494326798
C            9.76156815859860       -0.44609271860169       -1.09456904853604
C            9.31522577716822        0.85546593092488       -0.92131046189293
C            7.94736882610131        1.11431821258092       -0.63923247302246
C            7.05302665512088        0.02550292530129       -0.54342607680906
C            9.33502517447224       -2.84647315582274       -1.12180809094494
C            8.89094301516981       -1.52290597520549       -0.96694016628919
C            7.51910436356112       -1.30146523715724       -0.67923838564858
C            6.64167044981742       -2.40643059280141       -0.52863923423796
C            8.48709094368385       -3.90266623006330       -0.94941013584715
C            7.11739068905504       -3.73880846489745       -0.61366519071449
C            6.23991176846611       -4.83660019701637       -0.35544731409612
C            8.53986377062959       -7.80065943727826       -0.22951001300630
C            8.05996437311010       -6.55164155827007       -0.49393818901725
C            6.71069695683499       -6.17941618649186       -0.24480519015503
C            5.83441830909862       -7.21545818906844        0.16015114368996
C            8.20644193795858      -10.07808952272281        0.59478753689293
C            7.70130203236531       -8.81271397465155        0.27159208337900
C            6.32235335702700       -8.52703267995107        0.42129331324489
C            5.45639545360485       -9.56273618146185        0.84696800739652
C            7.36087832847968      -11.05402526027643        1.06285105770638
C            6.00261438481449      -10.80123406255373        1.17846899727722
C            6.98586516333227        7.47908924110661        0.35398342192398
C            6.47439337455405        8.77458195991696        0.50323964312892
C            5.13125079348477        9.00762260187160        0.58040932877616
C            4.20746829307348        7.95719635383665        0.53080982862132
C            6.57762970275786        5.08373410365810       -0.01509716057847
C            6.08632219289384        6.40355432544479        0.22936517441640
C            4.69031616621811        6.64206924984195        0.34099664560827
C            3.77389546593674        5.55809594451322        0.25441449274093
C            6.12074740535804        2.68467145632205       -0.23235149341687
C            5.65655324551196        4.00463924258999       -0.05269043469255
C            4.25940046019398        4.24236204699281        0.08959894759435
C            3.34716811752039        3.16155716486227        0.05214836087986
C            5.67471172327421        0.26700302921873       -0.32396362846512
C            5.21031767964150        1.59322282881546       -0.20315237562560
C            3.82322629334450        1.83304147203997       -0.06349287788932
C            2.91824148518467        0.74822773802570       -0.05256075784947
C            5.26067756763488       -2.15931208990499       -0.30948830138425
C            4.78106814078331       -0.82635156521994       -0.24546263062273
C            3.39624848110240       -0.58108846866638       -0.11364860211915
C            2.49330194415915       -1.66864456386816       -0.05258015448179
C            4.86366548471528       -4.57590119366128       -0.14190792705373
C            4.37003300597979       -3.24352055131201       -0.17029562708535
C            2.97908307318240       -2.99293394688975       -0.04521407532602
C            2.07091475054895       -4.07220388570166        0.08442702971723
C            4.44560660423103       -6.95045097333585        0.29710468853750
C            3.96053291888540       -5.64368973593829        0.11208679187776
C            2.56090206418069       -5.39198566917296        0.19690420006241
C            1.65639456662710       -6.45662539438039        0.39517102105187
C            4.03744450004163       -9.30464607112239        0.89534689861765
C            3.54779421569359       -8.01232647402512        0.60852937489467
C            2.14978341589198       -7.77056166355021        0.61611386811231
C            1.24710358139899       -8.82983630486044        0.85463482356759
C            3.11933488716789      -10.31346952450847        1.19819217545302
C            1.76901762136707      -10.08752491462141        1.17124591451917
C            2.79698528170016        8.19374080350548        0.63532845579242
C            2.27023629431305        9.48670383239276        0.88250670924076
C            0.93667887171055        9.64927159659650        0.89024218135631
C           -0.00806138472740        8.66495854300392        0.71108088400544
C            2.38217895233325        5.79699473867871        0.33170372852873
C            1.89138368443333        7.12242044836528        0.50470281955302
C            0.49395647243484        7.34802983090465        0.54808636625464
C           -0.42388798095310        6.27670794079583        0.40567545371927
C            1.95423708698251        3.40096669530087        0.12729665148841
C            1.47037840406753        4.72236494938357        0.24512463155153
C            0.06960188049952        4.96159683341965        0.27539208572393
C           -0.83715816262192        3.88340544927958        0.17428708790649
C            1.52368699567948        0.99140630801170        0.01311027009094
C            1.04332664785741        2.31557784255428        0.07913804262513
C           -0.35157398309368        2.55660264727998        0.09516073160905
C           -1.25842868556588        1.47675258002166        0.02987267790776
C            1.09846319096180       -1.42216256652802        0.00025336241547
C            0.61566441588020       -0.09344495857716        0.00588280175677
C           -0.77702651804902        0.14890390680934        0.00539318320919
C           -1.68719505328556       -0.93458005100085       -0.01872199693479
C            0.67819387166916       -3.82692922331663        0.11921191248755
C            0.19102515315975       -2.50077427310238        0.04582169873809
C           -1.20438394493309       -2.25743758662121        0.02697007717484
C           -2.11657881198471       -3.34005984033916        0.06145837212448
C            0.25965757516693       -6.21417396898302        0.39624702967653
C           -0.23050219058806       -4.90332515519083        0.23525907124849
C           -1.63209919681279       -4.66040153443776        0.19513044486189
C           -2.54300621446349       -5.73177521147421        0.29294233073659
C           -0.16941724245538       -8.59756701067664        0.76796452324412
C           -0.65514706106685       -7.29126048985107        0.55318304065662
C           -2.05298547001757       -7.05244288558911        0.48822261352449
C           -2.95895157858755       -8.12524396940714        0.61906529694709
C           -1.09511101831067       -9.64269374889744        0.86701587931717
C           -2.44165988011592       -9.41477998492181        0.79161700360741
C           -1.41427030018454        8.91381210647127        0.68292252416346
C           -1.90974210847593       10.21424533375252        0.81852190713706
C           -3.25649277820710       10.46218677018719        0.76673357657902
C           -4.18785082701050        9.43071872330327        0.58014688642461
C           -1.81755464438703        6.52213560757725        0.39045343938223
C           -2.31493723143964        7.84803263453227        0.51133102136749
C           -3.70796295711786        8.10609196291849        0.45960331678887
C           -4.60587963375377        7.01987680230246        0.27949647470664
C           -2.23013998585590        4.12695877395648        0.15349766449378
C           -2.71824063483569        5.44901670712928        0.24416559673329
C           -4.11604302972466        5.70116791636680        0.18441712119725
C           -5.01176017243279        4.62065760217100        0.01854230694923
C           -2.65401822403951        1.72049131631683       -0.01164799326501
C           -3.13456730112056        3.04453602088580        0.03408957456070
C           -4.52635661278335        3.29301564192860       -0.04400937692480
C           -5.42329769200683        2.21459729337578       -0.19512576685393
C           -3.08301608445804       -0.69194963195060       -0.08604721345634
C           -3.56111009998526        0.63757098902354       -0.10269538081116
C           -4.94937029549938        0.88303223154041       -0.21040601686676
C           -5.85306605670245       -0.20179034841371       -0.33888097287682
C           -3.50825375713618       -3.09885787345470       -0.02814382152103
C           -3.99177595868995       -1.77188770358411       -0.13236592117786
C           -5.38258102025366       -1.52941187860952       -0.27837815961624
C           -6.29756071592444       -2.61638085566494       -0.34430802839719
C           -3.93717308462111       -5.49116561929120        0.19680361081414
C           -4.41992893492664       -4.17846674110589        0.00625512964318
C           -5.81684255630054       -3.93925124880221       -0.14847244096361
C           -6.71995683232773       -5.01763284598303       -0.08721229386398
C           -4.37389581651939       -7.87828440152238        0.55178072770110
C           -4.85353035003612       -6.57211731872140        0.30970327298735
C           -6.24746326965918       -6.33471320160864        0.18380880928705
C           -7.15544230943407       -7.40706668688662        0.32298233373213
C           -5.30545864705207       -8.90704876130523        0.72141490958870
C           -6.64998025276200       -8.67696760224433        0.61255507638592
C           -5.61051733717822        9.68307731600556        0.50047498930630
C           -6.15283220734981       10.96405621820433        0.60971480932494
C           -7.52093414228477       11.18642310029392        0.51322195435093
C           -8.38496495139769       10.14194626055637        0.30450109072790
C           -5.99970775492986        7.26737596928015        0.19128829043217
C           -6.49138317177808        8.59412447920357        0.29528061006314
C           -7.89443322874660        8.82597831175250        0.19198710999838
C           -8.75980505086055        7.75010993370967       -0.02341756342739
C           -6.40161618046468        4.86925493825227       -0.08937013587749
C           -6.88773706278371        6.19232413356160       -0.00763945672094
C           -8.29244772403927        6.43914776520298       -0.12901283149308
C           -9.15708409891514        5.36384671130733       -0.35741393691581
C           -6.81113702628740        2.46769555211349       -0.33897482882243
C           -7.29310243035204        3.79074067192303       -0.29057245885108
C           -8.68961915464208        4.05171031353108       -0.44766224954630
C           -9.54898587651651        2.97673300893577       -0.70125849189590
C           -7.23809072831824        0.04992253189501       -0.53562383345023
C           -7.70052729603620        1.38813995451967       -0.54456201655927
C           -9.07730030455954        1.67251676644749       -0.76063609999541
C           -9.93111217988277        0.59167848561293       -1.05020429135066
C           -7.67371338820234       -2.38003922551078       -0.59337919792460
C           -8.12980377524331       -1.03502647157170       -0.73588649774859
C           -9.47173865745958       -0.69373481476641       -1.05407349546454
C           -8.10636397598087       -4.79332385538159       -0.30520182337950
C           -8.56797045079837       -3.49303584416424       -0.62576348537623
C           -9.94663000918804       -3.36846806398643       -0.94800625721544
C          -10.82144173445000       -4.41123694759233       -0.85948353151704
C           -8.56931496316023       -7.18244490372799        0.14658310956558
C           -9.01375680125959       -5.88664655496027       -0.20859638409065
C          -10.39384288227963       -5.68847397303595       -0.45740399592187
C          -11.30487267395082       -6.74257490853827       -0.31616007751387
C           -9.51071532389930       -8.20003728971843        0.29335633888425
C          -10.86165654969201       -7.98321772056864        0.07119990443777
H           12.18695180647817        6.76610815037431       -0.32545852011491
H           11.35013317399941        8.91971388836622        0.59011868943295
H            8.95845081345247        9.21930285281436        0.93276506051423
H           11.23251416875891        1.77187972059636       -1.25502263135242
H           10.80180139992712       -0.62732712065900       -1.32046959863905
H           10.36771585971562       -3.03171898159828       -1.37670979958180
H            9.58014738325464       -8.01999514503694       -0.41841363083878
H            9.26289323813350      -10.26642374802980        0.47558426837594
H            7.13781093665677        9.62248218375617        0.52897689427833
H            4.79471776561090       10.02735532142199        0.67001503583472
H            2.92646028028153       10.32179186991364        1.06301510072082
H           -1.20261403331685       11.01971723118141        0.95894103229525
H           -3.59134876392767       11.48144188913390        0.86979079255653
H           -5.51402080792521       11.81663865723911        0.77203684863871
H           -7.89964143793611       12.19434630753174        0.60212857923890
H           -9.44876042678602       10.31058225911883        0.22460367432465
H           -9.82041310756738        7.93876430493038       -0.10994670198632
H          -10.21509756515269        5.55403937489162       -0.46685334801672
H          -10.60146550607420        3.16554660949461       -0.85463323757850
H          -10.96754363305127        0.78398084278277       -1.28401980369434
H          -11.86092120745276       -4.25322167756550       -1.10554736264557
H          -12.35108914547444       -6.55966919800014       -0.51035893053655
H          -11.55978896274912       -8.79788670404657        0.19600557864001
H            7.74634835968518      -12.02670825863438        1.33118126213010
H            5.37165234825225      -11.59710614981691        1.53826206312777
H            3.46262177298936      -11.30483441450282        1.44337484215388
H            1.11217885526521      -10.90796465053362        1.40860384290576
H           -0.75892625613541      -10.65897713985378        0.98957326401110
H           -3.10160342533248      -10.26337398412975        0.86115898339305
H           -4.98028896172199       -9.90972755649879        0.94322140573939
H           -7.31836641284470       -9.51115438272185        0.74584897416808
H           -9.20362838860788       -9.19013735780167        0.58665028399307
S           11.01387032128300        4.43635893650160       -1.00780938919107
S            9.21655378321864       -5.46677952933440       -1.23324524451372
S          -10.65187791948932       -1.88480636377037       -1.55147960174889
