202
 energy: -385.052758812969 gnorm: 0.081391082283 xtb: 6.7.1pre (5071a88)
C           11.21181200000000        6.99199100000000       -0.25434500000000
C           10.72283800000000        8.22983200000000        0.16584300000000
C            9.36565800000000        8.39434300000000        0.35867900000000
C            8.45600400000000        7.33068600000000        0.15979300000000
C           10.33597500000000        5.92891600000000       -0.44173500000000
C            8.93971600000000        6.03979800000000       -0.20039700000000
C            8.01934200000000        4.90378500000000       -0.27445500000000
C           10.30576900000000        1.95692600000000       -0.85620700000000
C            9.86001000000000        3.24488900000000       -0.75937100000000
C            8.47887200000000        3.56667700000000       -0.49112500000000
C            7.56554800000000        2.46614900000000       -0.41706700000000
C            9.87446000000000       -0.45480300000000       -0.86450900000000
C            9.41660100000000        0.85647200000000       -0.75304200000000
C            8.02581800000000        1.11734000000000       -0.54786300000000
C            7.12291300000000        0.02336800000000       -0.46674000000000
C            9.45406600000000       -2.87017000000000       -0.90802800000000
C            8.99415800000000       -1.53750600000000       -0.77748800000000
C            7.59974900000000       -1.31217600000000       -0.57078000000000
C            6.70819400000000       -2.42622400000000       -0.45971600000000
C            8.59177300000000       -3.93026100000000       -0.82222200000000
C            7.19238600000000       -3.76282000000000       -0.54672900000000
C            6.29999400000000       -4.87591300000000       -0.33008300000000
C            8.62881500000000       -7.84487000000000       -0.14570200000000
C            8.14936600000000       -6.59592300000000       -0.42857700000000
C            6.77273900000000       -6.23276900000000       -0.21826500000000
C            5.88158600000000       -7.27646900000000        0.15675700000000
C            8.26536200000000      -10.16260500000000        0.60111100000000
C            7.76654000000000       -8.88131500000000        0.29743500000000
C            6.37137500000000       -8.60505600000000        0.40692300000000
C            5.48885100000000       -9.65812500000000        0.78215400000000
C            7.39927800000000      -11.16546500000000        1.00473200000000
C            6.02765800000000      -10.91730600000000        1.08831700000000
C            7.02570700000000        7.54806000000000        0.28962300000000
C            6.50159600000000        8.84435000000000        0.47421800000000
C            5.15099600000000        9.06835400000000        0.58104800000000
C            4.22284500000000        8.00883900000000        0.53142200000000
C            6.62662700000000        5.12621700000000       -0.05314500000000
C            6.12681000000000        6.45865100000000        0.18774600000000
C            4.71890000000000        6.69074700000000        0.32513000000000
C            3.80060100000000        5.59324400000000        0.24378500000000
C            6.17138700000000        2.70458800000000       -0.22743300000000
C            5.70152300000000        4.03424900000000       -0.07017100000000
C            4.29054000000000        4.27168600000000        0.07175200000000
C            3.37556200000000        3.17985700000000        0.03943300000000
C            5.72669300000000        0.26681000000000       -0.29860000000000
C            5.25518100000000        1.60087100000000       -0.19491500000000
C            3.85608500000000        1.84207100000000       -0.07823300000000
C            2.94621700000000        0.74935900000000       -0.06594900000000
C            5.30929600000000       -2.17874700000000       -0.28511500000000
C            4.82484200000000       -0.83470800000000       -0.23079900000000
C            3.42867300000000       -0.58911200000000       -0.12809000000000
C            2.51888900000000       -1.68539800000000       -0.06961500000000
C            4.90952700000000       -4.61496400000000       -0.14003000000000
C            4.41178900000000       -3.27017100000000       -0.16604700000000
C            3.00706000000000       -3.01816000000000       -0.06226800000000
C            2.09086400000000       -4.10590600000000        0.06229400000000
C            4.47956900000000       -7.00905700000000        0.27622600000000
C            3.99540500000000       -5.69269000000000        0.09990000000000
C            2.58154300000000       -5.43597400000000        0.17570600000000
C            1.66890800000000       -6.50575400000000        0.36830200000000
C            4.05683500000000       -9.39481900000000        0.81443200000000
C            3.56953600000000       -8.08419400000000        0.56182600000000
C            2.16132800000000       -7.83480900000000        0.57662700000000
C            1.25070000000000       -8.90179500000000        0.80432200000000
C            3.12852100000000      -10.41810100000000        1.07233700000000
C            1.77159900000000      -10.18254000000000        1.06290300000000
C            2.79903000000000        8.25266500000000        0.66399100000000
C            2.26133600000000        9.53484100000000        0.95990700000000
C            0.90669200000000        9.83118400000000        0.98696600000000
C            0.02399300000000        8.74058200000000        0.77746700000000
C            2.39794900000000        5.83411300000000        0.33570300000000
C            1.90181700000000        7.16291900000000        0.52982200000000
C            0.49584000000000        7.40619800000000        0.60243900000000
C           -0.41739900000000        6.31858800000000        0.43553800000000
C            1.97291300000000        3.42072200000000        0.11136900000000
C            1.48556200000000        4.74865400000000        0.24619100000000
C            0.07360500000000        4.99348000000000        0.27858500000000
C           -0.83615800000000        3.90764500000000        0.16496300000000
C            1.54006100000000        0.99448100000000       -0.01615800000000
C            1.05672800000000        2.32621900000000        0.06270700000000
C           -0.34817500000000        2.57093800000000        0.07012400000000
C           -1.25973900000000        1.48437000000000        0.00372800000000
C            1.11169000000000       -1.43677600000000       -0.03388200000000
C            0.62598000000000       -0.09792300000000       -0.02110700000000
C           -0.77584700000000        0.14762800000000       -0.03317900000000
C           -1.69313300000000       -0.94298300000000       -0.05191200000000
C            0.68776400000000       -3.85754500000000        0.08594300000000
C            0.19834200000000       -2.52074800000000        0.01488800000000
C           -1.20855600000000       -2.27402700000000       -0.01348200000000
C           -2.12944600000000       -3.36251700000000        0.02846000000000
C            0.26145300000000       -6.25856100000000        0.36658000000000
C           -0.22869300000000       -4.93965000000000        0.20442200000000
C           -1.64348000000000       -4.69260500000000        0.16085300000000
C           -2.56140600000000       -5.76701200000000        0.26749000000000
C           -0.17799900000000       -8.65686600000000        0.75510400000000
C           -0.66212500000000       -7.34201100000000        0.53273200000000
C           -2.07112000000000       -7.09824700000000        0.47176100000000
C           -2.98417900000000       -8.17386500000000        0.61947100000000
C           -1.11393700000000       -9.69814000000000        0.91057300000000
C           -2.46804000000000       -9.46537300000000        0.84327000000000
C           -1.41144200000000        8.97076100000000        0.72574500000000
C           -1.93302100000000       10.26984600000000        0.88162800000000
C           -3.28583200000000       10.52481600000000        0.78904200000000
C           -4.21772900000000        9.49040100000000        0.56907900000000
C           -1.82308800000000        6.56297500000000        0.40475300000000
C           -2.31954400000000        7.90088500000000        0.52549700000000
C           -3.72540200000000        8.15859100000000        0.45284100000000
C           -4.62847300000000        7.06592400000000        0.26305900000000
C           -2.23822400000000        4.15335500000000        0.13881600000000
C           -2.72630300000000        5.48525500000000        0.23777500000000
C           -4.13506900000000        5.73763300000000        0.17062500000000
C           -5.03673600000000        4.65085200000000        0.00127100000000
C           -2.66553100000000        1.73156900000000       -0.04342800000000
C           -3.14794900000000        3.06462300000000        0.01177800000000
C           -4.55018300000000        3.31357900000000       -0.06388000000000
C           -5.45446700000000        2.23046000000000       -0.21272700000000
C           -3.10019300000000       -0.69701400000000       -0.12396800000000
C           -3.58020000000000        0.64285500000000       -0.13242600000000
C           -4.97852800000000        0.89123900000000       -0.23428800000000
C           -5.89178800000000       -0.19860800000000       -0.35596400000000
C           -3.53176400000000       -3.11840500000000       -0.06218800000000
C           -4.01687900000000       -1.78132300000000       -0.16268600000000
C           -5.42044000000000       -1.53451400000000       -0.30304500000000
C           -6.34640600000000       -2.62637200000000       -0.36444600000000
C           -3.96698100000000       -5.52294100000000        0.17394200000000
C           -4.45144400000000       -4.20289800000000       -0.01800200000000
C           -5.86284900000000       -3.96081600000000       -0.16824000000000
C           -6.77297500000000       -5.04264000000000       -0.10056700000000
C           -4.41024800000000       -7.92745000000000        0.52726600000000
C           -4.89098900000000       -6.61168800000000        0.28737700000000
C           -6.29643700000000       -6.37284900000000        0.16032700000000
C           -7.20985500000000       -7.45507200000000        0.28638600000000
C           -5.34677400000000       -8.96831900000000        0.66000000000000
C           -6.69927600000000       -8.73828800000000        0.54460800000000
C           -5.65319300000000        9.73825600000000        0.46988200000000
C           -6.20895700000000       11.02400900000000        0.56041400000000
C           -7.58988100000000       11.25223800000000        0.45838300000000
C           -8.45856000000000       10.19779700000000        0.26491500000000
C           -6.03541800000000        7.30941400000000        0.17428400000000
C           -6.53837600000000        8.63988700000000        0.26986100000000
C           -7.95499400000000        8.87419900000000        0.16711000000000
C           -8.82147400000000        7.78902400000000       -0.03360300000000
C           -6.43722200000000        4.89965000000000       -0.09584300000000
C           -6.92598100000000        6.22788900000000       -0.01637700000000
C           -8.34148100000000        6.47284800000000       -0.12723500000000
C           -9.21853000000000        5.39246600000000       -0.33159300000000
C           -6.85426100000000        2.48623700000000       -0.33688400000000
C           -7.33693500000000        3.81763900000000       -0.28286000000000
C           -8.74836400000000        4.07442400000000       -0.41441800000000
C           -9.62564100000000        2.99320300000000       -0.63325900000000
C           -7.29039700000000        0.05665000000000       -0.53227300000000
C           -7.75767000000000        1.40627500000000       -0.52668900000000
C           -9.15494500000000        1.68462200000000       -0.70030200000000
C          -10.03101300000000        0.59740300000000       -0.95758400000000
C           -7.73752600000000       -2.38563200000000       -0.60033100000000
C           -8.19600300000000       -1.02767400000000       -0.72658400000000
C           -9.56743400000000       -0.68819600000000       -1.00899100000000
C           -8.17443900000000       -4.81415700000000       -0.30138700000000
C           -8.64358500000000       -3.50880000000000       -0.61753600000000
C          -10.04498000000000       -3.37000600000000       -0.90607200000000
C          -10.92667900000000       -4.40759400000000       -0.77486500000000
C           -8.63901000000000       -7.22528600000000        0.13183700000000
C           -9.09225400000000       -5.91550500000000       -0.19495600000000
C          -10.48739600000000       -5.70282000000000       -0.40253700000000
C          -11.40224700000000       -6.76367100000000       -0.25490500000000
C           -9.58368400000000       -8.25255100000000        0.27883900000000
C          -10.94888600000000       -8.02489600000000        0.09201600000000
H           12.27411600000000        6.85166600000000       -0.43178500000000
H           11.40548000000000        9.05722900000000        0.33394700000000
H            9.00644000000000        9.36193800000000        0.68234300000000
H           11.35898400000000        1.75746000000000       -1.03423100000000
H           10.93259900000000       -0.63967400000000       -1.02916200000000
H           10.51073800000000       -3.04221900000000       -1.09292400000000
H            9.68409300000000       -8.06519300000000       -0.28161300000000
H            9.33201300000000      -10.34953800000000        0.51400700000000
H            7.16003300000000        9.70243200000000        0.50393000000000
H            4.80591900000000       10.08845200000000        0.69006500000000
H            2.96894500000000       10.32857700000000        1.20034200000000
H           -1.21737000000000       11.06290100000000        1.07373700000000
H           -3.62373400000000       11.54850800000000        0.90376100000000
H           -5.56568000000000       11.88236400000000        0.71303800000000
H           -7.96763200000000       12.26684800000000        0.53438200000000
H           -9.52891300000000       10.36273800000000        0.18614700000000
H           -9.88932600000000        7.97150900000000       -0.11865300000000
H          -10.28379100000000        5.58443600000000       -0.42652500000000
H          -10.68740900000000        3.18730000000000       -0.75576200000000
H          -11.08183800000000        0.80496900000000       -1.13689300000000
H          -11.98352100000000       -4.25026300000000       -0.97166000000000
H          -12.46000200000000       -6.57623400000000       -0.41640300000000
H          -11.65019900000000       -8.84494600000000        0.21449900000000
H            7.78080000000000      -12.15232400000000        1.25005800000000
H            5.38101900000000      -11.72765600000000        1.40147000000000
H            3.46761800000000      -11.42780900000000        1.26722200000000
H            1.11020400000000      -11.01649000000000        1.26018900000000
H           -0.78230200000000      -10.71517000000000        1.07638400000000
H           -3.13337100000000      -10.31076300000000        0.96263600000000
H           -5.01985400000000       -9.98226500000000        0.85135800000000
H           -7.36803600000000       -9.58347800000000        0.64618700000000
H           -9.26709900000000       -9.25343100000000        0.54437400000000
S           11.06970300000000        4.47507600000000       -1.10935000000000
S            9.28476600000000       -5.50136300000000       -1.21280700000000
S          -10.71237900000000       -1.89005300000000       -1.59011900000000
202
 energy: -385.072188329780 gnorm: 0.043807591935 xtb: 6.7.1pre (5071a88)
C           11.18724561610705        6.98187869288714       -0.25510712259728
C           10.70588635155491        8.21120533916149        0.16813339691850
C            9.35371490060725        8.37351658593162        0.35721006176640
C            8.44286924544856        7.31737960286957        0.15887731650596
C           10.31035025244690        5.92524801450442       -0.44154274051320
C            8.92113647351719        6.02973598651630       -0.19891005296558
C            8.00505584276983        4.89923384415699       -0.26997604594246
C           10.27971656265423        1.95715210022491       -0.85512600472652
C            9.83207952817239        3.24196495518990       -0.75959154834576
C            8.46158134184619        3.56542836056289       -0.48655946785465
C            7.55342239066302        2.46507908245095       -0.41396475517131
C            9.85313900060255       -0.45204908022136       -0.85885242355560
C            9.39701664258402        0.85720743152695       -0.74659851611460
C            8.01080684528546        1.11890348962081       -0.54369802307830
C            7.11090868624254        0.02488407904889       -0.46575288668557
C            9.42938479028314       -2.86324934598606       -0.90649756021847
C            8.97544871858779       -1.53327947875447       -0.77062720233362
C            7.58470377870621       -1.30961540210619       -0.56617401296295
C            6.69631491135703       -2.42214608578456       -0.45638154258230
C            8.56661030635877       -3.91992470852239       -0.82151604961388
C            7.17574695435337       -3.75800313811835       -0.54077272876450
C            6.28832011488889       -4.86879609155250       -0.32317395328212
C            8.60495191365396       -7.83644661289859       -0.14673580446110
C            8.12372070233253       -6.59050691653344       -0.42849194749398
C            6.75778799829187       -6.22218295399980       -0.21371559805259
C            5.87126878626297       -7.26621878058785        0.15861437348008
C            8.24747388052343      -10.14580781517111        0.60006466538963
C            7.74914461299898       -8.86809565893894        0.30057314284441
C            6.35951331151129       -8.59025133159411        0.40684979073077
C            5.48121731272834       -9.64178288359171        0.77749872601811
C            7.38712669639923      -11.14320385598797        1.00047785601730
C            6.02265115940807      -10.89527899076463        1.08227444283073
C            7.01704272474448        7.53396959292295        0.28744542016778
C            6.49348888969233        8.82537928850182        0.46883978986486
C            5.14796450592381        9.04916626193986        0.57825906658697
C            4.22079715692777        7.99528050870512        0.53428768203065
C            6.61583425033610        5.12075844452926       -0.05112301401614
C            6.11762779499867        6.44874274004200        0.18644323873963
C            4.71360545069179        6.68079244845259        0.32444543698132
C            3.79606393618626        5.58714347774993        0.24360673632185
C            6.16219316572144        2.70294883943061       -0.22559094778450
C            5.69327259975275        4.03132237068033       -0.07006797966570
C            4.28597190082317        4.26756128973802        0.07212811132137
C            3.37157135724565        3.17798703098321        0.03766155992326
C            5.71797223614325        0.26774293240171       -0.29660789058681
C            5.24831505539434        1.60123833007945       -0.19575235800849
C            3.85154677549485        1.84162949282797       -0.07597974539796
C            2.94250262283841        0.74975090212592       -0.06873001767589
C            5.30115404038056       -2.17525700631343       -0.28272386708222
C            4.81840673326188       -0.83312290602700       -0.23144403766821
C            3.42407304122926       -0.58769200557716       -0.12539881025506
C            2.51550347653863       -1.68294497552757       -0.07141350281208
C            4.90113483888267       -4.60826178656147       -0.13579742568383
C            4.40503881231789       -3.26645591237108       -0.16529226191258
C            3.00321419682527       -3.01465995307289       -0.06052241259539
C            2.08827747339595       -4.10076293238809        0.06174621152146
C            4.47310989786258       -6.99944852298290        0.27500354862664
C            3.98932996874729       -5.68434887387896        0.09966681668031
C            2.57915571633215       -5.42875838251965        0.17506127148211
C            1.66744252350209       -6.49714291792071        0.36679913966085
C            4.05404048668981       -9.37789283034322        0.80993447046115
C            3.56579657983000       -8.07124869900398        0.55892914798089
C            2.16069935066336       -7.82234678981078        0.57341889935488
C            1.25064879583482       -8.88544259901663        0.79997964646464
C            3.12682549393189      -10.39601984677256        1.06635645823289
C            1.77431313174882      -10.16104688764319        1.05698095113763
C            2.80130475210578        8.23219795125200        0.66809728153092
C            2.26580611414293        9.50847151300140        0.96186595258156
C            0.92221190755134        9.74679696661069        0.97741908079901
C            0.00714224570762        8.70998183776330        0.76673482028590
C            2.39596106683049        5.82575010214023        0.33475823792863
C            1.89926753053835        7.15149463310834        0.52736091988289
C            0.49428287145296        7.38911003791173        0.58801808895836
C           -0.42203665309062        6.30968763950365        0.42721440991511
C            1.97053938458535        3.41784470371455        0.11313193565855
C            1.48263202157252        4.74438009082787        0.24400936503937
C            0.07299130464150        4.98841059535710        0.27841449745677
C           -0.83634672982773        3.90423972332261        0.16347196542953
C            1.53853136184683        0.99428468340866       -0.01306397603061
C            1.05527991540161        2.32535183431921        0.05972969647185
C           -0.34794615311884        2.56943441174698        0.07265570161087
C           -1.25892644983481        1.48367347123394        0.00121200265176
C            1.11070960256842       -1.43451386251351       -0.03081800477593
C            0.62535890620935       -0.09717888478304       -0.02389565520473
C           -0.77536611124166        0.14784823389681       -0.02970666199693
C           -1.69172689223111       -0.94166152123522       -0.05416900190643
C            0.68684930722103       -3.85266386322891        0.08749126318060
C            0.19764093161590       -2.51802849141349        0.01302136226747
C           -1.20729978470778       -2.27170851340357       -0.01055714074000
C           -2.12709390887973       -3.35888044973571        0.02704590106228
C            0.26202679303523       -6.25037366660284        0.36520554329284
C           -0.22904887956568       -4.93328604340446        0.20285444013230
C           -1.64106661066977       -4.68665613492508        0.16153786202466
C           -2.55904382214789       -5.75950969485139        0.26577324301415
C           -0.17522779603543       -8.64059006165856        0.75159083735579
C           -0.66109117870226       -7.32967207437634        0.53010836066723
C           -2.06755904511399       -7.08639049715984        0.46961042832385
C           -2.98079517104786       -8.15792368188037        0.61636374346216
C           -1.11169486264534       -9.67571557643657        0.90587309612620
C           -2.46166580043686       -9.44376517009588        0.83872745976691
C           -1.41813960057578        8.95196481833610        0.72577109433167
C           -1.93398702578014       10.24898894058838        0.87766281938381
C           -3.28210591287137       10.50301784965682        0.79108819375006
C           -4.21453718561618        9.47501196529515        0.57008434789228
C           -1.82471428449871        6.55417844671256        0.40045004865891
C           -2.32353361742517        7.88722869701116        0.52467613498031
C           -3.72450029323069        8.14676542580948        0.45276225832289
C           -4.62494551935200        7.05664416726800        0.26339358186328
C           -2.23709859710265        4.14870435941352        0.13885941311837
C           -2.72689994024639        5.47790144035556        0.23641253832630
C           -4.13248100131016        5.73115122315043        0.16937450252341
C           -5.03164591604302        4.64524018540352        0.00199636950272
C           -2.66312094023032        1.72959828568843       -0.04172699396457
C           -3.14543204792295        3.06100968138144        0.01104950688440
C           -4.54531696808544        3.31022687870913       -0.06432577396157
C           -5.44778643260996        2.22714678670930       -0.21185950973997
C           -3.09688967588654       -0.69645822211819       -0.12118663690825
C           -3.57616823977004        0.64156954201161       -0.13322142592990
C           -4.97264992934988        0.88906960520271       -0.23310208977662
C           -5.88375778618901       -0.20039249143035       -0.35422241929117
C           -3.52774083670544       -3.11508135277030       -0.06012747365247
C           -4.01238938281976       -1.78027128324513       -0.16315440786253
C           -5.41330072145810       -1.53498823202894       -0.30104273133674
C           -6.33675761348846       -2.62551720864645       -0.36023747411258
C           -3.96252255046970       -5.51611490687577        0.17355453270687
C           -4.44680242944365       -4.19802862669533       -0.01871135711386
C           -5.85452288446951       -3.95671025587717       -0.16712684730801
C           -6.76342798987304       -5.03727350982025       -0.10045092861959
C           -4.40424377587091       -7.91281302575792        0.52423162768266
C           -4.88597453045223       -6.60117017175640        0.28531052838416
C           -6.28818018585741       -6.36315180312361        0.15889315196035
C           -7.20100645761742       -7.44091573446535        0.28369365347490
C           -5.34132866778722       -8.94816543407172        0.65566947837590
C           -6.68944675526480       -8.71901468288461        0.54047067635427
C           -5.64509496736409        9.72710238147787        0.46962265840572
C           -6.19950683383174       11.00875599758798        0.55938844163339
C           -7.57241313195326       11.23250024057918        0.45831469862564
C           -8.43614520255385       10.18280312112892        0.26516436062366
C           -6.02717606084590        7.30252291024379        0.17380380508921
C           -6.52684171388432        8.63160090383255        0.27001255574670
C           -7.93681914705608        8.86361346292889        0.16685205016831
C           -8.80102915355207        7.78075594378795       -0.03304474995151
C           -6.42905712238518        4.89378841681982       -0.09634823430525
C           -6.91634212399799        6.22148546966299       -0.01596144903670
C           -8.32687081886847        6.46654115683989       -0.12677612073721
C           -9.19821215798408        5.38612894243964       -0.33036433193333
C           -6.84476472294369        2.48150334081368       -0.33676494250868
C           -7.32606390574217        3.81110782599050       -0.28210242674767
C           -8.73137050783651        4.06951299434298       -0.41275928668001
C           -9.60278565824883        2.98855508545237       -0.62914640643857
C           -7.27883406448474        0.05367942686341       -0.52852859301163
C           -7.74378398385329        1.39994389904864       -0.52256895724009
C           -9.13429227935000        1.68077995651044       -0.69303953524299
C          -10.00305004737051        0.59498220878752       -0.95573087804081
C           -7.72351024076157       -2.38592770563354       -0.59340644655614
C           -8.17859996915145       -1.03154152581489       -0.72116509669376
C           -9.53828968979544       -0.68808722396347       -1.00733800194992
C           -8.16050614134542       -4.80979532880370       -0.29885625985453
C           -8.62519354210732       -3.50573594210325       -0.61161819324866
C          -10.01852130945998       -3.37428389955638       -0.90426758119586
C          -10.90133591407271       -4.40755626931871       -0.77335406441184
C           -8.62598088976661       -7.21325485390634        0.12957260932591
C           -9.07607193010935       -5.90663165602143       -0.19291694725975
C          -10.46689098174150       -5.69711008562288       -0.39715510919607
C          -11.37979114892995       -6.75417328182654       -0.25308837256131
C           -9.57144625612764       -8.23413244876652        0.27549329352834
C          -10.92979132235998       -8.00844569442016        0.09066213222851
H           12.24448066985493        6.84030991168127       -0.43839494372285
H           11.38809702995392        9.03559235279032        0.33200911588724
H            9.00142761266845        9.34129685012774        0.67701312311191
H           11.33018594889746        1.76497327946992       -1.03729567618342
H           10.90784535229548       -0.63622292164751       -1.02387614380226
H           10.48094760742765       -3.04036659444397       -1.09652207126661
H            9.65646042432671       -8.05450710595271       -0.28884335517084
H            9.31008710796440      -10.33473389504347        0.51321042111815
H            7.14894619611268        9.68226739978488        0.50186371457917
H            4.80852285925030       10.06841590483153        0.68838243369065
H            2.94945867962411       10.32176721807252        1.18394562763458
H           -1.22619630095685       11.04849900622924        1.06181323411247
H           -3.61669109360337       11.52498012061246        0.90230413771375