      -----------------------------------------------------------      
     |                   =====================                   |     
     |                           x T B                           |     
     |                   =====================                   |     
     |                         S. Grimme                         |     
     |          Mulliken Center for Theoretical Chemistry        |     
     |                    University of Bonn                     |     
      -----------------------------------------------------------      

   * xtb version 6.7.1pre (5071a88) compiled by 'Marcel@Raven' on 2024-07-23

   xtb is free software: you can redistribute it and/or modify it under
   the terms of the GNU Lesser General Public License as published by
   the Free Software Foundation, either version 3 of the License, or
   (at your option) any later version.
   
   xtb is distributed in the hope that it will be useful,
   but WITHOUT ANY WARRANTY; without even the implied warranty of
   MERCHANTABILITY or FITNESS FOR A PARTICULAR PURPOSE.  See the
   GNU Lesser General Public License for more details.
   
   Cite this work as:
   * C. Bannwarth, E. Caldeweyher, S. Ehlert, A. Hansen, P. Pracht,
     J. Seibert, S. Spicher, S. Grimme, WIREs Comput. Mol. Sci., 2020, 11,
     e01493. DOI: 10.1002/wcms.1493
   
   for GFN2-xTB:
   * C. Bannwarth, S. Ehlert and S. Grimme., J. Chem. Theory Comput., 2019,
     15, 1652-1671. DOI: 10.1021/acs.jctc.8b01176
   for GFN1-xTB:
   * S. Grimme, C. Bannwarth, P. Shushkov, J. Chem. Theory Comput., 2017,
     13, 1989-2009. DOI: 10.1021/acs.jctc.7b00118
   for GFN0-xTB:
   * P. Pracht, E. Caldeweyher, S. Ehlert, S. Grimme, ChemRxiv, 2019, preprint.
     DOI: 10.26434/chemrxiv.8326202.v1
   for GFN-FF:
   * S. Spicher and S. Grimme, Angew. Chem. Int. Ed., 2020, 59, 15665-15673.
     DOI: 10.1002/anie.202004239
   
   for ALPB and GBSA implicit solvation:
   * S. Ehlert, M. Stahn, S. Spicher, S. Grimme, J. Chem. Theory Comput.,
     2021, 17, 4250-4261. DOI: 10.1021/acs.jctc.1c00471
   
   for ddCOSMO and CPCM-X implicit solvation:
   * M. Stahn, S. Ehlert, S. Grimme, J. Phys. Chem. A,
     2023, XX, XXXX-XXXX. DOI: 10.1021/acs.jpca.3c04382
   
   for DFT-D4:
   * E. Caldeweyher, C. Bannwarth and S. Grimme, J. Chem. Phys., 2017,
     147, 034112. DOI: 10.1063/1.4993215
   * E. Caldeweyher, S. Ehlert, A. Hansen, H. Neugebauer, S. Spicher,
     C. Bannwarth and S. Grimme, J. Chem. Phys., 2019, 150, 154122.
     DOI: 10.1063/1.5090222
   * E. Caldeweyher, J.-M. Mewes, S. Ehlert and S. Grimme, Phys. Chem. Chem. Phys.
     2020, 22, 8499-8512. DOI: 10.1039/D0CP00502A
   
   for sTDA-xTB:
   * S. Grimme and C. Bannwarth, J. Chem. Phys., 2016, 145, 054103.
     DOI: 10.1063/1.4959605
   
   in the mass-spec context:
   * V. Asgeirsson, C. Bauer and S. Grimme, Chem. Sci., 2017, 8, 4879.
     DOI: 10.1039/c7sc00601b
   * J. Koopman and S. Grimme, ACS Omega 2019, 4, 12, 15120-15133.
     DOI: 10.1021/acsomega.9b02011
   
   for metadynamics refer to:
   * S. Grimme, J. Chem. Theory Comput., 2019, 155, 2847-2862
     DOI: 10.1021/acs.jctc.9b00143
   
   for SPH calculations refer to:
   * S. Spicher and S. Grimme, J. Chem. Theory Comput., 2021, 17, 1701-1714
     DOI: 10.1021/acs.jctc.0c01306
   
   for ONIOM refer to:
   * C. Plett, A. Katbashev, S. Ehlert, S. Grimme, M. Bursch,
     Phys. Chem. Chem. Phys., 2023, 25, 17860-17868. DOI: 10.1039/D3CP02178E
   
   for DIPRO refer to:
   * J. Kohn, N. Gildemeister, S. Grimme, D. Fazzi, A. Hansen,
     J. Chem. Phys., 2023, just accepted.
   
   for PTB refer to:
   * S. Grimme, M. Mueller, A. Hansen, J. Chem. Phys., 2023, 158, 124111.
     DOI: 10.1063/5.0137838
   
   with help from (in alphabetical order)
   P. Atkinson, C. Bannwarth, F. Bohle, G. Brandenburg, E. Caldeweyher
   M. Checinski, S. Dohm, S. Ehlert, S. Ehrlich, I. Gerasimov, C. Hölzer
   A. Katbashev, J. Kohn, J. Koopman, C. Lavigne, S. Lehtola, F. März, M. Müller,
   F. Musil, H. Neugebauer, J. Pisarek, C. Plett, P. Pracht, F. Pultar,
   J. Seibert, P. Shushkov, S. Spicher, M. Stahn, M. Steiner, T. Strunk,
   J. Stückrath, T. Rose, and J. Unsleber
   
 * started run on 2025/12/08 at 00:30:34.350     
   ID    Z sym.   atoms
    1    6 C      1-3, 5-18, 20-38, 40-49, 51-67, 69-73, 75-100
    2    7 N      4, 19, 39, 50, 68, 74, 127, 128, 131, 132
    3    1 H      101-126, 129, 130

           -------------------------------------------------
          |                Calculation Setup                |
           -------------------------------------------------

          program call               : xtb "C:\Users\LENOVO GAMING\Documents\GitHub\molecular-conductivity-sim\dataset\1.5nm-10Ndoped-7percent.xyz" --opt --parallel 4
          coordinate file            : C:\Users\LENOVO GAMING\Documents\GitHub\molecular-conductivity-sim\dataset\1.5nm-10Ndoped-7percent.xyz
          omp threads                :                     4


           -------------------------------------------------
          |                 G F N 2 - x T B                 |
           -------------------------------------------------

        Reference                      10.1021/acs.jctc.8b01176
      * Hamiltonian:
        H0-scaling (s, p, d)           1.850000    2.230000    2.230000
        zeta-weighting                 0.500000
      * Dispersion:
        s8                             2.700000
        a1                             0.520000
        a2                             5.000000
        s9                             5.000000
      * Repulsion:
        kExp                           1.500000    1.000000
        rExp                           1.000000
      * Coulomb:
        alpha                          2.000000
        third order                    shell-resolved
        anisotropic                    true
        a3                             3.000000
        a5                             4.000000
        cn-shift                       1.200000
        cn-exp                         4.000000
        max-rad                        5.000000


          ...................................................
          :                      SETUP                      :
          :.................................................:
          :  # basis functions                 444          :
          :  # atomic orbitals                 444          :
          :  # shells                          236          :
          :  # electrons                       454          :
          :  max. iterations                   250          :
          :  Hamiltonian                  GFN2-xTB          :
          :  restarted?                      false          :
          :  GBSA solvation                  false          :
          :  PC potential                    false          :
          :  electronic temp.          300.0000000     K    :
          :  accuracy                    1.0000000          :
          :  -> integral cutoff          0.2500000E+02      :
          :  -> integral neglect         0.1000000E-07      :
          :  -> SCF convergence          0.1000000E-05 Eh   :
          :  -> wf. convergence          0.1000000E-03 e    :
          :  Broyden damping             0.4000000          :
          :  net charge                          0          :
          :  unpaired electrons                  0          :
          ...................................................

 iter      E             dE          RMSdq      gap      omega  full diag
   1   -249.1054053 -0.249105E+03  0.438E+00    0.22       0.0  T
   2   -248.9822007  0.123205E+00  0.361E+00    0.37       1.0  T
   3   -249.3353475 -0.353147E+00  0.231E+00    0.40       1.0  T
   4   -248.7557559  0.579592E+00  0.175E+00    0.17       1.0  T
   5   -248.3077874  0.447969E+00  0.183E+00    0.18       1.0  T
   6   -249.5953483 -0.128756E+01  0.849E-01    0.18       1.0  T
   7   -249.7357877 -0.140439E+00  0.614E-01    0.46       1.0  T
   8   -249.7882923 -0.525046E-01  0.479E-01    0.33       1.0  T
   9   -249.8016054 -0.133131E-01  0.415E-01    0.28       1.0  T
  10   -249.8450543 -0.434489E-01  0.160E-01    0.09       1.0  T
  11   -249.8467392 -0.168498E-02  0.108E-01    0.09       1.0  T
  12   -249.8420336  0.470561E-02  0.148E-01    0.06       1.0  T
  13   -249.8383433  0.369034E-02  0.190E-01    0.13       1.0  T
  14   -249.8434754 -0.513210E-02  0.144E-01    0.05       1.0  T
  15   -249.8488560 -0.538058E-02  0.226E-02    0.08       1.0  T
  16   -249.8489075 -0.514876E-04  0.138E-02    0.08       1.0  T
  17   -249.8489272 -0.197450E-04  0.107E-02    0.08       1.0  T
  18   -249.8489488 -0.215827E-04  0.687E-03    0.08       1.3  T
  19   -249.8489456  0.322172E-05  0.741E-03    0.08       1.2  T
  20   -249.8489589 -0.133697E-04  0.318E-03    0.07       2.7  T
  21   -249.8489616 -0.263311E-05  0.101E-03    0.07       8.6  T
  22   -249.8489619 -0.298578E-06  0.199E-04    0.07      43.7  T
  23   -249.8489619 -0.450368E-08  0.951E-05    0.07      91.5  T

   *** convergence criteria satisfied after 23 iterations ***

         #    Occupation            Energy/Eh            Energy/eV
      -------------------------------------------------------------
         1        2.0000           -0.6803185             -18.5124
       ...           ...                  ...                  ...
       221        2.0000           -0.3433269              -9.3424
       222        2.0000           -0.3397812              -9.2459
       223        2.0000           -0.3268164              -8.8931
       224        2.0000           -0.3209008              -8.7322
       225        2.0000           -0.2934657              -7.9856
       226        2.0000           -0.2802949              -7.6272
       227        1.6123           -0.2707608              -7.3678 (HOMO)
       228        0.3877           -0.2680528              -7.2941 (LUMO)
       229        0.0000           -0.2577811              -7.0146
       230        0.0000           -0.2562937              -6.9741
       231                         -0.2523358              -6.8664
       232                         -0.2453278              -6.6757
       ...                                ...                  ...
       444                          0.7738990              21.0589
      -------------------------------------------------------------
                  HL-Gap            0.0027080 Eh            0.0737 eV
             Fermi-level           -0.2694068 Eh           -7.3309 eV

 SCC (total)                   0 d,  0 h,  0 min,  1.252 sec
 SCC setup                      ...        0 min,  0.001 sec (  0.080%)
 Dispersion                     ...        0 min,  0.005 sec (  0.399%)
 classical contributions        ...        0 min,  0.002 sec (  0.160%)
 integral evaluation            ...        0 min,  0.035 sec (  2.796%)
 iterations                     ...        0 min,  1.059 sec ( 84.585%)
 molecular gradient             ...        0 min,  0.146 sec ( 11.661%)
 printout                       ...        0 min,  0.004 sec (  0.320%)

         :::::::::::::::::::::::::::::::::::::::::::::::::::::
         ::                     SUMMARY                     ::
         :::::::::::::::::::::::::::::::::::::::::::::::::::::
         :: total energy            -245.586525908398 Eh    ::
         :: gradient norm              0.078606325718 Eh/a0 ::
         :: HOMO-LUMO gap              0.073687434138 eV    ::
         ::.................................................::
         :: SCC energy              -249.856869741692 Eh    ::
         :: -> isotropic ES            0.037332790143 Eh    ::
         :: -> anisotropic ES          0.030471178891 Eh    ::
         :: -> anisotropic XC          0.077649119579 Eh    ::
         :: -> dispersion             -0.284386636613 Eh    ::
         :: repulsion energy           4.270343833294 Eh    ::
         :: add. restraining           0.000000000000 Eh    ::
         :: total charge              -0.000000000000 e     ::
         :::::::::::::::::::::::::::::::::::::::::::::::::::::

      ----------------------------------------------------------- 
     |                   =====================                   |
     |                        A N C O P T                        |
     |                   =====================                   |
     |               Approximate Normal Coordinate               |
     |                Rational Function Optimizer                |
      ----------------------------------------------------------- 
      ----------------------------------------------------------- 
     |                   =====================                   |
     |                        A N C O P T                        |
     |                   =====================                   |
     |               Approximate Normal Coordinate               |
     |                Rational Function Optimizer                |
      ----------------------------------------------------------- 

          ...................................................
          :                      SETUP                      :
          :.................................................:
          :   optimization level            normal          :
          :   max. optcycles                   396          :
          :   ANC micro-cycles                  20          :
          :   degrees of freedom               390          :
          :.................................................:
          :   RF solver                   davidson          :
          :   write xtbopt.log                true          :
          :   linear?                        false          :
          :   energy convergence         0.5000000E-05 Eh   :
          :   grad. convergence          0.1000000E-02 Eh/α :
          :   maxmium RF displ.          1.0000000          :
          :   Hlow (freq-cutoff)         0.1000000E-01      :
          :   Hmax (freq-cutoff)         5.0000000          :
          :   S6 in model hess.         20.0000000          :
          ...................................................

generating ANC from exact Hessian ...
Using Lindh-Hessian (1995)
 Shifting diagonal of input Hessian by   9.877246024126722E-003
 Lowest  eigenvalues of input Hessian
    0.000000    0.000000    0.000000    0.000000    0.000000    0.000000
    0.010000    0.010145    0.010220    0.010440    0.010518    0.011381
    0.011481    0.011630    0.011900    0.012429    0.013119    0.013428
 Highest eigenvalues
    2.172993    2.190367    2.192379    2.214748    2.217964    2.242631
 

........................................................................
.............................. CYCLE    1 ..............................
........................................................................

 iter      E             dE          RMSdq      gap      omega  full diag
   1   -249.8489619 -0.249849E+03  0.913E-05    0.07       0.0  T
   2   -249.8489616  0.273966E-06  0.914E-04    0.07       9.5  T
   3   -249.8489619 -0.272405E-06  0.100E-04    0.07      86.7  T
     SCC iter.                  ...        0 min,  0.143 sec
     gradient                   ...        0 min,  0.140 sec
 * total energy  :  -245.5865259 Eh     change        0.9366374E-09 Eh
   gradient norm :     0.0786208 Eh/α   predicted     0.0000000E+00 (-100.00%)
   displ. norm   :     0.4953335 α      lambda       -0.1706279E-01
   maximum displ.:     0.4478576 α      in ANC's #42, #70, #61, ...

........................................................................
.............................. CYCLE    2 ..............................
........................................................................

 iter      E             dE          RMSdq      gap      omega  full diag
   1   -249.9534458 -0.249953E+03  0.290E-01    0.05       0.0  T
   2   -249.8330261  0.120420E+00  0.624E-01    0.45       1.0  T
   3   -249.9553633 -0.122337E+00  0.305E-01    0.17       1.0  T
   4   -249.9580750 -0.271172E-02  0.236E-01    0.14       1.0  T
   5   -249.9737923 -0.157173E-01  0.862E-02    0.06       1.0  T
   6   -249.9702877  0.350466E-02  0.135E-01    0.06       1.0  T
   7   -249.9751127 -0.482508E-02  0.512E-02    0.08       1.0  T
   8   -249.9756530 -0.540240E-03  0.307E-02    0.08       1.0  T
   9   -249.9758898 -0.236818E-03  0.136E-02    0.07       1.0  T
  10   -249.9759330 -0.432118E-04  0.756E-03    0.08       1.2  T
  11   -249.9759486 -0.156310E-04  0.241E-03    0.07       3.6  T
  12   -249.9759499 -0.124254E-05  0.910E-04    0.07       9.6  T
  13   -249.9759500 -0.789245E-07  0.674E-04    0.07      12.9  T
  14   -249.9759501 -0.127337E-06  0.112E-04    0.07      77.6  T
     SCC iter.                  ...        0 min,  0.636 sec
     gradient                   ...        0 min,  0.149 sec
 * total energy  :  -245.5999150 Eh     change       -0.1338913E-01 Eh
   gradient norm :     0.0465370 Eh/α   predicted    -0.1063212E-01 ( -20.59%)
   displ. norm   :     0.5238920 α      lambda       -0.1032356E-01
   maximum displ.:     0.4873721 α      in ANC's #42, #21, #61, ...

........................................................................
.............................. CYCLE    3 ..............................
........................................................................

 iter      E             dE          RMSdq      gap      omega  full diag
   1   -250.0657240 -0.250066E+03  0.306E-01    0.07       0.0  T
   2   -249.9248986  0.140825E+00  0.669E-01    0.44       1.0  T
   3   -250.0671214 -0.142223E+00  0.322E-01    0.17       1.0  T
   4   -250.0703884 -0.326706E-02  0.252E-01    0.14       1.0  T
   5   -250.0886876 -0.182992E-01  0.831E-02    0.07       1.0  T
   6   -250.0817787  0.690894E-02  0.169E-01    0.07       1.0  T
   7   -250.0898699 -0.809121E-02  0.511E-02    0.08       1.0  T
   8   -250.0904213 -0.551361E-03  0.292E-02    0.08       1.0  T
   9   -250.0906344 -0.213136E-03  0.114E-02    0.08       1.0  T
  10   -250.0906653 -0.308685E-04  0.653E-03    0.08       1.3  T
  11   -250.0906768 -0.115796E-04  0.162E-03    0.08       5.4  T
  12   -250.0906772 -0.356487E-06  0.861E-04    0.08      10.1  T
  13   -250.0906773 -0.880940E-07  0.552E-04    0.08      15.8  T
     SCC iter.                  ...        0 min,  0.593 sec
     gradient                   ...        0 min,  0.140 sec
 * total energy  :  -245.6065216 Eh     change       -0.6606558E-02 Eh
   gradient norm :     0.0134275 Eh/α   predicted    -0.6578714E-02 (  -0.42%)
   displ. norm   :     0.2395000 α      lambda       -0.1392305E-02
   maximum displ.:     0.2235725 α      in ANC's #42, #21, #38, ...

........................................................................
.............................. CYCLE    4 ..............................
........................................................................

 iter      E             dE          RMSdq      gap      omega  full diag
   1   -250.1319363 -0.250132E+03  0.851E-02    0.08       0.0  T
   2   -250.0836176  0.483187E-01  0.374E-01    0.24       1.0  T
   3   -250.1330613 -0.494436E-01  0.414E-02    0.09       1.0  T
   4   -250.1320616  0.999703E-03  0.578E-02    0.09       1.0  T
   5   -250.1331852 -0.112360E-02  0.292E-02    0.08       1.0  T
   6   -250.1332578 -0.726444E-04  0.260E-02    0.08       1.0  T
   7   -250.1334536 -0.195806E-03  0.795E-03    0.08       1.1  T
   8   -250.1334678 -0.141679E-04  0.631E-03    0.08       1.4  T
   9   -250.1334797 -0.119326E-04  0.109E-03    0.08       8.0  T
  10   -250.1334800 -0.252052E-06  0.470E-04    0.08      18.5  T
  11   -250.1334800 -0.236392E-07  0.285E-04    0.08      30.6  T
     SCC iter.                  ...        0 min,  0.468 sec
     gradient                   ...        0 min,  0.118 sec
 * total energy  :  -245.6073084 Eh     change       -0.7868301E-03 Eh
   gradient norm :     0.0060938 Eh/α   predicted    -0.7360854E-03 (  -6.45%)
   displ. norm   :     0.0483358 α      lambda       -0.8323761E-04
   maximum displ.:     0.0363828 α      in ANC's #42, #21, #23, ...

........................................................................
.............................. CYCLE    5 ..............................
........................................................................

 iter      E             dE          RMSdq      gap      omega  full diag
   1   -250.1387634 -0.250139E+03  0.136E-02    0.09       0.0  T
   2   -250.1376008  0.116264E-02  0.618E-02    0.08       1.0  T
   3   -250.1386141 -0.101337E-02  0.223E-02    0.09       1.0  T
   4   -250.1386765 -0.624004E-04  0.154E-02    0.08       1.0  T
   5   -250.1387526 -0.760555E-04  0.673E-03    0.09       1.3  T
   6   -250.1387706 -0.180164E-04  0.295E-03    0.08       3.0  T
   7   -250.1387739 -0.325183E-05  0.865E-04    0.09      10.1  T
   8   -250.1387741 -0.255218E-06  0.280E-04    0.09      31.1  T
   9   -250.1387741 -0.144790E-07  0.156E-04    0.09      55.6  T
     SCC iter.                  ...        0 min,  0.393 sec
     gradient                   ...        0 min,  0.118 sec
 * total energy  :  -245.6073626 Eh     change       -0.5416123E-04 Eh
   gradient norm :     0.0030078 Eh/α   predicted    -0.4219476E-04 ( -22.09%)
   displ. norm   :     0.0210539 α      lambda       -0.1960026E-04
   maximum displ.:     0.0126015 α      in ANC's #21, #23, #42, ...

........................................................................
.............................. CYCLE    6 ..............................
........................................................................

 iter      E             dE          RMSdq      gap      omega  full diag
   1   -250.1391722 -0.250139E+03  0.108E-02    0.09       0.0  T
   2   -250.1359106  0.326156E-02  0.102E-01    0.07       1.0  T
   3   -250.1391591 -0.324848E-02  0.104E-02    0.09       1.0  T
   4   -250.1391812 -0.221045E-04  0.598E-03    0.09       1.5  T
   5   -250.1391867 -0.543140E-05  0.405E-03    0.09       2.1  T
   6   -250.1391919 -0.520803E-05  0.250E-03    0.09       3.5  T
   7   -250.1391940 -0.215808E-05  0.102E-03    0.09       8.5  T
   8   -250.1391944 -0.341974E-06  0.237E-04    0.09      36.8  T
   9   -250.1391944 -0.159464E-07  0.928E-05    0.09      93.8  T
     SCC iter.                  ...        0 min,  0.382 sec
     gradient                   ...        0 min,  0.116 sec
 * total energy  :  -245.6073745 Eh     change       -0.1195227E-04 Eh
   gradient norm :     0.0011197 Eh/α   predicted    -0.9814611E-05 ( -17.88%)
   displ. norm   :     0.0155905 α      lambda       -0.3565122E-05
   maximum displ.:     0.0059952 α      in ANC's #21, #12, #15, ...

........................................................................
.............................. CYCLE    7 ..............................
........................................................................

 iter      E             dE          RMSdq      gap      omega  full diag
   1   -250.1384747 -0.250138E+03  0.553E-03    0.09       0.0  T
   2   -250.1379154  0.559251E-03  0.421E-02    0.08       1.0  T
   3   -250.1384641 -0.548681E-03  0.682E-03    0.09       1.3  T
   4   -250.1384745 -0.104401E-04  0.351E-03    0.09       2.5  T
   5   -250.1384760 -0.144730E-05  0.255E-03    0.09       3.4  T
   6   -250.1384784 -0.238212E-05  0.125E-03    0.09       7.0  T
   7   -250.1384789 -0.576981E-06  0.419E-04    0.09      20.8  T
   8   -250.1384790 -0.532555E-07  0.132E-04    0.09      66.0  T
     SCC iter.                  ...        0 min,  0.351 sec
     gradient                   ...        0 min,  0.126 sec
 * total energy  :  -245.6073774 Eh     change       -0.2833759E-05 Eh
   gradient norm :     0.0006675 Eh/α   predicted    -0.1787619E-05 ( -36.92%)
   displ. norm   :     0.0158094 α      lambda        0.2957209E-05
   maximum displ.:     0.0060097 α      in ANC's #21, #12, #15, ...

   *** GEOMETRY OPTIMIZATION CONVERGED AFTER 7 ITERATIONS ***

------------------------------------------------------------------------
 total energy gain   :        -0.0208515 Eh      -13.0845 kcal/mol
 total RMSD          :         0.1123409 a0        0.0594 Å
 total power (kW/mol):        -7.8207869 (step)  -12.7731 (real)
------------------------------------------------------------------------

 ANCopt (total)                0 d,  0 h,  0 min,  4.286 sec
 optimizer setup                ...        0 min,  0.001 sec (  0.023%)
 model hessian                  ...        0 min,  0.092 sec (  2.147%)
 ANC generation                 ...        0 min,  0.023 sec (  0.537%)
 coordinate transformation      ...        0 min,  0.001 sec (  0.023%)
 single point calculation       ...        0 min,  4.158 sec ( 97.014%)
 optimization log               ...        0 min,  0.007 sec (  0.163%)
 hessian update                 ...        0 min,  0.000 sec (  0.000%)
 rational function              ...        0 min,  0.004 sec (  0.093%)

================
 final structure:
================
132
 xtb: 6.7.1pre (5071a88)
C           -2.84857631883374       -7.31369487002286       -0.00698801611332
C            1.43867388988634       -7.33457113022116        0.07166817400577
C           -0.72646870535240       -6.12015339098053        0.01603394347705
N            5.67701645492290       -7.27387745814607       -0.02293703692902
C            3.53572276459188       -6.11119773169133        0.02448127002813
C            1.41076272641455       -4.90229777246746        0.01973268258620
C           -1.48743829569495       -7.31523466723293        0.00267376864653
C           -3.59147749748668       -6.11040114943383       -0.00428698574545
C            2.79072796324485       -7.31641851987610        0.06651141976776
C            0.69434625901770       -6.12113579591301        0.03246445292972
C           -1.43857176942529       -4.89615378450893        0.00818327544144
C            7.74493456865904       -6.10629278513223       -0.03334724110007
C            5.64848113424081       -4.88553226870660       -0.00986251543371
C            3.49958454715228       -3.69105850427529        0.00903765767414
C            5.62248622650727       -2.44820949039138       -0.00453670851939
C            7.73854102943227       -1.26091270977287       -0.01463364011755
C            7.04281171341486       -7.26088688429192       -0.03635427214426
C            4.91673822277380       -6.10258888354115       -0.00358445140194
N            2.80467537631176       -4.89057889987544        0.01838423258360
C            0.70336622207279       -3.68589579882013        0.01144691527818
C            7.03030660748623       -4.86926873571513       -0.02180049090829
C            4.89803829692602       -3.67238093069949       -0.00009239567272
C            2.80823433816497       -2.46211362292151        0.00795222178007
C            7.03560885759605       -2.45240762178863       -0.01344120532061
C            4.93276122278808       -1.22349506725023       -0.00034987742981
C            7.06819013523906       -0.03362262901204       -0.00880594635751
C           -7.12647731457788       -7.19614036116317       -0.01559391268352
C           -4.99982686599503       -6.06814891019632       -0.00864988265957
C           -7.09645226124978       -4.80320990722187       -0.01386610032747
C           -2.85665934756185       -4.88557701197081        0.00063078125949
C           -4.94912343934143       -3.62584426651934       -0.00638760318353
C           -7.06178794741903       -2.38175230923293       -0.01154688969410
C           -0.72074067145585       -3.67452520806120        0.00930013973375
C           -2.82675037547562       -2.42819916736036        0.00161051336967
C           -4.93850415883988       -1.17927317247882       -0.00446976131727
C           -7.03699583043959        0.04335355186847       -0.00880423698505
C           -7.81188507980608       -6.01694117471515       -0.01704918476437
C           -5.68311044795080       -4.83815044086307       -0.00961203336080
N           -7.72871607268467       -3.59443947445972       -0.01474359516175
C           -3.54250180119835       -3.65421982188185       -0.00142406879543
C           -5.64929792560509       -2.39646977188509       -0.00752671150161
C           -7.73288095763612       -1.18269183988193       -0.01199260004611
C            1.39731936780596       -2.44552245591410        0.00874883707543
C           -7.02792175385172        2.44879565303504       -0.00588122708599
C            1.48539908257879        7.33582405550903        0.00743346553072
C           -0.71105826844420       -1.21360137212033        0.00568184116280
C            7.75294664880563        3.63227496991158       -0.00580186677114
C           -2.82944738178816        0.02556358866279        0.00138376369884
C            5.67917419329152        4.85031844219153        0.00004560505596
N           -4.92584853935957        1.24615273838828       -0.00274459803697
C            3.58190285122793        6.11802566053082        0.00452198195048
C            3.52400423782366       -1.23283596135743        0.00419159374016
C           -4.92380193573542        3.67304651783353       -0.00108208747380
C            1.41758337210893        0.00443665739992        0.00558989314063
C           -7.04744511046159        4.88591096650406       -0.00343199230884
C           -0.69534249413437        1.22970168412596        0.00416849123999
C            7.79956103950722        6.09675837668479       -0.00315677046343
C           -2.81404289330562        2.45561026034975        0.00156022318027
C            5.65084770158145        0.00116256721471       -0.00285641388319
C           -2.81598725285606        4.90564949130717        0.00248602702009
C            3.54965489444166        1.21952007200646        0.00272508702786
C           -4.96943650206965        6.15292532039540        0.00055745425789
C            1.43226823841705        2.45101477327221        0.00447308231972
C           -7.11444097064271        7.27760011706727       -0.00132412910834
C           -0.68800015379233        3.68011515567047        0.00413286928349
C            7.72691086670468        1.21006816610503       -0.00938312383716
C           -0.67642490542262        6.11651250666416        0.00499405297503
N            5.65314274422117        2.42836681884023       -0.00167009827833
C           -2.77480507765136        7.30816166484143        0.00333312177052
C            3.56116924351056        3.65917104610857        0.00284227211709
C            1.44337727229085        4.89850576165222        0.00504620817937
C           -1.41051540478171       -2.44511452185542        0.00564479690829
C            7.04227466657266        2.40272022057883       -0.00552116204954
N           -1.40863956123073        7.27789887288127        0.00474310802914
C           -3.52197251581081       -1.21053887789163       -0.00038567392198
C            4.97037467072047        3.63178765252651        0.00053703140812
C           -5.63039362630146        0.05039096240599       -0.00538008623568
C            2.86384307872829        4.89330842254858        0.00427173064137
C           -7.73277399786063        1.27612768941474       -0.00883872233401
C            0.73208304229292        6.13611528035627        0.00587193350847
C            0.70478463178536       -1.22249078263124        0.00675876220330
C           -1.40801699482343        0.01254925506290        0.00383096125347
C            7.11679883908985        4.83607296283177       -0.00297273592551
C           -3.53310646237560        1.24069449421862        0.00005154888829
C            4.98682103835294        6.07219498684857        0.00231087256587
C           -5.60554219628690        2.45777968305217       -0.00314547585794
C            2.84322808145742        7.33144768650030        0.00684864857736
C            2.83439630600174       -0.00713470424974        0.00444358323906
C           -5.64050409734805        4.91410153490067       -0.00131320938067
C            0.71861351703007        1.22277989168218        0.00488970471121
C           -7.78176928825492        6.05902114995562       -0.00343436335119
C           -1.40197438289576        2.45219726458263        0.00333191500700
C            7.09029474792482        7.24243734881484       -0.00079557064941
C           -3.50379857060579        3.70064820805043        0.00105257173347
C            4.95608670580084        1.22383709963655       -0.00023921985311
C           -3.52086858064975        6.16461562358177        0.00222405303823
C            2.83297530324016        2.44148901136793        0.00349761559041
C           -5.73888073591455        7.32498873279575        0.00058676534429
C            0.73151649255333        3.68102060241043        0.00464383492883
C           -1.38920773314102        4.90195591374797        0.00393765172577
H           -3.35844856324225       -8.26852445898373       -0.01867735590585
H            0.93182900743968       -8.28263309552873        0.11298166191871
H            5.19872147823431       -8.15784378658435       -0.04339537202999
H           -5.28619024586323       -8.10364044744917       -0.00970942560840
H           -0.98714974118234       -8.26998586259305       -0.00447377907496
H            3.32436454375056       -8.25369801986570        0.10409142222014
H            8.82193831106613       -6.11104010787675       -0.04109597498888
H            8.81926387949616       -1.27141442776888       -0.02050446844480
H            7.51895806807588       -8.22850887307088       -0.04809825399755
H           -7.62046313608647       -8.15373850164050       -0.01762745628832
H           -8.88988174799723       -6.01453016989925       -0.02042802842932
H           -8.73802908912714       -3.57721517050462       -0.01761422401521
H           -8.81305387798400       -1.16119486184681       -0.01479171261002
H            0.98280769592566        8.29367655991995        0.00929609506530
H            8.82989494748554        3.58039180391074       -0.00843628944681
H            8.87631999303791        6.11038166577412       -0.00528280749772
H            5.23627214471020        8.11352617383149        0.00305776799259
H           -7.68515804397404        8.19465716958870       -0.00124094334510
H            8.80495557012147        1.23990738916613       -0.01298933565053
H           -3.20390184356269        8.29559136741565        0.00311614346129
H           -0.91337843472287        8.15427883203655        0.00490972849208
H           -8.81176739291177        1.28035504310261       -0.01110422087599
H            3.35632289193691        8.28332749348964        0.00827060953379
H           -8.86165177393589        6.02055755229665       -0.00505223015665
H            7.55801705391799        8.21568575575111       -0.00091396284647
H           -5.25467932736162        8.28801378917026        0.00216248368383
N            7.69137738936326       -3.66335159329820       -0.02110154837689
N           -7.67531286579330        3.66175836315741       -0.00557502674842
H            8.69971041491820       -3.66286158304359       -0.02848081699996
H           -8.68409770545188        3.64670208275345       -0.00737899260081
N            5.73260651986128        7.23816818023103        0.00186747731399
N           -5.76455808102917       -7.21689377993573       -0.01134068185241
 
 Bond Distances (Angstroems)
 ---------------------------
C1-C7=1.3612         C1-C8=1.4142         C1-H101=1.0825       C2-C9=1.3522         C2-C10=1.4241        C2-H102=1.0758       
C3-C7=1.4169         C3-C10=1.4209        C3-C11=1.4161        N4-C17=1.3659        N4-C18=1.3965        N4-H103=1.0053       
C5-C9=1.4175         C5-C18=1.3813        C5-N19=1.4228        C6-C10=1.4139        C6-N19=1.3940        C6-C20=1.4072        
C7-C1=1.3612         C7-C3=1.4169         C7-H105=1.0779       C8-C1=1.4142         C8-C28=1.4090        C8-C30=1.4283        
C9-C2=1.3522         C9-C5=1.4175         C9-H106=1.0792       C10-C2=1.4241        C10-C3=1.4209        C10-C6=1.4139        
C11-C3=1.4161        C11-C30=1.4181       C11-C33=1.4169       C12-C17=1.3513       C12-C21=1.4287       C12-H107=1.0770      
C13-C18=1.4201       C13-C21=1.3820       C13-C22=1.4265       C14-N19=1.3863       C14-C22=1.3986       C14-C23=1.4101       
C15-C22=1.4225       C15-C24=1.4132       C15-C25=1.4056       C16-C24=1.3834       C16-C26=1.3984       C16-H108=1.0808      
C17-N4=1.3659        C17-C12=1.3513       C17-H109=1.0785      C18-N4=1.3965        C18-C5=1.3813        C18-C13=1.4201       
N19-C5=1.4228        N19-C6=1.3940        N19-C14=1.3863       C20-C6=1.4072        C20-C33=1.4242       C20-C43=1.4213       
C21-C12=1.4287       C21-C13=1.3820       C21-N127=1.3752      C22-C13=1.4265       C22-C14=1.3986       C22-C15=1.4225       
C23-C14=1.4101       C23-C43=1.4110       C23-C52=1.4225       C24-C15=1.4132       C24-C16=1.3834       C24-N127=1.3771      
C25-C15=1.4056       C25-C52=1.4088       C25-C59=1.4197       C26-C16=1.3984       C26-C59=1.4178       C26-C66=1.4074       
C27-C37=1.3639       C27-H110=1.0775      C27-N132=1.3621      C28-C8=1.4090        C28-C38=1.4070       C28-N132=1.3800      
C29-C37=1.4089       C29-C38=1.4138       C29-N39=1.3641       C30-C8=1.4283        C30-C11=1.4181       C30-C40=1.4095       
C31-C38=1.4172       C31-C40=1.4069       C31-C41=1.4148       C32-N39=1.3840       C32-C41=1.4126       C32-C42=1.3741       
C33-C11=1.4169       C33-C20=1.4242       C33-C72=1.4097       C34-C40=1.4197       C34-C72=1.4163       C34-C75=1.4022       
C35-C41=1.4095       C35-C75=1.4169       C35-C77=1.4110       C36-C42=1.4098       C36-C77=1.4066       C36-C79=1.4156       
C37-C27=1.3639       C37-C29=1.4089       C37-H111=1.0780      C38-C28=1.4070       C38-C29=1.4138       C38-C31=1.4172       
N39-C29=1.3641       N39-C32=1.3840       N39-H112=1.0095      C40-C30=1.4095       C40-C31=1.4069       C40-C34=1.4197       
C41-C31=1.4148       C41-C32=1.4126       C41-C35=1.4095       C42-C32=1.3741       C42-C36=1.4098       C42-H113=1.0804      
C43-C20=1.4213       C43-C23=1.4110       C43-C81=1.4055       C44-C79=1.3682       C44-C86=1.4224       C44-N128=1.3749      
C45-C80=1.4166       C45-C87=1.3578       C45-H114=1.0817      C46-C72=1.4163       C46-C81=1.4159       C46-C82=1.4104       
C47-C73=1.4202       C47-C83=1.3616       C47-H115=1.0782      C48-C75=1.4169       C48-C82=1.4215       C48-C84=1.4042       
C49-C76=1.4097       C49-C83=1.4377       C49-C85=1.4044       N50-C77=1.3879       N50-C84=1.3928       N50-C86=1.3893       
C51-C78=1.4197       C51-C85=1.4057       C51-C87=1.4206       C52-C23=1.4225       C52-C25=1.4088       C52-C88=1.4064       
C53-C86=1.3934       C53-C89=1.4331       C53-C94=1.4203       C54-C81=1.4190       C54-C88=1.4169       C54-C90=1.4046       
C55-C89=1.4072       C55-C91=1.3840       C55-N128=1.3758      C56-C82=1.4104       C56-C90=1.4140       C56-C92=1.4120       
C57-C83=1.4337       C57-C93=1.3475       C57-H116=1.0768      C58-C84=1.4118       C58-C92=1.4121       C58-C94=1.4233       
C59-C25=1.4197       C59-C26=1.4178       C59-C95=1.4063       C60-C94=1.3875       C60-C96=1.4429       C60-C100=1.4268      
C61-C88=1.4200       C61-C95=1.4064       C61-C97=1.4166       C62-C89=1.4089       C62-C96=1.4486       C62-C98=1.4021       
C63-C90=1.4205       C63-C97=1.4007       C63-C99=1.4156       C64-C91=1.3893       C64-C98=1.3764       C64-H118=1.0801      
C65-C92=1.4204       C65-C99=1.4195       C65-C100=1.4088      C66-C26=1.4074       C66-C73=1.3752       C66-H119=1.0785      
C67-N74=1.3729       C67-C80=1.4086       C67-C100=1.4083      N68-C73=1.3894       N68-C76=1.3836       N68-C95=1.3917       
C69-N74=1.3665       C69-C96=1.3654       C69-H120=1.0766      C70-C76=1.4095       C70-C78=1.4175       C70-C97=1.4188       
C71-C78=1.4205       C71-C80=1.4275       C71-C99=1.4103       C72-C33=1.4097       C72-C34=1.4163       C72-C46=1.4163       
C73-C47=1.4202       C73-C66=1.3752       C73-N68=1.3894       N74-C67=1.3729       N74-C69=1.3665       N74-H121=1.0066      
C75-C34=1.4022       C75-C35=1.4169       C75-C48=1.4169       C76-C49=1.4097       C76-N68=1.3836       C76-C70=1.4095       
C77-C35=1.4110       C77-C36=1.4066       C77-N50=1.3879       C78-C51=1.4197       C78-C70=1.4175       C78-C71=1.4205       
C79-C36=1.4156       C79-C44=1.3682       C79-H122=1.0790      C80-C45=1.4166       C80-C67=1.4086       C80-C71=1.4275       
C81-C43=1.4055       C81-C46=1.4159       C81-C54=1.4190       C82-C46=1.4104       C82-C48=1.4215       C82-C56=1.4104       
C83-C47=1.3616       C83-C49=1.4377       C83-C57=1.4337       C84-C48=1.4042       C84-N50=1.3928       C84-C58=1.4118       
C85-C49=1.4044       C85-C51=1.4057       C85-N131=1.3841      C86-C44=1.4224       C86-N50=1.3893       C86-C53=1.3934       
C87-C45=1.3578       C87-C51=1.4206       C87-H123=1.0814      C88-C52=1.4064       C88-C54=1.4169       C88-C61=1.4200       
C89-C53=1.4331       C89-C55=1.4072       C89-C62=1.4089       C90-C54=1.4046       C90-C56=1.4140       C90-C63=1.4205       
C91-C55=1.3840       C91-C64=1.3893       C91-H124=1.0806      C92-C56=1.4120       C92-C58=1.4121       C92-C65=1.4204       
C93-C57=1.3475       C93-H125=1.0798      C93-N131=1.3577      C94-C53=1.4203       C94-C58=1.4233       C94-C60=1.3875       
C95-C59=1.4063       C95-C61=1.4064       C95-N68=1.3917       C96-C60=1.4429       C96-C62=1.4486       C96-C69=1.3654       
C97-C61=1.4166       C97-C63=1.4007       C97-C70=1.4188       C98-C62=1.4021       C98-C64=1.3764       C98-H126=1.0779      
C99-C63=1.4156       C99-C65=1.4195       C99-C71=1.4103       C100-C60=1.4268      C100-C65=1.4088      C100-C67=1.4083      
H101-C1=1.0825       H102-C2=1.0758       H103-N4=1.0053       H104-N132=1.0076     H105-C7=1.0779       H106-C9=1.0792       
H107-C12=1.0770      H108-C16=1.0808      H109-C17=1.0785      H110-C27=1.0775      H111-C37=1.0780      H112-N39=1.0095      
H113-C42=1.0804      H114-C45=1.0817      H115-C47=1.0782      H116-C57=1.0768      H117-N131=1.0063     H118-C64=1.0801      
H119-C66=1.0785      H120-C69=1.0766      H121-N74=1.0066      H122-C79=1.0790      H123-C87=1.0814      H124-C91=1.0806      
H125-C93=1.0798      H126-C98=1.0779      N127-C21=1.3752      N127-C24=1.3771      N127-H129=1.0084     N128-C44=1.3749      
N128-C55=1.3758      N128-H130=1.0089     H129-N127=1.0084     H130-N128=1.0089     N131-C85=1.3841      N131-C93=1.3577      
N131-H117=1.0063     N132-C27=1.3621      N132-C28=1.3800      N132-H104=1.0076     
 C  H  Rav=1.0790 sigma=0.0018  Rmin=1.0758  Rmax=1.0825    21
 C  C  Rav=1.4082 sigma=0.0188  Rmin=1.3475  Rmax=1.4486   119
 N  H  Rav=1.0075 sigma=0.0014  Rmin=1.0053  Rmax=1.0095     7
 N  C  Rav=1.3815 sigma=0.0139  Rmin=1.3577  Rmax=1.4228    23
 
 selected bond angles (degree)
 --------------------
C8-C1-C7=121.75                H101-C1-C7=118.04              H101-C1-C8=120.21              C10-C2-C9=120.74               
H102-C2-C9=118.88              H102-C2-C10=120.38             C10-C3-C7=122.45               C11-C3-C7=117.32               
C11-C3-C10=120.23              C18-N4-C17=122.45              H103-N4-C17=118.94             H103-N4-C18=118.60             
C18-C5-C9=122.10               N19-C5-C9=117.35               N19-C5-C18=120.55              N19-C6-C10=120.93              
C20-C6-C10=119.38              C20-C6-N19=119.70              C3-C7-C1=122.42                H105-C7-C1=117.71              
H105-C7-C3=119.86              C28-C8-C1=123.41               C30-C8-C1=117.35               C30-C8-C28=119.24              
C5-C9-C2=122.48                H106-C9-C2=118.86              H106-C9-C5=118.66              C3-C10-C2=121.57               
C6-C10-C2=118.03               C6-C10-C3=120.40               
 
 selected dihedral angles (degree)
 ---------------------------------
C3-C7-C1-C8=  0.00            C3-C7-C1-H101=179.90          H105-C7-C1-C8=180.26          H105-C7-C1-H101=  0.16        
C1-C7-C3-C10=179.70           C1-C7-C3-C11=359.50           H105-C7-C3-C10=359.43         H105-C7-C3-C11=179.24         
C28-C8-C1-C7=180.26           C28-C8-C1-H101=  0.37         C30-C8-C1-C7=  0.38           C30-C8-C1-H101=180.49         
C5-C9-C2-C10=  0.09           C5-C9-C2-H102=180.52          H106-C9-C2-C10=179.57         H106-C9-C2-H102=  0.00        
C2-C9-C5-C18=181.13           C2-C9-C5-N19=  1.43           H106-C9-C5-C18=  1.65         H106-C9-C5-N19=181.95         
C3-C10-C2-C9=179.00           C3-C10-C2-H102=358.57         C6-C10-C2-C9=358.55           C6-C10-C2-H102=178.12         
C2-C10-C3-C7=358.34           C2-C10-C3-C11=178.54          C6-C10-C3-C7=178.79           C6-C10-C3-C11=358.99          
C2-C10-C6-N19=  1.27          C2-C10-C6-C20=181.42          C3-C10-C6-N19=180.83          C3-C10-C6-C20=  0.97          
           -------------------------------------------------
          |                Final Singlepoint                |
           -------------------------------------------------

          ...................................................
          :                      SETUP                      :
          :.................................................:
          :  # basis functions                 444          :
          :  # atomic orbitals                 444          :
          :  # shells                          236          :
          :  # electrons                       454          :
          :  max. iterations                   250          :
          :  Hamiltonian                  GFN2-xTB          :
          :  restarted?                      false          :
          :  GBSA solvation                  false          :
          :  PC potential                    false          :
          :  electronic temp.          300.0000000     K    :
          :  accuracy                    1.0000000          :
          :  -> integral cutoff          0.2500000E+02      :
          :  -> integral neglect         0.1000000E-07      :
          :  -> SCF convergence          0.1000000E-05 Eh   :
          :  -> wf. convergence          0.1000000E-03 e    :
          :  Broyden damping             0.4000000          :
          :  net charge                          0          :
          :  unpaired electrons                  0          :
          ...................................................

 iter      E             dE          RMSdq      gap      omega  full diag
   1   -250.1384790 -0.250138E+03  0.552E-05    0.09       0.0  T
   2   -250.1384790  0.207544E-08  0.901E-05    0.09      96.6  T
   3   -250.1384790 -0.214192E-08  0.411E-05    0.09     211.6  T

   *** convergence criteria satisfied after 3 iterations ***

         #    Occupation            Energy/Eh            Energy/eV
      -------------------------------------------------------------
         1        2.0000           -0.6769636             -18.4211
       ...           ...                  ...                  ...
       221        2.0000           -0.3439594              -9.3596
       222        2.0000           -0.3389462              -9.2232
       223        2.0000           -0.3276300              -8.9153
       224        2.0000           -0.3204495              -8.7199
       225        2.0000           -0.2914254              -7.9301
       226        2.0000           -0.2781895              -7.5699
       227        1.6819           -0.2691423              -7.3237 (HOMO)
       228        0.3182           -0.2659784              -7.2376 (LUMO)
       229        0.0000           -0.2563507              -6.9757
       230        0.0000           -0.2551683              -6.9435
       231        0.0000           -0.2515945              -6.8462
       232                         -0.2447133              -6.6590
       ...                                ...                  ...
       444                          0.8077597              21.9803
      -------------------------------------------------------------
                  HL-Gap            0.0031639 Eh            0.0861 eV
             Fermi-level           -0.2675603 Eh           -7.2807 eV

 SCC (total)                   0 d,  0 h,  0 min,  0.272 sec
 SCC setup                      ...        0 min,  0.002 sec (  0.735%)
 Dispersion                     ...        0 min,  0.003 sec (  1.103%)
 classical contributions        ...        0 min,  0.000 sec (  0.000%)
 integral evaluation            ...        0 min,  0.024 sec (  8.824%)
 iterations                     ...        0 min,  0.120 sec ( 44.118%)
 molecular gradient             ...        0 min,  0.119 sec ( 43.750%)
 printout                       ...        0 min,  0.004 sec (  1.471%)

         :::::::::::::::::::::::::::::::::::::::::::::::::::::
         ::                     SUMMARY                     ::
         :::::::::::::::::::::::::::::::::::::::::::::::::::::
         :: total energy            -245.607377376600 Eh    ::
         :: gradient norm              0.000667520126 Eh/a0 ::
         :: HOMO-LUMO gap              0.086093141942 eV    ::
         ::.................................................::
         :: SCC energy              -250.146553546176 Eh    ::
         :: -> isotropic ES            0.037388484377 Eh    ::
         :: -> anisotropic ES          0.029411514258 Eh    ::
         :: -> anisotropic XC          0.071826388260 Eh    ::
         :: -> dispersion             -0.288487714154 Eh    ::
         :: repulsion energy           4.539176169576 Eh    ::
         :: add. restraining           0.000000000000 Eh    ::
         :: total charge              -0.000000000000 e     ::
         :::::::::::::::::::::::::::::::::::::::::::::::::::::

           -------------------------------------------------
          |                Property Printout                |
           -------------------------------------------------

    * Orbital Energies and Occupations

         #    Occupation            Energy/Eh            Energy/eV
      -------------------------------------------------------------
         1        2.0000           -0.6769636             -18.4211
       ...           ...                  ...                  ...
       215        2.0000           -0.3684369             -10.0257
       216        2.0000           -0.3679569             -10.0126
       217        2.0000           -0.3660424              -9.9605
       218        2.0000           -0.3631009              -9.8805
       219        2.0000           -0.3599565              -9.7949
       220        2.0000           -0.3548784              -9.6567
       221        2.0000           -0.3439594              -9.3596
       222        2.0000           -0.3389462              -9.2232
       223        2.0000           -0.3276300              -8.9153
       224        2.0000           -0.3204495              -8.7199
       225        2.0000           -0.2914254              -7.9301
       226        2.0000           -0.2781895              -7.5699
       227        1.6819           -0.2691423              -7.3237 (HOMO)
       228        0.3182           -0.2659784              -7.2376 (LUMO)
       229        0.0000           -0.2563507              -6.9757
       230        0.0000           -0.2551683              -6.9435
       231        0.0000           -0.2515945              -6.8462
       232                         -0.2447133              -6.6590
       233                         -0.2414174              -6.5693
       234                         -0.2371400              -6.4529
       235                         -0.2335991              -6.3566
       236                         -0.2289720              -6.2306
       237                         -0.2232251              -6.0743
       238                         -0.2160369              -5.8787
       ...                                ...                  ...
       444                          0.8077597              21.9803
      -------------------------------------------------------------
                  HL-Gap            0.0031639 Eh            0.0861 eV
             Fermi-level           -0.2675603 Eh           -7.2807 eV

     #   Z          covCN         q      C6AA      α(0)
     1   6 C        2.912    -0.048    29.183     8.858
     2   6 C        2.913    -0.050    29.245     8.868
     3   6 C        2.978    -0.004    28.108     8.697
     4   7 N        2.699    -0.120    23.606     7.216
     5   6 C        2.914     0.008    27.842     8.652
     6   6 C        2.925     0.050    26.868     8.500
     7   6 C        2.916    -0.044    29.094     8.845
     8   6 C        2.977    -0.027    28.672     8.783
     9   6 C        2.913    -0.059    29.478     8.903
    10   6 C        2.979    -0.022    28.555     8.766
    11   6 C        2.990    -0.007    28.183     8.708
    12   6 C        2.910    -0.082    30.039     8.987
    13   6 C        2.994    -0.013    28.337     8.732
    14   6 C        2.927     0.046    26.970     8.517
    15   6 C        2.995    -0.014    28.353     8.735
    16   6 C        2.919    -0.092    30.299     9.027
    17   6 C        2.847     0.018    27.602     8.610
    18   6 C        2.914     0.029    27.356     8.577
    19   7 N        2.751    -0.015    21.549     6.894
    20   6 C        2.987    -0.021    28.514     8.759
    21   6 C        2.919     0.050    26.886     8.503
    22   6 C        2.993    -0.030    28.731     8.793
    23   6 C        2.992    -0.018    28.453     8.750
    24   6 C        2.913     0.060    26.652     8.465
    25   6 C        2.995    -0.011    28.273     8.722
    26   6 C        2.980     0.010    27.780     8.646
    27   6 C        2.850     0.011    27.775     8.638
    28   6 C        2.916     0.048    26.914     8.507
    29   6 C        2.917     0.060    26.650     8.465
    30   6 C        2.991    -0.003    28.088     8.694
    31   6 C        2.994    -0.014    28.351     8.734
    32   6 C        2.912     0.052    26.823     8.493
    33   6 C        2.988    -0.010    28.255     8.719
    34   6 C        2.992    -0.008    28.219     8.714
    35   6 C        2.993    -0.014    28.351     8.734
    36   6 C        2.982    -0.001    28.052     8.688
    37   6 C        2.910    -0.077    29.912     8.968
    38   6 C        2.992    -0.012    28.307     8.727
    39   7 N        2.702    -0.119    23.583     7.212
    40   6 C        2.991    -0.009    28.239     8.717
    41   6 C        2.997    -0.013    28.335     8.732
    42   6 C        2.923    -0.090    30.268     9.022
    43   6 C        2.991    -0.004    28.123     8.699
    44   6 C        2.910     0.057    26.724     8.477
    45   6 C        2.913    -0.043    29.064     8.840
    46   6 C        2.991    -0.007    28.179     8.708
    47   6 C        2.925    -0.082    30.040     8.988
    48   6 C        2.990    -0.020    28.490     8.756
    49   6 C        2.993    -0.024    28.586     8.770
    50   7 N        2.752     0.004    21.193     6.837
    51   6 C        2.978    -0.025    28.610     8.774
    52   6 C        2.992    -0.008    28.205     8.712
    53   6 C        2.988    -0.027    28.667     8.783
    54   6 C        2.991    -0.005    28.144     8.702
    55   6 C        2.918     0.061    26.627     8.462
    56   6 C        2.992    -0.011    28.276     8.723
    57   6 C        2.911    -0.070    29.739     8.942
    58   6 C        2.990    -0.018    28.451     8.750
    59   6 C        2.997    -0.016    28.403     8.742
    60   6 C        2.993    -0.012    28.300     8.726
    61   6 C        2.989    -0.017    28.434     8.747
    62   6 C        2.978    -0.003    28.087     8.693
    63   6 C        2.991    -0.009    28.226     8.715
    64   6 C        2.917    -0.036    28.888     8.814
    65   6 C        2.990    -0.011    28.283     8.724
    66   6 C        2.926    -0.082    30.062     8.992
    67   6 C        2.915     0.046    26.964     8.515
    68   7 N        2.755     0.010    21.090     6.821
    69   6 C        2.852    -0.002    28.073     8.684
    70   6 C        2.988    -0.018    28.451     8.750
    71   6 C        2.990    -0.003    28.095     8.695
    72   6 C        2.990    -0.009    28.233     8.716
    73   6 C        2.922     0.056    26.753     8.482
    74   7 N        2.700    -0.104    23.273     7.165
    75   6 C        2.993    -0.004    28.119     8.699
    76   6 C        2.932     0.044    27.012     8.524
    77   6 C        2.936     0.036    27.202     8.554
    78   6 C        2.991     0.000    28.010     8.682
    79   6 C        2.922    -0.097    30.428     9.046
    80   6 C        2.977    -0.028    28.701     8.788
    81   6 C        2.991    -0.008    28.214     8.713
    82   6 C        2.991    -0.007    28.190     8.709
    83   6 C        2.979     0.019    27.588     8.616
    84   6 C        2.931     0.042    27.069     8.533
    85   6 C        2.918     0.043    27.033     8.526
    86   6 C        2.935     0.031    27.309     8.570
    87   6 C        2.912    -0.052    29.295     8.875
    88   6 C        2.993    -0.010    28.246     8.718
    89   6 C        2.994    -0.010    28.258     8.720
    90   6 C        2.991    -0.006    28.169     8.706
    91   6 C        2.920    -0.071    29.769     8.947
    92   6 C        2.990    -0.006    28.156     8.704
    93   6 C        2.847     0.025    27.451     8.587
    94   6 C        2.991    -0.011    28.279     8.723
    95   6 C        2.935     0.043    27.037     8.528
    96   6 C        2.970    -0.016    28.396     8.741
    97   6 C        2.993    -0.008    28.199     8.711
    98   6 C        2.920    -0.054    29.338     8.882
    99   6 C        2.988    -0.011    28.288     8.725
   100   6 C        2.990    -0.005    28.150     8.703
   101   1 H        0.925     0.002     3.026     2.720
   102   1 H        0.926     0.021     2.711     2.575
   103   1 H        0.860     0.166     1.300     1.786
   104   1 H        0.860     0.175     1.243     1.746
   105   1 H        0.926     0.021     2.715     2.577
   106   1 H        0.926     0.010     2.890     2.658
   107   1 H        0.926     0.029     2.601     2.522
   108   1 H        0.926     0.013     2.837     2.634
   109   1 H        0.926     0.035     2.515     2.480
   110   1 H        0.926     0.039     2.462     2.454
   111   1 H        0.926     0.032     2.552     2.498
   112   1 H        0.860     0.163     1.319     1.799
   113   1 H        0.926     0.016     2.788     2.611
   114   1 H        0.925     0.007     2.945     2.684
   115   1 H        0.926     0.030     2.588     2.516
   116   1 H        0.926     0.035     2.520     2.482
   117   1 H        0.860     0.170     1.274     1.768
   118   1 H        0.926     0.022     2.697     2.568
   119   1 H        0.926     0.028     2.622     2.532
   120   1 H        0.926     0.028     2.609     2.526
   121   1 H        0.860     0.164     1.309     1.792
   122   1 H        0.926     0.016     2.802     2.618
   123   1 H        0.925     0.004     2.989     2.704
   124   1 H        0.926     0.016     2.801     2.617
   125   1 H        0.926     0.034     2.527     2.486
   126   1 H        0.926     0.020     2.740     2.589
   127   7 N        2.703    -0.127    23.760     7.239
   128   7 N        2.707    -0.135    23.930     7.265
   129   1 H        0.860     0.160     1.333     1.808
   130   1 H        0.860     0.162     1.322     1.801
   131   7 N        2.702    -0.102    23.252     7.162
   132   7 N        2.701    -0.097    23.131     7.143

 Mol. C6AA /au·bohr⁶  :     347609.157201
 Mol. C8AA /au·bohr⁸  :    9348527.416779
 Mol. α(0) /au        :        956.770062


Wiberg/Mayer (AO) data.
largest (>0.10) Wiberg bond orders for each atom

 ---------------------------------------------------------------------------
     #   Z sym  total        # sym  WBO       # sym  WBO       # sym  WBO
 ---------------------------------------------------------------------------
     1   6 C    3.939 --     7 C    1.575     8 C    1.250   101 H    0.959
     2   6 C    3.912 --     9 C    1.597    10 C    1.196   102 H    0.961
     3   6 C    3.929 --    11 C    1.253     7 C    1.250    10 C    1.239
     4   7 N    3.452 --    17 C    1.191    18 C    1.082   103 H    0.934
     5   6 C    3.891 --    18 C    1.401     9 C    1.218    19 N    1.038
     6   6 C    3.915 --    20 C    1.293    10 C    1.279    19 N    1.125
     7   6 C    3.946 --     1 C    1.575     3 C    1.250   105 H    0.961
     8   6 C    3.940 --    28 C    1.273     1 C    1.250    30 C    1.211
     9   6 C    3.921 --     2 C    1.597     5 C    1.218   106 H    0.957
    10   6 C    3.912 --     6 C    1.279     3 C    1.239     2 C    1.196
    11   6 C    3.960 --     3 C    1.253    30 C    1.252    33 C    1.239
    12   6 C    3.940 --    17 C    1.622    21 C    1.171   107 H    0.968
    13   6 C    3.962 --    21 C    1.378    18 C    1.188    22 C    1.160
    14   6 C    3.935 --    22 C    1.311    23 C    1.263    19 N    1.133
    15   6 C    3.943 --    25 C    1.271    24 C    1.240    22 C    1.206
    16   6 C    3.921 --    24 C    1.392    26 C    1.318   108 H    0.966
    17   6 C    3.906 --    12 C    1.622     4 N    1.191   109 H    0.967
    18   6 C    3.871 --     5 C    1.401    13 C    1.188     4 N    1.082
    19   7 N    3.548 --    14 C    1.133     6 C    1.125     5 C    1.038
    20   6 C    3.929 --     6 C    1.293    33 C    1.215    43 C    1.209
    21   6 C    3.858 --    13 C    1.378    12 C    1.171   127 N    1.135
    22   6 C    3.885 --    14 C    1.311    15 C    1.206    13 C    1.160
    23   6 C    3.941 --    14 C    1.263    43 C    1.239    52 C    1.215
    24   6 C    3.910 --    16 C    1.392    15 C    1.240   127 N    1.130
    25   6 C    3.964 --    15 C    1.271    52 C    1.252    59 C    1.219
    26   6 C    3.939 --    16 C    1.318    66 C    1.253    59 C    1.218
    27   6 C    3.819 --    37 C    1.537   132 N    1.206   110 H    0.968
    28   6 C    3.880 --    38 C    1.274     8 C    1.273   132 N    1.131
    29   6 C    3.806 --    37 C    1.258    38 C    1.241    39 N    1.181
    30   6 C    3.941 --    40 C    1.269    11 C    1.252     8 C    1.211
    31   6 C    3.920 --    40 C    1.264    41 C    1.230    38 C    1.211
    32   6 C    3.929 --    42 C    1.436    41 C    1.228    39 N    1.105
    33   6 C    3.940 --    72 C    1.276    11 C    1.239    20 C    1.215
    34   6 C    3.956 --    75 C    1.300    72 C    1.227    40 C    1.210
    35   6 C    3.940 --    41 C    1.260    77 C    1.259    75 C    1.214
    36   6 C    3.951 --    77 C    1.290    42 C    1.272    79 C    1.221
    37   6 C    3.949 --    27 C    1.537    29 C    1.258   111 H    0.967
    38   6 C    3.958 --    28 C    1.274    29 C    1.241    31 C    1.211
    39   7 N    3.448 --    29 C    1.181    32 C    1.105   112 H    0.940
    40   6 C    3.964 --    30 C    1.269    31 C    1.264    34 C    1.210
    41   6 C    3.950 --    35 C    1.260    31 C    1.230    32 C    1.228
    42   6 C    3.905 --    32 C    1.436    36 C    1.272   113 H    0.967
    43   6 C    3.937 --    81 C    1.282    23 C    1.239    20 C    1.209
    44   6 C    3.941 --    79 C    1.456    86 C    1.197   128 N    1.132
    45   6 C    3.953 --    87 C    1.591    80 C    1.242   114 H    0.959
    46   6 C    3.945 --    82 C    1.269    81 C    1.232    72 C    1.232
    47   6 C    3.956 --    83 C    1.513    73 C    1.207   115 H    0.966
    48   6 C    3.943 --    84 C    1.297    82 C    1.214    75 C    1.212
    49   6 C    3.940 --    85 C    1.292    76 C    1.271    83 C    1.147
    50   7 N    3.582 --    77 C    1.125    86 C    1.117    84 C    1.112
    51   6 C    3.959 --    85 C    1.277    78 C    1.243    87 C    1.223
    52   6 C    3.964 --    88 C    1.274    25 C    1.252    23 C    1.215
    53   6 C    3.904 --    86 C    1.337    94 C    1.186    89 C    1.163
    54   6 C    3.952 --    90 C    1.287    88 C    1.229    81 C    1.224
    55   6 C    3.953 --    91 C    1.387    89 C    1.270   128 N    1.126
    56   6 C    3.955 --    82 C    1.255    92 C    1.247    90 C    1.236
    57   6 C    3.952 --    93 C    1.641    83 C    1.158   116 H    0.968
    58   6 C    3.919 --    84 C    1.266    92 C    1.263    94 C    1.189
    59   6 C    3.956 --    95 C    1.289    25 C    1.219    26 C    1.218
    60   6 C    3.920 --    94 C    1.361   100 C    1.202    96 C    1.142
    61   6 C    3.949 --    95 C    1.279    88 C    1.227    97 C    1.219
    62   6 C    3.942 --    98 C    1.337    89 C    1.301    96 C    1.122
    63   6 C    3.956 --    97 C    1.296    99 C    1.233    90 C    1.210
    64   6 C    3.961 --    98 C    1.476    91 C    1.390   118 H    0.972
    65   6 C    3.946 --   100 C    1.270    99 C    1.229    92 C    1.228
    66   6 C    3.891 --    73 C    1.447    26 C    1.253   119 H    0.966
    67   6 C    3.888 --    80 C    1.271   100 C    1.269    74 N    1.146
    68   7 N    3.609 --    76 C    1.142    73 C    1.115    95 C    1.113
    69   6 C    3.831 --    96 C    1.510    74 N    1.180   120 H    0.961
    70   6 C    3.967 --    76 C    1.276    78 C    1.251    97 C    1.209
    71   6 C    3.961 --    99 C    1.275    78 C    1.252    80 C    1.213
    72   6 C    3.949 --    33 C    1.276    46 C    1.232    34 C    1.227
    73   6 C    3.931 --    66 C    1.447    47 C    1.207    68 N    1.115
    74   7 N    3.462 --    69 C    1.180    67 C    1.146   121 H    0.933
    75   6 C    3.941 --    34 C    1.300    35 C    1.214    48 C    1.212
    76   6 C    3.926 --    70 C    1.276    49 C    1.271    68 N    1.142
    77   6 C    3.921 --    36 C    1.290    35 C    1.259    50 N    1.125
    78   6 C    3.971 --    71 C    1.252    70 C    1.251    51 C    1.243
    79   6 C    3.879 --    44 C    1.456    36 C    1.221   122 H    0.966
    80   6 C    3.944 --    67 C    1.271    45 C    1.242    71 C    1.213
    81   6 C    3.956 --    43 C    1.282    46 C    1.232    54 C    1.224
    82   6 C    3.951 --    46 C    1.269    56 C    1.255    48 C    1.214
    83   6 C    3.967 --    47 C    1.513    57 C    1.158    49 C    1.147
    84   6 C    3.897 --    48 C    1.297    58 C    1.266    50 N    1.112
    85   6 C    3.884 --    49 C    1.292    51 C    1.277   131 N    1.115
    86   6 C    3.880 --    53 C    1.337    44 C    1.197    50 N    1.117
    87   6 C    3.939 --    45 C    1.591    51 C    1.223   123 H    0.958
    88   6 C    3.946 --    52 C    1.274    54 C    1.229    61 C    1.227
    89   6 C    3.969 --    62 C    1.301    55 C    1.270    53 C    1.163
    90   6 C    3.938 --    54 C    1.287    56 C    1.236    63 C    1.210
    91   6 C    3.945 --    64 C    1.390    55 C    1.387   124 H    0.968
    92   6 C    3.953 --    58 C    1.263    56 C    1.247    65 C    1.228
    93   6 C    3.938 --    57 C    1.641   131 N    1.209   125 H    0.966
    94   6 C    3.961 --    60 C    1.361    58 C    1.189    53 C    1.186
    95   6 C    3.895 --    59 C    1.289    61 C    1.279    68 N    1.113
    96   6 C    3.953 --    69 C    1.510    60 C    1.142    62 C    1.122
    97   6 C    3.935 --    63 C    1.296    61 C    1.219    70 C    1.209
    98   6 C    3.965 --    64 C    1.476    62 C    1.337   126 H    0.965
    99   6 C    3.964 --    71 C    1.275    63 C    1.233    65 C    1.229
   100   6 C    3.955 --    65 C    1.270    67 C    1.269    60 C    1.202
   101   1 H    0.999 --     1 C    0.959
   102   1 H    0.998 --     2 C    0.961
   103   1 H    0.972 --     4 N    0.934
   104   1 H    0.969 --   132 N    0.930
   105   1 H    0.999 --     7 C    0.961
   106   1 H    0.999 --     9 C    0.957
   107   1 H    0.999 --    12 C    0.968
   108   1 H    0.999 --    16 C    0.966
   109   1 H    0.998 --    17 C    0.967
   110   1 H    0.997 --    27 C    0.968
   111   1 H    0.998 --    37 C    0.967
   112   1 H    0.973 --    39 N    0.940
   113   1 H    0.999 --    42 C    0.967
   114   1 H    0.999 --    45 C    0.959
   115   1 H    0.998 --    47 C    0.966
   116   1 H    0.998 --    57 C    0.968
   117   1 H    0.971 --   131 N    0.931
   118   1 H    0.998 --    64 C    0.972
   119   1 H    0.998 --    66 C    0.966
   120   1 H    0.998 --    69 C    0.961
   121   1 H    0.972 --    74 N    0.933
   122   1 H    0.999 --    79 C    0.966
   123   1 H    0.999 --    87 C    0.958
   124   1 H    0.999 --    91 C    0.968
   125   1 H    0.998 --    93 C    0.966
   126   1 H    0.999 --    98 C    0.965
   127   7 N    3.424 --    21 C    1.135    24 C    1.130   129 H    0.942
   128   7 N    3.459 --    44 C    1.132    55 C    1.126   130 H    0.940
   129   1 H    0.973 --   127 N    0.942
   130   1 H    0.973 --   128 N    0.940
   131   7 N    3.499 --    93 C    1.209    85 C    1.115   117 H    0.931
   132   7 N    3.460 --    27 C    1.206    28 C    1.131   104 H    0.930
 ---------------------------------------------------------------------------

Topologies differ in total number of bonds
Writing topology from bond orders to xtbtopo.mol

molecular dipole:
                 x           y           z       tot (Debye)
 q only:       -0.045      -0.967      -0.029
   full:       -0.207      -1.008      -0.033       2.616
molecular quadrupole (traceless):
                xx          xy          yy          xz          yz          zz
 q only:       28.403      34.385      37.196      -0.201       0.563     -65.599
  q+dip:       54.579      36.751      71.692      -0.259       0.595    -126.272
   full:       38.496      36.944      56.305      -0.248       0.624     -94.801

           -------------------------------------------------
          |                Geometry Summary                 |
           -------------------------------------------------

      molecular mass/u    :     1297.2985477
   center of mass at/Å    :        0.0000562      -0.0001803       0.0000800
  moments of inertia/u·Å² :        0.2780149E+05   0.3154673E+05   0.5934767E+05
rotational constants/cm⁻¹ :        0.6063570E-03   0.5343702E-03   0.2840488E-03

 * 167 selected distances

     #   Z          #   Z                                           value/Å
     1   6 C        7   6 C                                       1.3611733
     3   6 C        7   6 C                                       1.4168531
     1   6 C        8   6 C                                       1.4141519
     2   6 C        9   6 C                                       1.3521859
     5   6 C        9   6 C                                       1.4175124
     2   6 C       10   6 C                                       1.4240738
     3   6 C       10   6 C                                       1.4209104
     6   6 C       10   6 C                                       1.4138533
     3   6 C       11   6 C                                       1.4160960
     4   7 N       17   6 C                                       1.3659231
    12   6 C       17   6 C                                       1.3513228
     4   7 N       18   6 C                                       1.3965367
     5   6 C       18   6 C                                       1.3813276
    13   6 C       18   6 C                                       1.4201107
     5   6 C       19   7 N                                       1.4228064
     6   6 C       19   7 N                                       1.3939627
    14   6 C       19   7 N                                       1.3863029
     6   6 C       20   6 C                                       1.4071647
    12   6 C       21   6 C                                       1.4286551
    13   6 C       21   6 C                                       1.3819729
    13   6 C       22   6 C                                       1.4265330
    14   6 C       22   6 C                                       1.3986084
    15   6 C       22   6 C                                       1.4224769
    14   6 C       23   6 C                                       1.4100611
    15   6 C       24   6 C                                       1.4131571
    16   6 C       24   6 C                                       1.3833928
    15   6 C       25   6 C                                       1.4055831
    16   6 C       26   6 C                                       1.3984440
     8   6 C       28   6 C                                       1.4089899
     8   6 C       30   6 C                                       1.4283475
    11   6 C       30   6 C                                       1.4181473
    11   6 C       33   6 C                                       1.4169190
    20   6 C       33   6 C                                       1.4241540
    27   6 C       37   6 C                                       1.3639270
    29   6 C       37   6 C                                       1.4088996
    28   6 C       38   6 C                                       1.4070444
    29   6 C       38   6 C                                       1.4137802
    31   6 C       38   6 C                                       1.4171923
    29   6 C       39   7 N                                       1.3641424
    32   6 C       39   7 N                                       1.3839848
    30   6 C       40   6 C                                       1.4094769
    31   6 C       40   6 C                                       1.4069167
    34   6 C       40   6 C                                       1.4196606
    31   6 C       41   6 C                                       1.4147818
    32   6 C       41   6 C                                       1.4125725
    35   6 C       41   6 C                                       1.4095407
    32   6 C       42   6 C                                       1.3740860
    36   6 C       42   6 C                                       1.4097709
    20   6 C       43   6 C                                       1.4213039
    23   6 C       43   6 C                                       1.4110129
    23   6 C       52   6 C                                       1.4224854
    25   6 C       52   6 C                                       1.4087954
    25   6 C       59   6 C                                       1.4196623
    26   6 C       59   6 C                                       1.4177818
    26   6 C       66   6 C                                       1.4073665
    33   6 C       72   6 C                                       1.4096998
    34   6 C       72   6 C                                       1.4163419
    46   6 C       72   6 C                                       1.4162857
    47   6 C       73   6 C                                       1.4201620
    66   6 C       73   6 C                                       1.3751949
    68   7 N       73   6 C                                       1.3893741
    67   6 C       74   7 N                                       1.3729374
    69   6 C       74   7 N                                       1.3665015
    34   6 C       75   6 C                                       1.4021536
    35   6 C       75   6 C                                       1.4168827
    48   6 C       75   6 C                                       1.4168782
    49   6 C       76   6 C                                       1.4096860
    68   7 N       76   6 C                                       1.3836181
    70   6 C       76   6 C                                       1.4094735
    35   6 C       77   6 C                                       1.4109522
    36   6 C       77   6 C                                       1.4066241
    50   7 N       77   6 C                                       1.3878895
    51   6 C       78   6 C                                       1.4196981
    70   6 C       78   6 C                                       1.4175194
    71   6 C       78   6 C                                       1.4204757
    36   6 C       79   6 C                                       1.4155705
    44   6 C       79   6 C                                       1.3682017
    45   6 C       80   6 C                                       1.4166118
    67   6 C       80   6 C                                       1.4086448
    71   6 C       80   6 C                                       1.4274515
    43   6 C       81   6 C                                       1.4054946
    46   6 C       81   6 C                                       1.4158713
    54   6 C       81   6 C                                       1.4189555
    46   6 C       82   6 C                                       1.4103902
    48   6 C       82   6 C                                       1.4214922
    56   6 C       82   6 C                                       1.4104487
    47   6 C       83   6 C                                       1.3615513
    57   6 C       83   6 C                                       1.4336988 (max)
    48   6 C       84   6 C                                       1.4041657
    50   7 N       84   6 C                                       1.3927557
    58   6 C       84   6 C                                       1.4117632
    49   6 C       85   6 C                                       1.4044005
    51   6 C       85   6 C                                       1.4056674
    44   6 C       86   6 C                                       1.4224107
    50   7 N       86   6 C                                       1.3892530
    53   6 C       86   6 C                                       1.3934303
    45   6 C       87   6 C                                       1.3578363
    51   6 C       87   6 C                                       1.4205771
    52   6 C       88   6 C                                       1.4063794
    54   6 C       88   6 C                                       1.4168608
    61   6 C       88   6 C                                       1.4199578
    53   6 C       89   6 C                                       1.4331364
    55   6 C       89   6 C                                       1.4072251
    62   6 C       89   6 C                                       1.4089074
    54   6 C       90   6 C                                       1.4046067
    56   6 C       90   6 C                                       1.4139733
    63   6 C       90   6 C                                       1.4205156
    55   6 C       91   6 C                                       1.3839869
    64   6 C       91   6 C                                       1.3893403
    56   6 C       92   6 C                                       1.4120287
    58   6 C       92   6 C                                       1.4120739
    65   6 C       92   6 C                                       1.4204023
    57   6 C       93   6 C                                       1.3474587
    53   6 C       94   6 C                                       1.4202733
    58   6 C       94   6 C                                       1.4233352
    60   6 C       94   6 C                                       1.3874851
    59   6 C       95   6 C                                       1.4062834
    61   6 C       95   6 C                                       1.4064417
    68   7 N       95   6 C                                       1.3916829
    69   6 C       96   6 C                                       1.3653973
    61   6 C       97   6 C                                       1.4166293
    63   6 C       97   6 C                                       1.4007399
    70   6 C       97   6 C                                       1.4188082
    62   6 C       98   6 C                                       1.4020619
    64   6 C       98   6 C                                       1.3763777
    63   6 C       99   6 C                                       1.4156157
    65   6 C       99   6 C                                       1.4195172
    71   6 C       99   6 C                                       1.4103249
    60   6 C      100   6 C                                       1.4267852
    65   6 C      100   6 C                                       1.4087538
    67   6 C      100   6 C                                       1.4082644
     1   6 C      101   1 H                                       1.0824999
     2   6 C      102   1 H                                       1.0758347
     4   7 N      103   1 H                                       1.0052767 (min)
     7   6 C      105   1 H                                       1.0779099
     9   6 C      106   1 H                                       1.0792003
    12   6 C      107   1 H                                       1.0770422
    16   6 C      108   1 H                                       1.0807899
    17   6 C      109   1 H                                       1.0784924
    27   6 C      110   1 H                                       1.0775066
    37   6 C      111   1 H                                       1.0780048
    39   7 N      112   1 H                                       1.0094642
    42   6 C      113   1 H                                       1.0803905
    45   6 C      114   1 H                                       1.0817038
    47   6 C      115   1 H                                       1.0782007
    57   6 C      116   1 H                                       1.0768473
    64   6 C      118   1 H                                       1.0801444
    66   6 C      119   1 H                                       1.0784637
    69   6 C      120   1 H                                       1.0766344
    74   7 N      121   1 H                                       1.0066408
    79   6 C      122   1 H                                       1.0790042
    87   6 C      123   1 H                                       1.0813620
    91   6 C      124   1 H                                       1.0805686
    93   6 C      125   1 H                                       1.0798041
    98   6 C      126   1 H                                       1.0779012
    21   6 C      127   7 N                                       1.3752278
    24   6 C      127   7 N                                       1.3771262
    44   6 C      128   7 N                                       1.3749161
    55   6 C      128   7 N                                       1.3757807
   127   7 N      129   1 H                                       1.0083602
   128   7 N      130   1 H                                       1.0088989
    85   6 C      131   7 N                                       1.3840845
    93   6 C      131   7 N                                       1.3576977
   117   1 H      131   7 N                                       1.0062808
    27   6 C      132   7 N                                       1.3620841
    28   6 C      132   7 N                                       1.3800131
   104   1 H      132   7 N                                       1.0075506

 * 4 distinct bonds (by element types)

   Z      Z             #   av. dist./Å        max./Å        min./Å
   1 H    6 C          21     1.0789669     1.0824999     1.0758347
   6 C    6 C         116     1.4073349     1.4336988     1.3474587
   1 H    7 N           7     1.0074960     1.0094642     1.0052767
   6 C    7 N          23     1.3815044     1.4228064     1.3576977


optimized geometry written to: xtbopt.xyz


           -------------------------------------------------
          | TOTAL ENERGY             -245.607377376600 Eh   |
          | GRADIENT NORM               0.000667520126 Eh/α |
          | HOMO-LUMO GAP               0.086093141942 eV   |
           -------------------------------------------------

------------------------------------------------------------------------
 * finished run on 2025/12/08 at 00:30:40.249     
------------------------------------------------------------------------
 total:
 * wall-time:     0 d,  0 h,  0 min,  5.897 sec
 *  cpu-time:     0 d,  0 h,  0 min, 23.031 sec
 * ratio c/w:     3.906 speedup
 SCF:
 * wall-time:     0 d,  0 h,  0 min,  1.254 sec
 *  cpu-time:     0 d,  0 h,  0 min,  4.906 sec
 * ratio c/w:     3.912 speedup
 ANC optimizer:
 * wall-time:     0 d,  0 h,  0 min,  4.564 sec
 *  cpu-time:     0 d,  0 h,  0 min, 17.797 sec
 * ratio c/w:     3.899 speedup

normal termination of xtb
