      -----------------------------------------------------------      
     |                   =====================                   |     
     |                           x T B                           |     
     |                   =====================                   |     
     |                         S. Grimme                         |     
     |          Mulliken Center for Theoretical Chemistry        |     
     |                    University of Bonn                     |     
      -----------------------------------------------------------      

   * xtb version 6.7.1pre (5071a88) compiled by 'Marcel@Raven' on 2024-07-23

   xtb is free software: you can redistribute it and/or modify it under
   the terms of the GNU Lesser General Public License as published by
   the Free Software Foundation, either version 3 of the License, or
   (at your option) any later version.
   
   xtb is distributed in the hope that it will be useful,
   but WITHOUT ANY WARRANTY; without even the implied warranty of
   MERCHANTABILITY or FITNESS FOR A PARTICULAR PURPOSE.  See the
   GNU Lesser General Public License for more details.
   
   Cite this work as:
   * C. Bannwarth, E. Caldeweyher, S. Ehlert, A. Hansen, P. Pracht,
     J. Seibert, S. Spicher, S. Grimme, WIREs Comput. Mol. Sci., 2020, 11,
     e01493. DOI: 10.1002/wcms.1493
   
   for GFN2-xTB:
   * C. Bannwarth, S. Ehlert and S. Grimme., J. Chem. Theory Comput., 2019,
     15, 1652-1671. DOI: 10.1021/acs.jctc.8b01176
   for GFN1-xTB:
   * S. Grimme, C. Bannwarth, P. Shushkov, J. Chem. Theory Comput., 2017,
     13, 1989-2009. DOI: 10.1021/acs.jctc.7b00118
   for GFN0-xTB:
   * P. Pracht, E. Caldeweyher, S. Ehlert, S. Grimme, ChemRxiv, 2019, preprint.
     DOI: 10.26434/chemrxiv.8326202.v1
   for GFN-FF:
   * S. Spicher and S. Grimme, Angew. Chem. Int. Ed., 2020, 59, 15665-15673.
     DOI: 10.1002/anie.202004239
   
   for ALPB and GBSA implicit solvation:
   * S. Ehlert, M. Stahn, S. Spicher, S. Grimme, J. Chem. Theory Comput.,
     2021, 17, 4250-4261. DOI: 10.1021/acs.jctc.1c00471
   
   for ddCOSMO and CPCM-X implicit solvation:
   * M. Stahn, S. Ehlert, S. Grimme, J. Phys. Chem. A,
     2023, XX, XXXX-XXXX. DOI: 10.1021/acs.jpca.3c04382
   
   for DFT-D4:
   * E. Caldeweyher, C. Bannwarth and S. Grimme, J. Chem. Phys., 2017,
     147, 034112. DOI: 10.1063/1.4993215
   * E. Caldeweyher, S. Ehlert, A. Hansen, H. Neugebauer, S. Spicher,
     C. Bannwarth and S. Grimme, J. Chem. Phys., 2019, 150, 154122.
     DOI: 10.1063/1.5090222
   * E. Caldeweyher, J.-M. Mewes, S. Ehlert and S. Grimme, Phys. Chem. Chem. Phys.
     2020, 22, 8499-8512. DOI: 10.1039/D0CP00502A
   
   for sTDA-xTB:
   * S. Grimme and C. Bannwarth, J. Chem. Phys., 2016, 145, 054103.
     DOI: 10.1063/1.4959605
   
   in the mass-spec context:
   * V. Asgeirsson, C. Bauer and S. Grimme, Chem. Sci., 2017, 8, 4879.
     DOI: 10.1039/c7sc00601b
   * J. Koopman and S. Grimme, ACS Omega 2019, 4, 12, 15120-15133.
     DOI: 10.1021/acsomega.9b02011
   
   for metadynamics refer to:
   * S. Grimme, J. Chem. Theory Comput., 2019, 155, 2847-2862
     DOI: 10.1021/acs.jctc.9b00143
   
   for SPH calculations refer to:
   * S. Spicher and S. Grimme, J. Chem. Theory Comput., 2021, 17, 1701-1714
     DOI: 10.1021/acs.jctc.0c01306
   
   for ONIOM refer to:
   * C. Plett, A. Katbashev, S. Ehlert, S. Grimme, M. Bursch,
     Phys. Chem. Chem. Phys., 2023, 25, 17860-17868. DOI: 10.1039/D3CP02178E
   
   for DIPRO refer to:
   * J. Kohn, N. Gildemeister, S. Grimme, D. Fazzi, A. Hansen,
     J. Chem. Phys., 2023, just accepted.
   
   for PTB refer to:
   * S. Grimme, M. Mueller, A. Hansen, J. Chem. Phys., 2023, 158, 124111.
     DOI: 10.1063/5.0137838
   
   with help from (in alphabetical order)
   P. Atkinson, C. Bannwarth, F. Bohle, G. Brandenburg, E. Caldeweyher
   M. Checinski, S. Dohm, S. Ehlert, S. Ehrlich, I. Gerasimov, C. Hölzer
   A. Katbashev, J. Kohn, J. Koopman, C. Lavigne, S. Lehtola, F. März, M. Müller,
   F. Musil, H. Neugebauer, J. Pisarek, C. Plett, P. Pracht, F. Pultar,
   J. Seibert, P. Shushkov, S. Spicher, M. Stahn, M. Steiner, T. Strunk,
   J. Stückrath, T. Rose, and J. Unsleber
   
 * started run on 2025/12/08 at 00:30:40.275     
   ID    Z sym.   atoms
    1    6 C      1-3, 5-18, 20-38, 40-49, 51-67, 69-73, 75-100
    2    7 N      4, 19, 39, 50, 68, 74, 127, 128, 131, 132
    3    1 H      101-126, 129, 130

           -------------------------------------------------
          |                Calculation Setup                |
           -------------------------------------------------

          program call               : xtb "C:\Users\LENOVO GAMING\Documents\GitHub\molecular-conductivity-sim\results\1.5nm-10Ndoped-7percent\xtbopt.xyz" --sp
          coordinate file            : C:\Users\LENOVO GAMING\Documents\GitHub\molecular-conductivity-sim\results\1.5nm-10Ndoped-7percent\xtbopt.xyz
          omp threads                :                    16


           -------------------------------------------------
          |                 G F N 2 - x T B                 |
           -------------------------------------------------

        Reference                      10.1021/acs.jctc.8b01176
      * Hamiltonian:
        H0-scaling (s, p, d)           1.850000    2.230000    2.230000
        zeta-weighting                 0.500000
      * Dispersion:
        s8                             2.700000
        a1                             0.520000
        a2                             5.000000
        s9                             5.000000
      * Repulsion:
        kExp                           1.500000    1.000000
        rExp                           1.000000
      * Coulomb:
        alpha                          2.000000
        third order                    shell-resolved
        anisotropic                    true
        a3                             3.000000
        a5                             4.000000
        cn-shift                       1.200000
        cn-exp                         4.000000
        max-rad                        5.000000

q/qsh data taken from xtbrestart
CAMM data taken from xtbrestart

          ...................................................
          :                      SETUP                      :
          :.................................................:
          :  # basis functions                 444          :
          :  # atomic orbitals                 444          :
          :  # shells                          236          :
          :  # electrons                       454          :
          :  max. iterations                   250          :
          :  Hamiltonian                  GFN2-xTB          :
          :  restarted?                       true          :
          :  GBSA solvation                  false          :
          :  PC potential                    false          :
          :  electronic temp.          300.0000000     K    :
          :  accuracy                    1.0000000          :
          :  -> integral cutoff          0.2500000E+02      :
          :  -> integral neglect         0.1000000E-07      :
          :  -> SCF convergence          0.1000000E-05 Eh   :
          :  -> wf. convergence          0.1000000E-03 e    :
          :  Broyden damping             0.4000000          :
          :  net charge                          0          :
          :  unpaired electrons                  0          :
          ...................................................

 iter      E             dE          RMSdq      gap      omega  full diag
   1   -250.1384790 -0.250138E+03  0.106E-04    0.09       0.0  T
   2   -250.1384785  0.520252E-06  0.126E-03    0.09       6.9  T
   3   -250.1384790 -0.523875E-06  0.177E-05    0.09     490.7  T
   4   -250.1384790 -0.615614E-10  0.107E-05    0.09     812.8  T

   *** convergence criteria satisfied after 4 iterations ***

         #    Occupation            Energy/Eh            Energy/eV
      -------------------------------------------------------------
         1        2.0000           -0.6769637             -18.4211
       ...           ...                  ...                  ...
       221        2.0000           -0.3439595              -9.3596
       222        2.0000           -0.3389462              -9.2232
       223        2.0000           -0.3276300              -8.9153
       224        2.0000           -0.3204496              -8.7199
       225        2.0000           -0.2914254              -7.9301
       226        2.0000           -0.2781896              -7.5699
       227        1.6818           -0.2691421              -7.3237 (HOMO)
       228        0.3182           -0.2659784              -7.2376 (LUMO)
       229        0.0000           -0.2563507              -6.9757
       230        0.0000           -0.2551684              -6.9435
       231        0.0000           -0.2515947              -6.8462
       232                         -0.2447132              -6.6590
       ...                                ...                  ...
       444                          0.8077596              21.9803
      -------------------------------------------------------------
                  HL-Gap            0.0031636 Eh            0.0861 eV
             Fermi-level           -0.2675602 Eh           -7.2807 eV

 SCC (total)                   0 d,  0 h,  0 min,  0.232 sec
 SCC setup                      ...        0 min,  0.001 sec (  0.431%)
 Dispersion                     ...        0 min,  0.006 sec (  2.586%)
 classical contributions        ...        0 min,  0.001 sec (  0.431%)
 integral evaluation            ...        0 min,  0.019 sec (  8.190%)
 iterations                     ...        0 min,  0.150 sec ( 64.655%)
 molecular gradient             ...        0 min,  0.052 sec ( 22.414%)
 printout                       ...        0 min,  0.003 sec (  1.293%)

         :::::::::::::::::::::::::::::::::::::::::::::::::::::
         ::                     SUMMARY                     ::
         :::::::::::::::::::::::::::::::::::::::::::::::::::::
         :: total energy            -245.607377377099 Eh    ::
         :: gradient norm              0.000668720128 Eh/a0 ::
         :: HOMO-LUMO gap              0.086087072472 eV    ::
         ::.................................................::
         :: SCC energy              -250.146553546675 Eh    ::
         :: -> isotropic ES            0.037387721921 Eh    ::
         :: -> anisotropic ES          0.029411541077 Eh    ::
         :: -> anisotropic XC          0.071826366903 Eh    ::
         :: -> dispersion             -0.288487706350 Eh    ::
         :: repulsion energy           4.539176169576 Eh    ::
         :: add. restraining           0.000000000000 Eh    ::
         :: total charge              -0.000000000000 e     ::
         :::::::::::::::::::::::::::::::::::::::::::::::::::::

           -------------------------------------------------
          |                Property Printout                |
           -------------------------------------------------

    * Orbital Energies and Occupations

         #    Occupation            Energy/Eh            Energy/eV
      -------------------------------------------------------------
         1        2.0000           -0.6769637             -18.4211
       ...           ...                  ...                  ...
       215        2.0000           -0.3684371             -10.0257
       216        2.0000           -0.3679569             -10.0126
       217        2.0000           -0.3660424              -9.9605
       218        2.0000           -0.3631010              -9.8805
       219        2.0000           -0.3599565              -9.7949
       220        2.0000           -0.3548783              -9.6567
       221        2.0000           -0.3439595              -9.3596
       222        2.0000           -0.3389462              -9.2232
       223        2.0000           -0.3276300              -8.9153
       224        2.0000           -0.3204496              -8.7199
       225        2.0000           -0.2914254              -7.9301
       226        2.0000           -0.2781896              -7.5699
       227        1.6818           -0.2691421              -7.3237 (HOMO)
       228        0.3182           -0.2659784              -7.2376 (LUMO)
       229        0.0000           -0.2563507              -6.9757
       230        0.0000           -0.2551684              -6.9435
       231        0.0000           -0.2515947              -6.8462
       232                         -0.2447132              -6.6590
       233                         -0.2414173              -6.5693
       234                         -0.2371398              -6.4529
       235                         -0.2335992              -6.3566
       236                         -0.2289721              -6.2306
       237                         -0.2232252              -6.0743
       238                         -0.2160371              -5.8787
       ...                                ...                  ...
       444                          0.8077596              21.9803
      -------------------------------------------------------------
                  HL-Gap            0.0031636 Eh            0.0861 eV
             Fermi-level           -0.2675602 Eh           -7.2807 eV

     #   Z          covCN         q      C6AA      α(0)
     1   6 C        2.912    -0.048    29.183     8.858
     2   6 C        2.913    -0.050    29.245     8.868
     3   6 C        2.978    -0.004    28.108     8.697
     4   7 N        2.699    -0.120    23.606     7.216
     5   6 C        2.914     0.008    27.842     8.652
     6   6 C        2.925     0.050    26.868     8.500
     7   6 C        2.916    -0.044    29.094     8.845
     8   6 C        2.977    -0.027    28.672     8.783
     9   6 C        2.913    -0.059    29.478     8.903
    10   6 C        2.979    -0.022    28.555     8.766
    11   6 C        2.990    -0.007    28.183     8.708
    12   6 C        2.910    -0.082    30.039     8.987
    13   6 C        2.994    -0.013    28.337     8.732
    14   6 C        2.927     0.046    26.970     8.517
    15   6 C        2.995    -0.014    28.353     8.735
    16   6 C        2.919    -0.092    30.299     9.027
    17   6 C        2.847     0.018    27.602     8.610
    18   6 C        2.914     0.029    27.356     8.577
    19   7 N        2.751    -0.015    21.549     6.894
    20   6 C        2.987    -0.021    28.514     8.759
    21   6 C        2.919     0.050    26.886     8.503
    22   6 C        2.993    -0.030    28.731     8.793
    23   6 C        2.992    -0.018    28.453     8.750
    24   6 C        2.913     0.060    26.652     8.465
    25   6 C        2.995    -0.011    28.273     8.722
    26   6 C        2.980     0.010    27.780     8.646
    27   6 C        2.850     0.011    27.775     8.638
    28   6 C        2.916     0.048    26.914     8.507
    29   6 C        2.917     0.060    26.650     8.466
    30   6 C        2.991    -0.003    28.088     8.694
    31   6 C        2.994    -0.014    28.351     8.734
    32   6 C        2.912     0.052    26.823     8.493
    33   6 C        2.988    -0.010    28.255     8.719
    34   6 C        2.992    -0.008    28.219     8.714
    35   6 C        2.993    -0.014    28.351     8.734
    36   6 C        2.982    -0.001    28.052     8.688
    37   6 C        2.910    -0.077    29.912     8.968
    38   6 C        2.992    -0.012    28.307     8.727
    39   7 N        2.702    -0.119    23.583     7.212
    40   6 C        2.991    -0.009    28.239     8.717
    41   6 C        2.997    -0.013    28.335     8.732
    42   6 C        2.923    -0.090    30.268     9.022
    43   6 C        2.991    -0.004    28.123     8.699
    44   6 C        2.910     0.057    26.724     8.477
    45   6 C        2.913    -0.043    29.064     8.840
    46   6 C        2.991    -0.007    28.179     8.708
    47   6 C        2.925    -0.082    30.040     8.988
    48   6 C        2.990    -0.020    28.490     8.756
    49   6 C        2.993    -0.024    28.586     8.770
    50   7 N        2.752     0.004    21.193     6.837
    51   6 C        2.978    -0.025    28.610     8.774
    52   6 C        2.992    -0.008    28.205     8.712
    53   6 C        2.988    -0.027    28.667     8.783
    54   6 C        2.991    -0.005    28.144     8.702
    55   6 C        2.918     0.061    26.627     8.462
    56   6 C        2.992    -0.011    28.276     8.723
    57   6 C        2.911    -0.070    29.739     8.942
    58   6 C        2.990    -0.018    28.451     8.750
    59   6 C        2.997    -0.016    28.403     8.742
    60   6 C        2.993    -0.012    28.300     8.726
    61   6 C        2.989    -0.017    28.434     8.747
    62   6 C        2.978    -0.003    28.087     8.693
    63   6 C        2.991    -0.009    28.226     8.715
    64   6 C        2.917    -0.036    28.888     8.814
    65   6 C        2.990    -0.011    28.283     8.724
    66   6 C        2.926    -0.082    30.062     8.992
    67   6 C        2.915     0.046    26.964     8.515
    68   7 N        2.755     0.010    21.090     6.821
    69   6 C        2.852    -0.002    28.073     8.684
    70   6 C        2.988    -0.018    28.451     8.750
    71   6 C        2.990    -0.003    28.095     8.695
    72   6 C        2.990    -0.009    28.233     8.716
    73   6 C        2.922     0.056    26.753     8.482
    74   7 N        2.700    -0.104    23.273     7.165
    75   6 C        2.993    -0.004    28.119     8.699
    76   6 C        2.932     0.044    27.012     8.524
    77   6 C        2.936     0.036    27.202     8.554
    78   6 C        2.991     0.000    28.010     8.682
    79   6 C        2.922    -0.097    30.428     9.046
    80   6 C        2.977    -0.028    28.701     8.788
    81   6 C        2.991    -0.008    28.214     8.713
    82   6 C        2.991    -0.007    28.190     8.709
    83   6 C        2.979     0.019    27.587     8.616
    84   6 C        2.931     0.042    27.069     8.533
    85   6 C        2.918     0.043    27.033     8.526
    86   6 C        2.935     0.031    27.309     8.570
    87   6 C        2.912    -0.052    29.295     8.875
    88   6 C        2.993    -0.010    28.246     8.718
    89   6 C        2.994    -0.010    28.258     8.720
    90   6 C        2.991    -0.006    28.169     8.706
    91   6 C        2.920    -0.071    29.769     8.947
    92   6 C        2.990    -0.006    28.156     8.704
    93   6 C        2.847     0.025    27.451     8.587
    94   6 C        2.991    -0.011    28.279     8.723
    95   6 C        2.935     0.043    27.037     8.528
    96   6 C        2.970    -0.016    28.396     8.741
    97   6 C        2.993    -0.008    28.199     8.711
    98   6 C        2.920    -0.054    29.338     8.882
    99   6 C        2.988    -0.011    28.288     8.725
   100   6 C        2.990    -0.005    28.150     8.703
   101   1 H        0.925     0.002     3.026     2.720
   102   1 H        0.926     0.021     2.711     2.575
   103   1 H        0.860     0.166     1.300     1.786
   104   1 H        0.860     0.175     1.243     1.746
   105   1 H        0.926     0.021     2.715     2.577
   106   1 H        0.926     0.010     2.890     2.658
   107   1 H        0.926     0.029     2.601     2.522
   108   1 H        0.926     0.013     2.837     2.634
   109   1 H        0.926     0.035     2.515     2.480
   110   1 H        0.926     0.039     2.462     2.454
   111   1 H        0.926     0.032     2.552     2.498
   112   1 H        0.860     0.163     1.319     1.799
   113   1 H        0.926     0.016     2.788     2.611
   114   1 H        0.925     0.007     2.945     2.684
   115   1 H        0.926     0.030     2.588     2.516
   116   1 H        0.926     0.035     2.520     2.482
   117   1 H        0.860     0.170     1.274     1.768
   118   1 H        0.926     0.022     2.697     2.568
   119   1 H        0.926     0.028     2.622     2.532
   120   1 H        0.926     0.028     2.609     2.526
   121   1 H        0.860     0.164     1.309     1.792
   122   1 H        0.926     0.016     2.802     2.618
   123   1 H        0.925     0.004     2.989     2.704
   124   1 H        0.926     0.016     2.801     2.617
   125   1 H        0.926     0.034     2.527     2.486
   126   1 H        0.926     0.020     2.740     2.589
   127   7 N        2.703    -0.127    23.760     7.239
   128   7 N        2.707    -0.135    23.930     7.265
   129   1 H        0.860     0.160     1.333     1.808
   130   1 H        0.860     0.162     1.322     1.801
   131   7 N        2.702    -0.102    23.252     7.162
   132   7 N        2.701    -0.097    23.131     7.143

 Mol. C6AA /au·bohr⁶  :     347609.164282
 Mol. C8AA /au·bohr⁸  :    9348527.482135
 Mol. α(0) /au        :        956.770071


Wiberg/Mayer (AO) data.
largest (>0.10) Wiberg bond orders for each atom

 ---------------------------------------------------------------------------
     #   Z sym  total        # sym  WBO       # sym  WBO       # sym  WBO
 ---------------------------------------------------------------------------
     1   6 C    3.939 --     7 C    1.575     8 C    1.250   101 H    0.959
     2   6 C    3.912 --     9 C    1.597    10 C    1.196   102 H    0.961
     3   6 C    3.929 --    11 C    1.253     7 C    1.250    10 C    1.239
     4   7 N    3.452 --    17 C    1.191    18 C    1.082   103 H    0.934
     5   6 C    3.891 --    18 C    1.401     9 C    1.218    19 N    1.038
     6   6 C    3.915 --    20 C    1.293    10 C    1.279    19 N    1.125
     7   6 C    3.946 --     1 C    1.575     3 C    1.250   105 H    0.961
     8   6 C    3.940 --    28 C    1.273     1 C    1.250    30 C    1.211
     9   6 C    3.921 --     2 C    1.597     5 C    1.218   106 H    0.957
    10   6 C    3.912 --     6 C    1.279     3 C    1.239     2 C    1.196
    11   6 C    3.960 --     3 C    1.253    30 C    1.252    33 C    1.239
    12   6 C    3.940 --    17 C    1.622    21 C    1.171   107 H    0.968
    13   6 C    3.962 --    21 C    1.378    18 C    1.188    22 C    1.160
    14   6 C    3.935 --    22 C    1.311    23 C    1.263    19 N    1.133
    15   6 C    3.943 --    25 C    1.271    24 C    1.240    22 C    1.206
    16   6 C    3.921 --    24 C    1.392    26 C    1.318   108 H    0.966
    17   6 C    3.906 --    12 C    1.622     4 N    1.191   109 H    0.967
    18   6 C    3.871 --     5 C    1.401    13 C    1.188     4 N    1.082
    19   7 N    3.548 --    14 C    1.133     6 C    1.125     5 C    1.038
    20   6 C    3.929 --     6 C    1.293    33 C    1.215    43 C    1.209
    21   6 C    3.858 --    13 C    1.378    12 C    1.171   127 N    1.135
    22   6 C    3.885 --    14 C    1.311    15 C    1.206    13 C    1.160
    23   6 C    3.941 --    14 C    1.263    43 C    1.239    52 C    1.215
    24   6 C    3.910 --    16 C    1.392    15 C    1.240   127 N    1.130
    25   6 C    3.964 --    15 C    1.271    52 C    1.252    59 C    1.219
    26   6 C    3.939 --    16 C    1.318    66 C    1.253    59 C    1.218
    27   6 C    3.819 --    37 C    1.537   132 N    1.206   110 H    0.968
    28   6 C    3.880 --    38 C    1.274     8 C    1.273   132 N    1.131
    29   6 C    3.806 --    37 C    1.258    38 C    1.241    39 N    1.181
    30   6 C    3.941 --    40 C    1.269    11 C    1.252     8 C    1.211
    31   6 C    3.920 --    40 C    1.264    41 C    1.230    38 C    1.211
    32   6 C    3.929 --    42 C    1.436    41 C    1.228    39 N    1.105
    33   6 C    3.940 --    72 C    1.276    11 C    1.239    20 C    1.215
    34   6 C    3.956 --    75 C    1.300    72 C    1.227    40 C    1.210
    35   6 C    3.940 --    41 C    1.260    77 C    1.259    75 C    1.214
    36   6 C    3.951 --    77 C    1.290    42 C    1.272    79 C    1.221
    37   6 C    3.949 --    27 C    1.537    29 C    1.258   111 H    0.967
    38   6 C    3.958 --    28 C    1.274    29 C    1.241    31 C    1.211
    39   7 N    3.448 --    29 C    1.181    32 C    1.105   112 H    0.940
    40   6 C    3.964 --    30 C    1.269    31 C    1.264    34 C    1.210
    41   6 C    3.950 --    35 C    1.260    31 C    1.230    32 C    1.228
    42   6 C    3.905 --    32 C    1.436    36 C    1.272   113 H    0.967
    43   6 C    3.937 --    81 C    1.282    23 C    1.239    20 C    1.209
    44   6 C    3.941 --    79 C    1.456    86 C    1.197   128 N    1.132
    45   6 C    3.953 --    87 C    1.591    80 C    1.242   114 H    0.959
    46   6 C    3.945 --    82 C    1.269    81 C    1.232    72 C    1.232
    47   6 C    3.956 --    83 C    1.513    73 C    1.207   115 H    0.966
    48   6 C    3.943 --    84 C    1.297    82 C    1.214    75 C    1.212
    49   6 C    3.940 --    85 C    1.292    76 C    1.271    83 C    1.147
    50   7 N    3.582 --    77 C    1.125    86 C    1.117    84 C    1.112
    51   6 C    3.959 --    85 C    1.277    78 C    1.243    87 C    1.223
    52   6 C    3.964 --    88 C    1.274    25 C    1.252    23 C    1.215
    53   6 C    3.904 --    86 C    1.337    94 C    1.186    89 C    1.163
    54   6 C    3.952 --    90 C    1.287    88 C    1.229    81 C    1.224
    55   6 C    3.953 --    91 C    1.387    89 C    1.270   128 N    1.126
    56   6 C    3.955 --    82 C    1.255    92 C    1.247    90 C    1.236
    57   6 C    3.952 --    93 C    1.641    83 C    1.158   116 H    0.968
    58   6 C    3.919 --    84 C    1.266    92 C    1.263    94 C    1.189
    59   6 C    3.956 --    95 C    1.289    25 C    1.219    26 C    1.218
    60   6 C    3.920 --    94 C    1.361   100 C    1.202    96 C    1.142
    61   6 C    3.949 --    95 C    1.279    88 C    1.227    97 C    1.219
    62   6 C    3.942 --    98 C    1.337    89 C    1.301    96 C    1.122
    63   6 C    3.956 --    97 C    1.296    99 C    1.233    90 C    1.210
    64   6 C    3.961 --    98 C    1.476    91 C    1.390   118 H    0.972
    65   6 C    3.946 --   100 C    1.270    99 C    1.229    92 C    1.228
    66   6 C    3.891 --    73 C    1.447    26 C    1.253   119 H    0.966
    67   6 C    3.888 --    80 C    1.271   100 C    1.269    74 N    1.146
    68   7 N    3.609 --    76 C    1.142    73 C    1.115    95 C    1.113
    69   6 C    3.831 --    96 C    1.510    74 N    1.180   120 H    0.961
    70   6 C    3.967 --    76 C    1.276    78 C    1.251    97 C    1.209
    71   6 C    3.961 --    99 C    1.275    78 C    1.252    80 C    1.213
    72   6 C    3.949 --    33 C    1.276    46 C    1.232    34 C    1.227
    73   6 C    3.931 --    66 C    1.447    47 C    1.207    68 N    1.115
    74   7 N    3.462 --    69 C    1.180    67 C    1.146   121 H    0.933
    75   6 C    3.941 --    34 C    1.300    35 C    1.214    48 C    1.212
    76   6 C    3.926 --    70 C    1.276    49 C    1.271    68 N    1.142
    77   6 C    3.921 --    36 C    1.290    35 C    1.259    50 N    1.125
    78   6 C    3.971 --    71 C    1.252    70 C    1.251    51 C    1.243
    79   6 C    3.879 --    44 C    1.456    36 C    1.221   122 H    0.966
    80   6 C    3.944 --    67 C    1.271    45 C    1.242    71 C    1.213
    81   6 C    3.956 --    43 C    1.282    46 C    1.232    54 C    1.224
    82   6 C    3.951 --    46 C    1.269    56 C    1.255    48 C    1.214
    83   6 C    3.967 --    47 C    1.513    57 C    1.158    49 C    1.147
    84   6 C    3.897 --    48 C    1.297    58 C    1.266    50 N    1.112
    85   6 C    3.884 --    49 C    1.292    51 C    1.277   131 N    1.115
    86   6 C    3.880 --    53 C    1.337    44 C    1.197    50 N    1.117
    87   6 C    3.939 --    45 C    1.591    51 C    1.223   123 H    0.958
    88   6 C    3.946 --    52 C    1.274    54 C    1.229    61 C    1.227
    89   6 C    3.969 --    62 C    1.301    55 C    1.270    53 C    1.163
    90   6 C    3.938 --    54 C    1.287    56 C    1.236    63 C    1.210
    91   6 C    3.945 --    64 C    1.390    55 C    1.387   124 H    0.968
    92   6 C    3.953 --    58 C    1.263    56 C    1.247    65 C    1.228
    93   6 C    3.938 --    57 C    1.641   131 N    1.209   125 H    0.966
    94   6 C    3.961 --    60 C    1.361    58 C    1.189    53 C    1.186
    95   6 C    3.895 --    59 C    1.289    61 C    1.279    68 N    1.113
    96   6 C    3.953 --    69 C    1.510    60 C    1.142    62 C    1.122
    97   6 C    3.935 --    63 C    1.296    61 C    1.219    70 C    1.209
    98   6 C    3.965 --    64 C    1.476    62 C    1.337   126 H    0.965
    99   6 C    3.964 --    71 C    1.275    63 C    1.233    65 C    1.229
   100   6 C    3.955 --    65 C    1.270    67 C    1.269    60 C    1.202
   101   1 H    0.999 --     1 C    0.959
   102   1 H    0.998 --     2 C    0.961
   103   1 H    0.972 --     4 N    0.934
   104   1 H    0.969 --   132 N    0.930
   105   1 H    0.999 --     7 C    0.961
   106   1 H    0.999 --     9 C    0.957
   107   1 H    0.999 --    12 C    0.968
   108   1 H    0.999 --    16 C    0.966
   109   1 H    0.998 --    17 C    0.967
   110   1 H    0.997 --    27 C    0.968
   111   1 H    0.998 --    37 C    0.967
   112   1 H    0.973 --    39 N    0.940
   113   1 H    0.999 --    42 C    0.967
   114   1 H    0.999 --    45 C    0.959
   115   1 H    0.998 --    47 C    0.966
   116   1 H    0.998 --    57 C    0.968
   117   1 H    0.971 --   131 N    0.931
   118   1 H    0.998 --    64 C    0.972
   119   1 H    0.998 --    66 C    0.966
   120   1 H    0.998 --    69 C    0.961
   121   1 H    0.972 --    74 N    0.933
   122   1 H    0.999 --    79 C    0.966
   123   1 H    0.999 --    87 C    0.958
   124   1 H    0.999 --    91 C    0.968
   125   1 H    0.998 --    93 C    0.966
   126   1 H    0.999 --    98 C    0.965
   127   7 N    3.424 --    21 C    1.135    24 C    1.130   129 H    0.942
   128   7 N    3.459 --    44 C    1.132    55 C    1.126   130 H    0.940
   129   1 H    0.973 --   127 N    0.942
   130   1 H    0.973 --   128 N    0.940
   131   7 N    3.499 --    93 C    1.209    85 C    1.115   117 H    0.931
   132   7 N    3.460 --    27 C    1.206    28 C    1.131   104 H    0.930
 ---------------------------------------------------------------------------

Topologies differ in total number of bonds
Writing topology from bond orders to xtbtopo.mol

molecular dipole:
                 x           y           z       tot (Debye)
 q only:       -0.045      -0.967      -0.029
   full:       -0.207      -1.008      -0.033       2.616
molecular quadrupole (traceless):
                xx          xy          yy          xz          yz          zz
 q only:       28.403      34.384      37.195      -0.201       0.563     -65.598
  q+dip:       54.579      36.750      71.692      -0.259       0.595    -126.272
   full:       38.496      36.943      56.305      -0.248       0.624     -94.801


           -------------------------------------------------
          | TOTAL ENERGY             -245.607377377099 Eh   |
          | GRADIENT NORM               0.000668720128 Eh/α |
          | HOMO-LUMO GAP               0.086087072472 eV   |
           -------------------------------------------------

------------------------------------------------------------------------
 * finished run on 2025/12/08 at 00:30:40.568     
------------------------------------------------------------------------
 total:
 * wall-time:     0 d,  0 h,  0 min,  0.291 sec
 *  cpu-time:     0 d,  0 h,  0 min,  4.031 sec
 * ratio c/w:    13.853 speedup
 SCF:
 * wall-time:     0 d,  0 h,  0 min,  0.234 sec
 *  cpu-time:     0 d,  0 h,  0 min,  3.406 sec
 * ratio c/w:    14.557 speedup

normal termination of xtb
