132
 energy: -245.607377376600 gnorm: 0.000667520126 xtb: 6.7.1pre (5071a88)
C           -2.84857631883374       -7.31369487002286       -0.00698801611332
C            1.43867388988634       -7.33457113022116        0.07166817400577
C           -0.72646870535240       -6.12015339098053        0.01603394347705
N            5.67701645492290       -7.27387745814607       -0.02293703692902
C            3.53572276459188       -6.11119773169133        0.02448127002813
C            1.41076272641455       -4.90229777246746        0.01973268258620
C           -1.48743829569495       -7.31523466723293        0.00267376864653
C           -3.59147749748668       -6.11040114943383       -0.00428698574545
C            2.79072796324485       -7.31641851987610        0.06651141976776
C            0.69434625901770       -6.12113579591301        0.03246445292972
C           -1.43857176942529       -4.89615378450893        0.00818327544144
C            7.74493456865904       -6.10629278513223       -0.03334724110007
C            5.64848113424081       -4.88553226870660       -0.00986251543371
C            3.49958454715228       -3.69105850427529        0.00903765767414
C            5.62248622650727       -2.44820949039138       -0.00453670851939
C            7.73854102943227       -1.26091270977287       -0.01463364011755
C            7.04281171341486       -7.26088688429192       -0.03635427214426
C            4.91673822277380       -6.10258888354115       -0.00358445140194
N            2.80467537631176       -4.89057889987544        0.01838423258360
C            0.70336622207279       -3.68589579882013        0.01144691527818
C            7.03030660748623       -4.86926873571513       -0.02180049090829
C            4.89803829692602       -3.67238093069949       -0.00009239567272
C            2.80823433816497       -2.46211362292151        0.00795222178007
C            7.03560885759605       -2.45240762178863       -0.01344120532061
C            4.93276122278808       -1.22349506725023       -0.00034987742981
C            7.06819013523906       -0.03362262901204       -0.00880594635751
C           -7.12647731457788       -7.19614036116317       -0.01559391268352
C           -4.99982686599503       -6.06814891019632       -0.00864988265957
C           -7.09645226124978       -4.80320990722187       -0.01386610032747
C           -2.85665934756185       -4.88557701197081        0.00063078125949
C           -4.94912343934143       -3.62584426651934       -0.00638760318353
C           -7.06178794741903       -2.38175230923293       -0.01154688969410
C           -0.72074067145585       -3.67452520806120        0.00930013973375
C           -2.82675037547562       -2.42819916736036        0.00161051336967
C           -4.93850415883988       -1.17927317247882       -0.00446976131727
C           -7.03699583043959        0.04335355186847       -0.00880423698505
C           -7.81188507980608       -6.01694117471515       -0.01704918476437
C           -5.68311044795080       -4.83815044086307       -0.00961203336080
N           -7.72871607268467       -3.59443947445972       -0.01474359516175
C           -3.54250180119835       -3.65421982188185       -0.00142406879543
C           -5.64929792560509       -2.39646977188509       -0.00752671150161
C           -7.73288095763612       -1.18269183988193       -0.01199260004611
C            1.39731936780596       -2.44552245591410        0.00874883707543
C           -7.02792175385172        2.44879565303504       -0.00588122708599
C            1.48539908257879        7.33582405550903        0.00743346553072
C           -0.71105826844420       -1.21360137212033        0.00568184116280
C            7.75294664880563        3.63227496991158       -0.00580186677114
C           -2.82944738178816        0.02556358866279        0.00138376369884
C            5.67917419329152        4.85031844219153        0.00004560505596
N           -4.92584853935957        1.24615273838828       -0.00274459803697
C            3.58190285122793        6.11802566053082        0.00452198195048
C            3.52400423782366       -1.23283596135743        0.00419159374016
C           -4.92380193573542        3.67304651783353       -0.00108208747380
C            1.41758337210893        0.00443665739992        0.00558989314063
C           -7.04744511046159        4.88591096650406       -0.00343199230884
C           -0.69534249413437        1.22970168412596        0.00416849123999
C            7.79956103950722        6.09675837668479       -0.00315677046343
C           -2.81404289330562        2.45561026034975        0.00156022318027
C            5.65084770158145        0.00116256721471       -0.00285641388319
C           -2.81598725285606        4.90564949130717        0.00248602702009
C            3.54965489444166        1.21952007200646        0.00272508702786
C           -4.96943650206965        6.15292532039540        0.00055745425789
C            1.43226823841705        2.45101477327221        0.00447308231972
C           -7.11444097064271        7.27760011706727       -0.00132412910834
C           -0.68800015379233        3.68011515567047        0.00413286928349
C            7.72691086670468        1.21006816610503       -0.00938312383716
C           -0.67642490542262        6.11651250666416        0.00499405297503
N            5.65314274422117        2.42836681884023       -0.00167009827833
C           -2.77480507765136        7.30816166484143        0.00333312177052
C            3.56116924351056        3.65917104610857        0.00284227211709
C            1.44337727229085        4.89850576165222        0.00504620817937
C           -1.41051540478171       -2.44511452185542        0.00564479690829
C            7.04227466657266        2.40272022057883       -0.00552116204954
N           -1.40863956123073        7.27789887288127        0.00474310802914
C           -3.52197251581081       -1.21053887789163       -0.00038567392198
C            4.97037467072047        3.63178765252651        0.00053703140812
C           -5.63039362630146        0.05039096240599       -0.00538008623568
C            2.86384307872829        4.89330842254858        0.00427173064137
C           -7.73277399786063        1.27612768941474       -0.00883872233401
C            0.73208304229292        6.13611528035627        0.00587193350847
C            0.70478463178536       -1.22249078263124        0.00675876220330
C           -1.40801699482343        0.01254925506290        0.00383096125347
C            7.11679883908985        4.83607296283177       -0.00297273592551
C           -3.53310646237560        1.24069449421862        0.00005154888829
C            4.98682103835294        6.07219498684857        0.00231087256587
C           -5.60554219628690        2.45777968305217       -0.00314547585794
C            2.84322808145742        7.33144768650030        0.00684864857736
C            2.83439630600174       -0.00713470424974        0.00444358323906
C           -5.64050409734805        4.91410153490067       -0.00131320938067
C            0.71861351703007        1.22277989168218        0.00488970471121
C           -7.78176928825492        6.05902114995562       -0.00343436335119
C           -1.40197438289576        2.45219726458263        0.00333191500700
C            7.09029474792482        7.24243734881484       -0.00079557064941
C           -3.50379857060579        3.70064820805043        0.00105257173347
C            4.95608670580084        1.22383709963655       -0.00023921985311
C           -3.52086858064975        6.16461562358177        0.00222405303823
C            2.83297530324016        2.44148901136793        0.00349761559041
C           -5.73888073591455        7.32498873279575        0.00058676534429
C            0.73151649255333        3.68102060241043        0.00464383492883
C           -1.38920773314102        4.90195591374797        0.00393765172577
H           -3.35844856324225       -8.26852445898373       -0.01867735590585
H            0.93182900743968       -8.28263309552873        0.11298166191871
H            5.19872147823431       -8.15784378658435       -0.04339537202999
H           -5.28619024586323       -8.10364044744917       -0.00970942560840
H           -0.98714974118234       -8.26998586259305       -0.00447377907496
H            3.32436454375056       -8.25369801986570        0.10409142222014
H            8.82193831106613       -6.11104010787675       -0.04109597498888
H            8.81926387949616       -1.27141442776888       -0.02050446844480
H            7.51895806807588       -8.22850887307088       -0.04809825399755
H           -7.62046313608647       -8.15373850164050       -0.01762745628832
H           -8.88988174799723       -6.01453016989925       -0.02042802842932
H           -8.73802908912714       -3.57721517050462       -0.01761422401521
H           -8.81305387798400       -1.16119486184681       -0.01479171261002
H            0.98280769592566        8.29367655991995        0.00929609506530
H            8.82989494748554        3.58039180391074       -0.00843628944681
H            8.87631999303791        6.11038166577412       -0.00528280749772
H            5.23627214471020        8.11352617383149        0.00305776799259
H           -7.68515804397404        8.19465716958870       -0.00124094334510
H            8.80495557012147        1.23990738916613       -0.01298933565053
H           -3.20390184356269        8.29559136741565        0.00311614346129
H           -0.91337843472287        8.15427883203655        0.00490972849208
H           -8.81176739291177        1.28035504310261       -0.01110422087599
H            3.35632289193691        8.28332749348964        0.00827060953379
H           -8.86165177393589        6.02055755229665       -0.00505223015665
H            7.55801705391799        8.21568575575111       -0.00091396284647
H           -5.25467932736162        8.28801378917026        0.00216248368383
N            7.69137738936326       -3.66335159329820       -0.02110154837689
N           -7.67531286579330        3.66175836315741       -0.00557502674842
H            8.69971041491820       -3.66286158304359       -0.02848081699996
H           -8.68409770545188        3.64670208275345       -0.00737899260081
N            5.73260651986128        7.23816818023103        0.00186747731399
N           -5.76455808102917       -7.21689377993573       -0.01134068185241
