132
 energy: -245.586525907462 gnorm: 0.078620847681 xtb: 6.7.1pre (5071a88)
C           -2.87334100000000       -7.37885000000000       -0.00651600000000
C            1.44931200000000       -7.40711000000000        0.07658200000000
C           -0.73395200000000       -6.17224200000000        0.01491600000000
N            5.72957700000000       -7.32993400000000       -0.02834400000000
C            3.56709600000000       -6.19034100000000        0.02650800000000
C            1.40451900000000       -4.94959700000000        0.01874200000000
C           -1.50614900000000       -7.38049600000000        0.00290200000000
C           -3.61903900000000       -6.16194600000000       -0.00468400000000
C            2.80870600000000       -7.39044400000000        0.07202500000000
C            0.69000900000000       -6.18406800000000        0.03285300000000
C           -1.45942200000000       -4.93856000000000        0.00620600000000
C            7.80650000000000       -6.15488400000000       -0.03214400000000
C            5.68865200000000       -4.93785600000000       -0.01055100000000
C            3.53518200000000       -3.71887300000000        0.01026300000000
C            5.65678000000000       -2.47332100000000       -0.00401000000000
C            7.78142600000000       -1.27026900000000       -0.01439000000000
C            7.10372100000000       -7.31557200000000       -0.03893200000000
C            4.95193900000000       -6.16284200000000       -0.00634200000000
N            2.80772800000000       -4.94252500000000        0.01949200000000
C            0.69661400000000       -3.72436300000000        0.00960100000000
C            7.06765700000000       -4.91802400000000       -0.02129400000000
C            4.91835100000000       -3.71193300000000        0.00055600000000
C            2.81783900000000       -2.48140300000000        0.00912000000000
C            7.06949800000000       -2.47347800000000       -0.01271500000000
C            4.96675900000000       -1.23499200000000        0.00031200000000
C            7.11508700000000       -0.03380900000000       -0.00889500000000
C           -7.17078400000000       -7.23273200000000       -0.01582100000000
C           -5.03798400000000       -6.11088800000000       -0.00882000000000
C           -7.14091200000000       -4.83672000000000       -0.01425700000000
C           -2.88418800000000       -4.92991300000000       -0.00028300000000
C           -4.98299800000000       -3.64989300000000       -0.00698100000000
C           -7.10715500000000       -2.39887600000000       -0.01182200000000
C           -0.73237300000000       -3.70492400000000        0.00783500000000
C           -2.84990500000000       -2.44412100000000        0.00062100000000
C           -4.96976800000000       -1.18989400000000       -0.00493100000000
C           -7.08879200000000        0.03579800000000       -0.00895500000000
C           -7.86946000000000       -6.05592100000000       -0.01748900000000
C           -5.72490100000000       -4.87528900000000       -0.01018800000000
N           -7.76911400000000       -3.63548300000000       -0.01498900000000
C           -3.57772800000000       -3.67870600000000       -0.00286500000000
C           -5.68800900000000       -2.41874500000000       -0.00814900000000
C           -7.78961600000000       -1.20049300000000       -0.01213500000000
C            1.41338000000000       -2.47039600000000        0.00892500000000
C           -7.08101900000000        2.46109600000000       -0.00591200000000
C            1.49965700000000        7.40737800000000        0.00798300000000
C           -0.71272500000000       -1.22358300000000        0.00530800000000
C            7.81433500000000        3.67080300000000       -0.00610800000000
C           -2.84633400000000        0.03202100000000        0.00105400000000
C            5.72154100000000        4.89939300000000        0.00004000000000
N           -4.96464400000000        1.25724100000000       -0.00287100000000
C            3.60890300000000        6.17767600000000        0.00469400000000
C            3.54599100000000       -1.24231300000000        0.00531300000000
C           -4.96086900000000        3.69822600000000       -0.00105300000000
C            1.43139700000000        0.00464400000000        0.00620300000000
C           -7.09768100000000        4.92571900000000       -0.00344800000000
C           -0.68939500000000        1.24204600000000        0.00428000000000
C            7.85671300000000        6.14855700000000       -0.00331000000000
C           -2.82175700000000        2.48405400000000        0.00159600000000
C            5.69199200000000       -0.00217400000000       -0.00250700000000
C           -2.83419800000000        4.94165200000000        0.00262800000000
C            3.58158100000000        1.23339100000000        0.00323300000000
C           -5.01190500000000        6.20358200000000        0.00059500000000
C            1.45516400000000        2.47488300000000        0.00481800000000
C           -7.17238800000000        7.33205400000000       -0.00144800000000
C           -0.68110800000000        3.71941200000000        0.00438800000000
C            7.78590500000000        1.22458000000000       -0.00983300000000
C           -0.67461400000000        6.16981700000000        0.00514100000000
N            5.69692700000000        2.45745800000000       -0.00158900000000
C           -2.79924700000000        7.36088200000000        0.00318100000000
C            3.58794400000000        3.69539900000000        0.00306700000000
C            1.45535500000000        4.94656100000000        0.00534600000000
C           -1.42492100000000       -2.46809600000000        0.00396000000000
C            7.11646000000000        2.42546500000000       -0.00590900000000
N           -1.42094300000000        7.33747100000000        0.00484700000000
C           -3.54820900000000       -1.22103900000000       -0.00130000000000
C            5.00337000000000        3.68172300000000        0.00067000000000
C           -5.67747200000000        0.03474400000000       -0.00571200000000
C            2.89089700000000        4.94225800000000        0.00454500000000
C           -7.78309400000000        1.28309600000000       -0.00887700000000
C            0.73847700000000        6.19177500000000        0.00623400000000
C            0.71086200000000       -1.23410600000000        0.00677100000000
C           -1.41144500000000        0.01362900000000        0.00344900000000
C            7.17547300000000        4.88019600000000       -0.00316100000000
C           -3.54024700000000        1.24670200000000       -0.00005600000000
C            5.02087500000000        6.13004100000000        0.00226900000000
C           -5.64272000000000        2.48872700000000       -0.00316600000000
C            2.86192800000000        7.40195800000000        0.00726300000000
C            2.85441500000000       -0.00830200000000        0.00537300000000
C           -5.68204400000000        4.95382900000000       -0.00129000000000
C            0.72595500000000        1.23502400000000        0.00535200000000
C           -7.84319100000000        6.10336100000000       -0.00354800000000
C           -1.40848200000000        2.47573100000000        0.00351500000000
C            7.14264200000000        7.30147300000000       -0.00101000000000
C           -3.52143200000000        3.73196400000000        0.00115700000000
C            4.97992000000000        1.22882200000000        0.00014900000000
C           -3.54303600000000        6.21516500000000        0.00226700000000
C            2.85398900000000        2.46794800000000        0.00395200000000
C           -5.78489400000000        7.38487600000000        0.00057600000000
C            0.74421200000000        3.71631800000000        0.00506100000000
C           -1.39193800000000        4.94504200000000        0.00419900000000
H           -3.37907100000000       -8.34029800000000       -0.01801300000000
H            0.94199000000000       -8.36167100000000        0.12742000000000
H            5.27309400000000       -8.22805600000000       -0.06712000000000
H           -5.35996400000000       -8.16001500000000       -0.00915300000000
H           -1.00363800000000       -8.33996200000000       -0.00584900000000
H            3.33369300000000       -8.33889300000000        0.11862200000000
H            8.89003800000000       -6.16363400000000       -0.03817100000000
H            8.86884000000000       -1.28905900000000       -0.02032500000000
H            7.57389100000000       -8.29128800000000       -0.05323700000000
H           -7.65961400000000       -8.19890800000000       -0.01769700000000
H           -8.95255600000000       -6.06496000000000       -0.02084600000000
H           -8.78209500000000       -3.62604800000000       -0.01789200000000
H           -8.87593500000000       -1.18423600000000       -0.01477500000000
H            1.00052500000000        8.37147000000000        0.01046600000000
H            8.89852800000000        3.62275000000000       -0.00887700000000
H            8.94026200000000        6.18129900000000       -0.00543100000000
H            5.29668300000000        8.18637900000000        0.00202100000000
H           -7.74752100000000        8.25374600000000       -0.00142300000000
H            8.87066500000000        1.25603400000000       -0.01358300000000
H           -3.22488700000000        8.35494000000000        0.00269700000000
H           -0.94456500000000        8.22554300000000        0.00316200000000
H           -8.86897200000000        1.29131600000000       -0.01110800000000
H            3.36997300000000        8.36108800000000        0.00910800000000
H           -8.92905100000000        6.06060700000000       -0.00521000000000
H            7.60196900000000        8.28264900000000       -0.00123300000000
H           -5.29961600000000        8.35499400000000        0.00219900000000
N            7.73402500000000       -3.70159400000000       -0.01953800000000
N           -7.72287200000000        3.68520700000000       -0.00550700000000
H            8.74390300000000       -3.70209700000000       -0.02714800000000
H           -8.73433600000000        3.67112900000000       -0.00718400000000
N            5.77203300000000        7.29744900000000        0.00173700000000
N           -5.81630000000000       -7.25777400000000       -0.01153900000000
132
 energy: -245.599915036322 gnorm: 0.046536968165 xtb: 6.7.1pre (5071a88)
C           -2.86588083926626       -7.35001186973027       -0.00682187911207
C            1.44628415548679       -7.37623247852998        0.07674691422574
C           -0.73137201891660       -6.15286028799046        0.01540921790722
N            5.71288800322220       -7.30855411366954       -0.02770650784610
C            3.55694021463474       -6.16020141516807        0.02578484079347
C            1.41077329471282       -4.93316426103234        0.01929204318117
C           -1.50322905750741       -7.35180103030991        0.00244826987148
C           -3.61085193056366       -6.14078409897559       -0.00459119791440
C            2.80120182093779       -7.35987902092384        0.07169258372124
C            0.69151011491164       -6.16009185334785        0.03304643215740
C           -1.45124066130938       -4.92361591034435        0.00671975560819
C            7.78251358449914       -6.13612957521568       -0.03256230854820
C            5.67445498084094       -4.91885278032175       -0.01027331177462
C            3.52285486981915       -3.71075164981751        0.00955978418216
C            5.64395724790591       -2.46425655605651       -0.00399321017066
C            7.76100328974351       -1.26806118004066       -0.01430495601520
C            7.08278006703027       -7.29303654764361       -0.03941039708889
C            4.93933726832202       -6.14072158974534       -0.00584590125948
N            2.80827597680173       -4.92451700857766        0.01887170582427
C            0.70127349527014       -3.71200513699451        0.01038930313563
C            7.05366997882553       -4.89918320243134       -0.02111026475616
C            4.91099451740973       -3.69860249750872        0.00023133695898
C            2.81506329214455       -2.47559784766559        0.00872696123433
C            7.05500918916350       -2.46621894881604       -0.01266070601886
C            4.95387873544545       -1.23127655699478        0.00031029834498
C            7.09472759024349       -0.03484789704845       -0.00877533510033
C           -7.15792233254612       -7.21797708006849       -0.01570584110821
C           -5.02370147740375       -6.09559219419914       -0.00877428225338
C           -7.12366064960342       -4.82402957424863       -0.01416723628156
C           -2.87251078179127       -4.91394279299273       -0.00038887630319
C           -4.96986522356095       -3.64243553092881       -0.00697477365434
C           -7.08841641498106       -2.39117795563094       -0.01176318598221
C           -0.72636145678696       -3.69493086631123        0.00785931633326
C           -2.84025113709509       -2.44006348009663        0.00049935206323
C           -4.95670177081600       -1.18534524603345       -0.00493033986592
C           -7.06628729354097        0.03993794635689       -0.00889354027841
C           -7.84841433214453       -6.04147615231685       -0.01734431393371
C           -5.70959284610458       -4.86329197611042       -0.01005480745480
N           -7.75319011223179       -3.61836406954212       -0.01493557854106
C           -3.56348162561848       -3.67150232032881       -0.00259306240005
C           -5.67252228464498       -2.41059781419230       -0.00803232698602
C           -7.76454541584179       -1.19284559235398       -0.01206968816901
C            1.40796493464800       -2.46221775723653        0.00871942998254
C           -7.05975003953434        2.45782933044497       -0.00587825172275
C            1.49756149238503        7.37602947777211        0.00794108097681
C           -0.71157789525467       -1.22017642644998        0.00513207446726
C            7.78826403612829        3.65875666199901       -0.00606271338757
C           -2.84022532641969        0.03002360455395        0.00097084807006
C            5.70689135367877        4.88158755962572        0.00002187162873
N           -4.94946681563223        1.25429188499132       -0.00286810659853
C            3.60234473270954        6.15376152473153        0.00465390700068
C            3.53817688743358       -1.23903302549812        0.00512592065629
C           -4.94761014309257        3.68967613677711       -0.00105546819058
C            1.42653523630453        0.00453014047550        0.00609559406391
C           -7.07799310853127        4.91081981816864       -0.00342352104490
C           -0.69233896471598        1.23793107032791        0.00425403905978
C            7.83504950283977        6.13056223139058       -0.00330459519799
C           -2.81999391876383        2.47444715850557        0.00159114087789
C            5.67575477168246       -0.00121728328301       -0.00247149239781
C           -2.82871495006598        4.92874359752514        0.00261413274105
C            3.57105122579516        1.22937182240172        0.00323068707456
C           -4.99857353766300        6.18345609495742        0.00057819929350
C            1.44651791038649        2.46757594215201        0.00483758033361
C           -7.15251221645487        7.30642103418391       -0.00142352009403
C           -0.68477707371805        3.70565262572946        0.00437474278376
C            7.75891390753622        1.21956085618872       -0.00970610853159
C           -0.67572625048884        6.14964677940085        0.00510274426800
N            5.68053707946074        2.44764743166469       -0.00157339134903
C           -2.79205965705151        7.33732742053611        0.00314260498076
C            3.58000644373214        3.68346449141501        0.00306114282101
C            1.45215707563880        4.92935669149354        0.00531140224246
C           -1.41828673777830       -2.46085411687076        0.00430483307321
C            7.08639685497027        2.41771541858714       -0.00577643493785
N           -1.41850497614360        7.31262559079991        0.00477491208259
C           -3.53781688326513       -1.21818706391828       -0.00118531912192
C            4.99351423465911        3.66308196224798        0.00064587040490
C           -5.65815211649027        0.04266539314507       -0.00563193314894
C            2.88193339872346        4.92453584353225        0.00448623769286
C           -7.76030853627388        1.28226569397959       -0.00882834199299
C            0.73580521871805        6.17005373708298        0.00615107445230
C            0.70872153863439       -1.23029951484611        0.00672054665107
C           -1.41001253935711        0.01297212400254        0.00348853314023
C            7.15323723374285        4.86546865220590       -0.00312786559979
C           -3.53871399583159        1.24463134038832       -0.00009581047552
C            5.01126225124530        6.10928766521308        0.00225505156448
C           -5.62735192815163        2.47697465014440       -0.00316306545693
C            2.85636433053333        7.37091804543004        0.00725365854485
C            2.84729652914253       -0.00770560761299        0.00520882790408
C           -5.66725746484553        4.93941900656583       -0.00128343914032
C            0.72300626880284        1.23123309255250        0.00525314594936
C           -7.81867986604367        6.08465332604364       -0.00351612545577
C           -1.40711503783654        2.46792478661842        0.00346326952263
C            7.12605660308023        7.27834309960461       -0.00103302707164
C           -3.51546349272457        3.72118960595776        0.00114720395536
C            4.97221472362293        1.22861671230501        0.00013274691377
C           -3.53790582457989        6.19493439994643        0.00225270247628
C            2.84674949442990        2.45992690035094        0.00390030884966
C           -5.77306602260222        7.35692899443719        0.00056236439929
C            0.73892560111701        3.70504196400325        0.00496192218147
C           -1.39246267251519        4.92946603956343        0.00414579328741
H           -3.37472894548814       -8.30801892376781       -0.01776774900635
H            0.94157231569161       -8.32865470494232        0.12418069617154
H            5.25335534251572       -8.20374646556207       -0.06357660778224
H           -5.33946190969805       -8.14131542661598       -0.00920077031389
H           -1.00410028034955       -8.30996332687607       -0.00502754738315
H            3.32844330549065       -8.30508022163233        0.11502455773969
H            8.86190593470707       -6.14476182714393       -0.03770702550564
H            8.84448771746440       -1.28561049334669       -0.02020005466356
H            7.55680354044339       -8.26466406226917       -0.05237525683376
H           -7.65200761213050       -8.17905414767355       -0.01767500309478
H           -8.92810786689857       -6.04715945430532       -0.02076993139177
H           -8.76443254457409       -3.60682645048769       -0.01781580085989
H           -8.84742378853117       -1.17598602403480       -0.01471601185039
H            0.99812430720285        8.33784326203790        0.01025864111728
H            8.86925156495171        3.61275594244499       -0.00881221498758
H            8.91469735946138        6.15992156050433       -0.00538863204868
H            5.28345459799709        8.16133898585069        0.00214707033036
H           -7.72673316863240        8.22503528051834       -0.00140854003792
H            8.84048358776451        1.24838591508717       -0.01350045645410
H           -3.21745679565055        8.32909613421096        0.00273016884366
H           -0.93861211464103        8.19853393248377        0.00337597309318
H           -8.84252527493345        1.28833479183469       -0.01104889567315
H            3.36691248619320        8.32705110934716        0.00896332317050
H           -8.90106288871258        6.04739426041957       -0.00517590134133
H            7.58936698354417        8.25577811217129       -0.00120091932467
H           -5.29445074980733        8.32547781228923        0.00216801304716
N            7.71711939257012       -3.68722243529604       -0.01947066041097
N           -7.70380670753035        3.67781653537452       -0.00549494300013
H            8.72593313625607       -3.68884894674152       -0.02705058085958
H           -8.71437512413051        3.66548976944174       -0.00719179187858
N            5.76166759783656        7.27470720654827        0.00170925234616
N           -5.79968930343394       -7.24338332237626       -0.01144730333532
132
 energy: -245.606521593879 gnorm: 0.013427488857 xtb: 6.7.1pre (5071a88)
C           -2.85576986372755       -7.32318170961893       -0.00668641410150
C            1.44137230051374       -7.34596053462484        0.07553782544518
C           -0.72842254256288       -6.13159659582028        0.01593196749164
N            5.69193020183808       -7.28653406292163       -0.02674681705861
C            3.54402902644408       -6.12635101381274        0.02482239571638
C            1.41495464499717       -4.91379563091170        0.01953546782840
C           -1.49503579497347       -7.32488066908880        0.00291444077613
C           -3.60102316209678       -6.11970648909006       -0.00453208041233
C            2.79385298528794       -7.32932244664519        0.07000695258438
C            0.69329466064986       -6.13381103824883        0.03315410261010
C           -1.44273947147483       -4.90619798495303        0.00724286754171
C            7.75797433349083       -6.11545475940540       -0.03256042407270
C            5.65805369817301       -4.89733824134548       -0.01005981670940
C            3.50694597309400       -3.70072964219319        0.00919622155049
C            5.62923049112431       -2.45416611145195       -0.00399872782224
C            7.74306812748188       -1.26425503592593       -0.01421492441360
C            7.05852381368364       -7.27048807387522       -0.03904708906717
C            4.92508939665044       -6.11651469199374       -0.00514291772139
N            2.80805715815172       -4.90350776047441        0.01831537130818
C            0.70465593087519       -3.69603132756943        0.01085217143554
C            7.03908579789703       -4.87826869888039       -0.02106113249619
C            4.90271735370013       -3.68273387947008        0.00016998119453
C            2.81156955043550       -2.46846005455595        0.00829591349884
C            7.04108108024105       -2.45779285532129       -0.01266839456791
C            4.93932433252090       -1.22683261297446        0.00020259957918
C            7.07513737821676       -0.03463459056435       -0.00864763151136
C           -7.14256018849075       -7.20237961662318       -0.01560870705667
C           -5.00892767730098       -6.07858340372355       -0.00883938941949
C           -7.10591810583663       -4.80950195247728       -0.01407958585257
C           -2.86140977002364       -4.89540843731934       -0.00026596592494
C           -4.95612845920219       -3.63294070657658       -0.00697314201364
C           -7.06942437249746       -2.38432444489647       -0.01171089966371
C           -0.72150204302889       -3.68247786732756        0.00822019942160
C           -2.83045960596741       -2.43386021407885        0.00054980747093
C           -4.94307886719078       -1.18134895085178       -0.00491165926097
C           -7.04364665023368        0.04291221545277       -0.00884012158251
C           -7.82622490921166       -6.02432158234144       -0.01720723798486
C           -5.69333743202405       -4.84817324977300       -0.00995450930231
N           -7.73713310130753       -3.59983214930586       -0.01488348921358
C           -3.54866077000458       -3.66166065976643       -0.00235361719060
C           -5.65598153082435       -2.40151849526189       -0.00792487227570
C           -7.74012248182376       -1.18508195961731       -0.01200494301024
C            1.40075511958196       -2.45208556652974        0.00857460200790
C           -7.03713835429706        2.45239008512826       -0.00584700524978
C            1.49183286614826        7.34664555715477        0.00781339979485
C           -0.71076038539540       -1.21600499577872        0.00512124769421
C            7.76316046986046        3.64224672565010       -0.00601640638758
C           -2.83284397153127        0.02718558618843        0.00094569065910
C            5.69005765349856        4.86188226725778        0.00001847963899
N           -4.93225022771602        1.24944531476467       -0.00287300830429
C            3.59218385820882        6.12950572910678        0.00462123664222
C            3.52890805282115       -1.23557470367899        0.00477359957222
C           -4.93212884545276        3.67928617295889       -0.00105501416366
C            1.42107961367273        0.00451438589211        0.00590891299678
C           -7.05810482220366        4.89287958618555       -0.00340719962894
C           -0.69474022335150        1.23292808357764        0.00420219927943
C            7.81338231155295        6.10920465753648       -0.00328579995173
C           -2.81697847038884        2.46221563951764        0.00157885551057
C            5.65832330445019        0.00039231463592       -0.00244998815017
C           -2.82118403579434        4.91431006959552        0.00258934766566
C            3.55780059534460        1.22362248775535        0.00319574894542
C           -4.98139299514682        6.16268840278000        0.00057534557918
C            1.43695419987727        2.45773586379508        0.00480093359187
C           -7.13063976796675        7.28351191555464       -0.00139938814100
C           -0.68778165824625        3.68923805987151        0.00433680038874
C            7.73395177816312        1.21371280650367       -0.00957027079483
C           -0.67658224279151        6.12843306447851        0.00506883570043
N            5.66251141378212        2.43567285741729       -0.00155299704428
C           -2.78240912654518        7.31566863697170        0.00312220297121
C            3.56945301744827        3.66867316217807        0.00304804987488
C            1.44786547713143        4.90967400909206        0.00525693712470
C           -1.41194964878184       -2.45125085619405        0.00468819178870
C            7.05421546375861        2.40811686884682       -0.00565197325740
N           -1.41397317080959        7.28815420148738        0.00466993906410
C           -3.52641318981081       -1.21390452079536       -0.00105186020415
C            4.98105188613472        3.64148542697836        0.00063646440603
C           -5.63727447044654        0.05021139844144       -0.00556445317523
C            2.87098747064308        4.90447862927041        0.00443665993488
C           -7.73874808450213        1.27882011276306       -0.00878357508368
C            0.73317041670941        6.14767785350443        0.00606427845389
C            0.70645501619998       -1.22550844792482        0.00668301677269
C           -1.40836368919847        0.01271816279750        0.00351783205318
C            7.12975867144050        4.84717728749399       -0.00309909930555
C           -3.53681760793605        1.24214852834719       -0.00011193741656
C            4.99819144323196        6.08652373275113        0.00225988088422
C           -5.61115267241218        2.46265824604564       -0.00316264358147
C            2.84921123155108        7.34198421121878        0.00716506392048
C            2.83925179576687       -0.00712416967539        0.00498608896255
C           -5.65063039951826        4.92268794189114       -0.00127755723619
C            0.72061615156931        1.22627454856248        0.00513957717288
C           -7.79522813694603        6.06465540044723       -0.00348567657852
C           -1.40389305110052        2.45833293063196        0.00342377516747
C            7.10574777220201        7.25463941333002       -0.00101777811769
C           -3.50835518111169        3.70794918588115        0.00112446697633
C            4.96331996113036        1.22796154577912        0.00011365707706
C           -3.52986639431150        6.17402023529287        0.00223848531602
C            2.83852474915141        2.44893516069179        0.00383396285087
C           -5.75511287733862        7.33232505747894        0.00056395145482
C            0.73405112605308        3.69056372554123        0.00487719036038
C           -1.39156486161283        4.91199040237839        0.00408836837159
H           -3.36704895157364       -8.27819881803728       -0.01788617336478
H            0.93702681090060       -8.29624774393847        0.12057276696336
H            5.22552285589593       -8.17700472850091       -0.05842700753602
H           -5.31345969360316       -8.12032099032646       -0.00929169370153
H           -0.99672555100905       -8.28165839235337       -0.00407420881448
H            3.32548909464485       -8.26945329467857        0.11134378264653
H            8.83500400288716       -6.12263807190043       -0.03794140640985
H            8.82393655307012       -1.27890147123424       -0.02011665405758
H            7.53660414481853       -8.23812678100837       -0.05183241111908
H           -7.64020134211279       -8.15906506272908       -0.01760247998090
H           -8.90410822115898       -6.02500737255310       -0.02064103538116
H           -8.74672078363381       -3.58598820559612       -0.01772177873114
H           -8.82058107644374       -1.16620363919489       -0.01466819822099
H            0.99070689791859        8.30616027398697        0.01001396782144
H            8.84128913368518        3.59579509822679       -0.00874116741663
H            8.89044425333496        6.13143603943177       -0.00536818048836
H            5.26174355496101        8.13356410852086        0.00236039478844