      -----------------------------------------------------------      
     |                   =====================                   |     
     |                           x T B                           |     
     |                   =====================                   |     
     |                         S. Grimme                         |     
     |          Mulliken Center for Theoretical Chemistry        |     
     |                    University of Bonn                     |     
      -----------------------------------------------------------      

   * xtb version 6.7.1pre (5071a88) compiled by 'Marcel@Raven' on 2024-07-23

   xtb is free software: you can redistribute it and/or modify it under
   the terms of the GNU Lesser General Public License as published by
   the Free Software Foundation, either version 3 of the License, or
   (at your option) any later version.
   
   xtb is distributed in the hope that it will be useful,
   but WITHOUT ANY WARRANTY; without even the implied warranty of
   MERCHANTABILITY or FITNESS FOR A PARTICULAR PURPOSE.  See the
   GNU Lesser General Public License for more details.
   
   Cite this work as:
   * C. Bannwarth, E. Caldeweyher, S. Ehlert, A. Hansen, P. Pracht,
     J. Seibert, S. Spicher, S. Grimme, WIREs Comput. Mol. Sci., 2020, 11,
     e01493. DOI: 10.1002/wcms.1493
   
   for GFN2-xTB:
   * C. Bannwarth, S. Ehlert and S. Grimme., J. Chem. Theory Comput., 2019,
     15, 1652-1671. DOI: 10.1021/acs.jctc.8b01176
   for GFN1-xTB:
   * S. Grimme, C. Bannwarth, P. Shushkov, J. Chem. Theory Comput., 2017,
     13, 1989-2009. DOI: 10.1021/acs.jctc.7b00118
   for GFN0-xTB:
   * P. Pracht, E. Caldeweyher, S. Ehlert, S. Grimme, ChemRxiv, 2019, preprint.
     DOI: 10.26434/chemrxiv.8326202.v1
   for GFN-FF:
   * S. Spicher and S. Grimme, Angew. Chem. Int. Ed., 2020, 59, 15665-15673.
     DOI: 10.1002/anie.202004239
   
   for ALPB and GBSA implicit solvation:
   * S. Ehlert, M. Stahn, S. Spicher, S. Grimme, J. Chem. Theory Comput.,
     2021, 17, 4250-4261. DOI: 10.1021/acs.jctc.1c00471
   
   for ddCOSMO and CPCM-X implicit solvation:
   * M. Stahn, S. Ehlert, S. Grimme, J. Phys. Chem. A,
     2023, XX, XXXX-XXXX. DOI: 10.1021/acs.jpca.3c04382
   
   for DFT-D4:
   * E. Caldeweyher, C. Bannwarth and S. Grimme, J. Chem. Phys., 2017,
     147, 034112. DOI: 10.1063/1.4993215
   * E. Caldeweyher, S. Ehlert, A. Hansen, H. Neugebauer, S. Spicher,
     C. Bannwarth and S. Grimme, J. Chem. Phys., 2019, 150, 154122.
     DOI: 10.1063/1.5090222
   * E. Caldeweyher, J.-M. Mewes, S. Ehlert and S. Grimme, Phys. Chem. Chem. Phys.
     2020, 22, 8499-8512. DOI: 10.1039/D0CP00502A
   
   for sTDA-xTB:
   * S. Grimme and C. Bannwarth, J. Chem. Phys., 2016, 145, 054103.
     DOI: 10.1063/1.4959605
   
   in the mass-spec context:
   * V. Asgeirsson, C. Bauer and S. Grimme, Chem. Sci., 2017, 8, 4879.
     DOI: 10.1039/c7sc00601b
   * J. Koopman and S. Grimme, ACS Omega 2019, 4, 12, 15120-15133.
     DOI: 10.1021/acsomega.9b02011
   
   for metadynamics refer to:
   * S. Grimme, J. Chem. Theory Comput., 2019, 155, 2847-2862
     DOI: 10.1021/acs.jctc.9b00143
   
   for SPH calculations refer to:
   * S. Spicher and S. Grimme, J. Chem. Theory Comput., 2021, 17, 1701-1714
     DOI: 10.1021/acs.jctc.0c01306
   
   for ONIOM refer to:
   * C. Plett, A. Katbashev, S. Ehlert, S. Grimme, M. Bursch,
     Phys. Chem. Chem. Phys., 2023, 25, 17860-17868. DOI: 10.1039/D3CP02178E
   
   for DIPRO refer to:
   * J. Kohn, N. Gildemeister, S. Grimme, D. Fazzi, A. Hansen,
     J. Chem. Phys., 2023, just accepted.
   
   for PTB refer to:
   * S. Grimme, M. Mueller, A. Hansen, J. Chem. Phys., 2023, 158, 124111.
     DOI: 10.1063/5.0137838
   
   with help from (in alphabetical order)
   P. Atkinson, C. Bannwarth, F. Bohle, G. Brandenburg, E. Caldeweyher
   M. Checinski, S. Dohm, S. Ehlert, S. Ehrlich, I. Gerasimov, C. Hölzer
   A. Katbashev, J. Kohn, J. Koopman, C. Lavigne, S. Lehtola, F. März, M. Müller,
   F. Musil, H. Neugebauer, J. Pisarek, C. Plett, P. Pracht, F. Pultar,
   J. Seibert, P. Shushkov, S. Spicher, M. Stahn, M. Steiner, T. Strunk,
   J. Stückrath, T. Rose, and J. Unsleber
   
 * started run on 2025/12/08 at 00:32:28.571     
   ID    Z sym.   atoms
    1    6 C      1-100
    2    1 H      101-124
    3    8 O      125-128

           -------------------------------------------------
          |                Calculation Setup                |
           -------------------------------------------------

          program call               : xtb "C:\Users\LENOVO GAMING\Documents\GitHub\molecular-conductivity-sim\dataset\1.5nm-4Odoped-3percent.xyz" --opt --parallel 4
          coordinate file            : C:\Users\LENOVO GAMING\Documents\GitHub\molecular-conductivity-sim\dataset\1.5nm-4Odoped-3percent.xyz
          omp threads                :                     4


           -------------------------------------------------
          |                 G F N 2 - x T B                 |
           -------------------------------------------------

        Reference                      10.1021/acs.jctc.8b01176
      * Hamiltonian:
        H0-scaling (s, p, d)           1.850000    2.230000    2.230000
        zeta-weighting                 0.500000
      * Dispersion:
        s8                             2.700000
        a1                             0.520000
        a2                             5.000000
        s9                             5.000000
      * Repulsion:
        kExp                           1.500000    1.000000
        rExp                           1.000000
      * Coulomb:
        alpha                          2.000000
        third order                    shell-resolved
        anisotropic                    true
        a3                             3.000000
        a5                             4.000000
        cn-shift                       1.200000
        cn-exp                         4.000000
        max-rad                        5.000000


          ...................................................
          :                      SETUP                      :
          :.................................................:
          :  # basis functions                 440          :
          :  # atomic orbitals                 440          :
          :  # shells                          232          :
          :  # electrons                       448          :
          :  max. iterations                   250          :
          :  Hamiltonian                  GFN2-xTB          :
          :  restarted?                      false          :
          :  GBSA solvation                  false          :
          :  PC potential                    false          :
          :  electronic temp.          300.0000000     K    :
          :  accuracy                    1.0000000          :
          :  -> integral cutoff          0.2500000E+02      :
          :  -> integral neglect         0.1000000E-07      :
          :  -> SCF convergence          0.1000000E-05 Eh   :
          :  -> wf. convergence          0.1000000E-03 e    :
          :  Broyden damping             0.4000000          :
          :  net charge                          0          :
          :  unpaired electrons                  0          :
          ...................................................

 iter      E             dE          RMSdq      gap      omega  full diag
   1   -247.5910296 -0.247591E+03  0.496E+00    1.04       0.0  T
   2   -247.6238702 -0.328406E-01  0.317E+00    1.12       1.0  T
   3   -247.1999552  0.423915E+00  0.203E+00    1.06       1.0  T
   4   -247.7253232 -0.525368E+00  0.279E-01    1.07       1.0  T
   5   -247.7341124 -0.878922E-02  0.122E-01    1.09       1.0  T
   6   -247.7354921 -0.137966E-02  0.523E-02    1.09       1.0  T
   7   -247.7356754 -0.183357E-03  0.241E-02    1.09       1.0  T
   8   -247.7357093 -0.339051E-04  0.118E-02    1.09       1.0  T
   9   -247.7357188 -0.944257E-05  0.470E-03    1.09       1.9  T
  10   -247.7357211 -0.233941E-05  0.149E-03    1.09       5.9  T
  11   -247.7357213 -0.134471E-06  0.713E-04    1.09      12.4  T
  12   -247.7357213 -0.495835E-07  0.365E-04    1.09      24.2  T

   *** convergence criteria satisfied after 12 iterations ***

         #    Occupation            Energy/Eh            Energy/eV
      -------------------------------------------------------------
         1        2.0000           -0.7397816             -20.1305
       ...           ...                  ...                  ...
       218        2.0000           -0.3783340             -10.2950
       219        2.0000           -0.3772797             -10.2663
       220        2.0000           -0.3691836             -10.0460
       221        2.0000           -0.3589091              -9.7664
       222        2.0000           -0.3506577              -9.5419
       223        2.0000           -0.3487218              -9.4892
       224        2.0000           -0.3381845              -9.2025 (HOMO)
       225                         -0.2980035              -8.1091 (LUMO)
       226                         -0.2898552              -7.8874
       227                         -0.2757654              -7.5040
       228                         -0.2699830              -7.3466
       229                         -0.2642076              -7.1895
       ...                                ...                  ...
       440                          0.7567503              20.5922
      -------------------------------------------------------------
                  HL-Gap            0.0401810 Eh            1.0934 eV
             Fermi-level           -0.3180941 Eh           -8.6558 eV

 SCC (total)                   0 d,  0 h,  0 min,  0.939 sec
 SCC setup                      ...        0 min,  0.002 sec (  0.213%)
 Dispersion                     ...        0 min,  0.008 sec (  0.852%)
 classical contributions        ...        0 min,  0.000 sec (  0.000%)
 integral evaluation            ...        0 min,  0.044 sec (  4.686%)
 iterations                     ...        0 min,  0.703 sec ( 74.867%)
 molecular gradient             ...        0 min,  0.176 sec ( 18.743%)
 printout                       ...        0 min,  0.006 sec (  0.639%)

         :::::::::::::::::::::::::::::::::::::::::::::::::::::
         ::                     SUMMARY                     ::
         :::::::::::::::::::::::::::::::::::::::::::::::::::::
         :: total energy            -243.470012848142 Eh    ::
         :: gradient norm              0.052328739916 Eh/a0 ::
         :: HOMO-LUMO gap              1.093381583912 eV    ::
         ::.................................................::
         :: SCC energy              -247.743362140525 Eh    ::
         :: -> isotropic ES            0.046642800514 Eh    ::
         :: -> anisotropic ES          0.011194594543 Eh    ::
         :: -> anisotropic XC          0.076891379537 Eh    ::
         :: -> dispersion             -0.279100051408 Eh    ::
         :: repulsion energy           4.273349292383 Eh    ::
         :: add. restraining           0.000000000000 Eh    ::
         :: total charge              -0.000000000000 e     ::
         :::::::::::::::::::::::::::::::::::::::::::::::::::::

      ----------------------------------------------------------- 
     |                   =====================                   |
     |                        A N C O P T                        |
     |                   =====================                   |
     |               Approximate Normal Coordinate               |
     |                Rational Function Optimizer                |
      ----------------------------------------------------------- 
      ----------------------------------------------------------- 
     |                   =====================                   |
     |                        A N C O P T                        |
     |                   =====================                   |
     |               Approximate Normal Coordinate               |
     |                Rational Function Optimizer                |
      ----------------------------------------------------------- 

          ...................................................
          :                      SETUP                      :
          :.................................................:
          :   optimization level            normal          :
          :   max. optcycles                   384          :
          :   ANC micro-cycles                  20          :
          :   degrees of freedom               378          :
          :.................................................:
          :   RF solver                   davidson          :
          :   write xtbopt.log                true          :
          :   linear?                        false          :
          :   energy convergence         0.5000000E-05 Eh   :
          :   grad. convergence          0.1000000E-02 Eh/α :
          :   maxmium RF displ.          1.0000000          :
          :   Hlow (freq-cutoff)         0.1000000E-01      :
          :   Hmax (freq-cutoff)         5.0000000          :
          :   S6 in model hess.         20.0000000          :
          ...................................................

generating ANC from exact Hessian ...
Using Lindh-Hessian (1995)
 Shifting diagonal of input Hessian by   9.864867923717950E-003
 Lowest  eigenvalues of input Hessian
    0.000000    0.000000    0.000000    0.000000    0.000000    0.000000
    0.010000    0.010142    0.010226    0.010440    0.010556    0.011352
    0.011493    0.011621    0.011964    0.012551    0.013047    0.013646
 Highest eigenvalues
    2.124842    2.129572    2.138485    2.155759    2.162218    2.171178
 

........................................................................
.............................. CYCLE    1 ..............................
........................................................................

 iter      E             dE          RMSdq      gap      omega  full diag
   1   -247.7357213 -0.247736E+03  0.153E-04    1.09       0.0  T
   2   -247.7357213 -0.434653E-09  0.113E-04    1.09      78.5  T
   3   -247.7357213 -0.155740E-08  0.657E-05    1.09     134.6  T
     SCC iter.                  ...        0 min,  0.189 sec
     gradient                   ...        0 min,  0.176 sec
 * total energy  :  -243.4700129 Eh     change       -0.4841866E-08 Eh
   gradient norm :     0.0523360 Eh/α   predicted     0.0000000E+00 (-100.00%)
   displ. norm   :     0.4741149 α      lambda       -0.1383992E-01
   maximum displ.:     0.4073035 α      in ANC's #42, #37, #46, ...

........................................................................
.............................. CYCLE    2 ..............................
........................................................................

 iter      E             dE          RMSdq      gap      omega  full diag
   1   -247.8715653 -0.247872E+03  0.109E-01    1.09       0.0  T
   2   -247.8715848 -0.194879E-04  0.671E-02    1.10       1.0  T
   3   -247.8714296  0.155140E-03  0.540E-02    1.10       1.0  T
   4   -247.8716673 -0.237641E-03  0.105E-02    1.10       1.0  T
   5   -247.8716824 -0.151457E-04  0.344E-03    1.10       2.6  T
   6   -247.8716838 -0.144155E-05  0.101E-03    1.10       8.8  T
   7   -247.8716839 -0.418225E-07  0.574E-04    1.10      15.4  T
   8   -247.8716839 -0.174750E-07  0.183E-04    1.10      48.2  T
     SCC iter.                  ...        0 min,  0.483 sec
     gradient                   ...        0 min,  0.190 sec
 * total energy  :  -243.4803789 Eh     change       -0.1036607E-01 Eh
   gradient norm :     0.0252714 Eh/α   predicted    -0.8475600E-02 ( -18.24%)
   displ. norm   :     0.4566462 α      lambda       -0.6390431E-02
   maximum displ.:     0.4077010 α      in ANC's #42, #37, #46, ...

........................................................................
.............................. CYCLE    3 ..............................
........................................................................

 iter      E             dE          RMSdq      gap      omega  full diag
   1   -247.9817382 -0.247982E+03  0.968E-02    1.09       0.0  T
   2   -247.9817707 -0.325722E-04  0.602E-02    1.09       1.0  T
   3   -247.9817000  0.707409E-04  0.469E-02    1.10       1.0  T
   4   -247.9818542 -0.154249E-03  0.109E-02    1.09       1.0  T
   5   -247.9818693 -0.150809E-04  0.385E-03    1.09       2.3  T
   6   -247.9818713 -0.197344E-05  0.915E-04    1.09       9.7  T
   7   -247.9818714 -0.562765E-07  0.487E-04    1.09      18.2  T
   8   -247.9818714 -0.123722E-07  0.172E-04    1.09      51.3  T
     SCC iter.                  ...        0 min,  0.460 sec
     gradient                   ...        0 min,  0.178 sec
 * total energy  :  -243.4842899 Eh     change       -0.3910985E-02 Eh
   gradient norm :     0.0066276 Eh/α   predicted    -0.3861896E-02 (  -1.26%)
   displ. norm   :     0.1564960 α      lambda       -0.5548759E-03
   maximum displ.:     0.1381291 α      in ANC's #42, #37, #21, ...

........................................................................
.............................. CYCLE    4 ..............................
........................................................................

 iter      E             dE          RMSdq      gap      omega  full diag
   1   -248.0107720 -0.248011E+03  0.329E-02    1.09       0.0  T
   2   -248.0107755 -0.349431E-05  0.205E-02    1.09       1.0  T
   3   -248.0107608  0.147289E-04  0.153E-02    1.09       1.0  T
   4   -248.0107818 -0.210389E-04  0.327E-03    1.09       2.7  T
   5   -248.0107832 -0.140899E-05  0.113E-03    1.09       7.9  T
   6   -248.0107834 -0.164272E-06  0.312E-04    1.09      28.3  T
   7   -248.0107834 -0.758178E-08  0.172E-04    1.09      51.3  T
     SCC iter.                  ...        0 min,  0.425 sec
     gradient                   ...        0 min,  0.178 sec
 * total energy  :  -243.4845935 Eh     change       -0.3035695E-03 Eh
   gradient norm :     0.0023998 Eh/α   predicted    -0.2842430E-03 (  -6.37%)
   displ. norm   :     0.0206358 α      lambda       -0.1899349E-04
   maximum displ.:     0.0121549 α      in ANC's #42, #21, #37, ...

........................................................................
.............................. CYCLE    5 ..............................
........................................................................

 iter      E             dE          RMSdq      gap      omega  full diag
   1   -248.0118798 -0.248012E+03  0.642E-03    1.09       0.0  T
   2   -248.0118798 -0.524743E-07  0.394E-03    1.09       2.2  T
   3   -248.0118793  0.544969E-06  0.178E-03    1.09       5.0  T
   4   -248.0118799 -0.604922E-06  0.317E-04    1.09      27.9  T
   5   -248.0118799 -0.112039E-07  0.104E-04    1.09      84.9  T
     SCC iter.                  ...        0 min,  0.300 sec
     gradient                   ...        0 min,  0.179 sec
 * total energy  :  -243.4846056 Eh     change       -0.1209229E-04 Eh
   gradient norm :     0.0010290 Eh/α   predicted    -0.9710320E-05 ( -19.70%)
   displ. norm   :     0.0106857 α      lambda       -0.2823334E-05
   maximum displ.:     0.0060183 α      in ANC's #21, #60, #107, ...

........................................................................
.............................. CYCLE    6 ..............................
........................................................................

 iter      E             dE          RMSdq      gap      omega  full diag
   1   -248.0112036 -0.248011E+03  0.390E-03    1.09       0.0  T
   2   -248.0112036 -0.395139E-07  0.235E-03    1.09       3.8  T
   3   -248.0112035  0.926756E-07  0.944E-04    1.09       9.4  T
   4   -248.0112036 -0.106809E-06  0.184E-04    1.09      48.0  T
     SCC iter.                  ...        0 min,  0.243 sec
     gradient                   ...        0 min,  0.174 sec
 * total energy  :  -243.4846073 Eh     change       -0.1679739E-05 Eh
   gradient norm :     0.0004130 Eh/α   predicted    -0.1502518E-05 ( -10.55%)
   displ. norm   :     0.0029564 α      lambda       -0.2146263E-06
   maximum displ.:     0.0013264 α      in ANC's #21, #60, #42, ...

   *** GEOMETRY OPTIMIZATION CONVERGED AFTER 6 ITERATIONS ***

------------------------------------------------------------------------
 total energy gain   :        -0.0145944 Eh       -9.1581 kcal/mol
 total RMSD          :         0.0965011 a0        0.0511 Å
 total power (kW/mol):        -6.3862664 (step)  -10.4039 (real)
------------------------------------------------------------------------

 ANCopt (total)                0 d,  0 h,  0 min,  3.683 sec
 optimizer setup                ...        0 min,  0.003 sec (  0.081%)
 model hessian                  ...        0 min,  0.110 sec (  2.987%)
 ANC generation                 ...        0 min,  0.033 sec (  0.896%)
 coordinate transformation      ...        0 min,  0.000 sec (  0.000%)
 single point calculation       ...        0 min,  3.506 sec ( 95.194%)
 optimization log               ...        0 min,  0.025 sec (  0.679%)
 hessian update                 ...        0 min,  0.002 sec (  0.054%)
 rational function              ...        0 min,  0.002 sec (  0.054%)

================
 final structure:
================
128
 xtb: 6.7.1pre (5071a88)
C           -2.96173531407080       -7.28517665061083       -0.00078618113263
C            1.34550292934051       -7.35666898658142        0.00065672283342
C           -0.82485944360696       -6.13214102888816       -0.00017202194917
C            5.68657716839427       -7.36372453232906        0.00094767093656
C            3.46583924777179       -6.18561973662504        0.00055448486910
C            1.33650964186925       -4.94346330743023        0.00013056823440
C           -1.60002264047954       -7.31457845336339       -0.00064101579617
C           -3.65950823431447       -6.05948167679306       -0.00042525420696
C            2.71234454504045       -7.37120995450366        0.00087242168300
C            0.61081063663254       -6.15667147229223        0.00017677082193
C           -1.49927969704022       -4.89299755310006       -0.00011163410376
C            7.73152845950493       -6.08279662649584        0.00024009236915
C            5.59110368227680       -4.95978757986377        0.00006747223502
C            3.46802683173699       -3.73041262681135       -0.00002015452613
C            5.59447372698451       -2.52879813511691       -0.00047199511527
C            7.72948991575678       -1.38200899741536       -0.00105319496793
C            7.06184349030058       -7.30061703717962        0.00080595718465
C            4.91116037263117       -6.19549724676435        0.00054755035066
C            2.75760677743477       -4.96453028462272        0.00021962568063
C            0.64481245236921       -3.69817147748914       -0.00000896634463
C            6.99882379204915       -4.91074072313400       -0.00011648973196
C            4.86601750998687       -3.73586356408685       -0.00016788623956
C            2.78042364469142       -2.49343666580233       -0.00015269546269
C            7.01305799095911       -2.54968947393795       -0.00073262988322
C            4.91975616832844       -1.29737531206277       -0.00050379555450
C            7.07375553203668       -0.12630668314993       -0.00096067178837
C           -7.09727433398806       -7.15094062287463       -0.00034532910050
C           -5.07304529715345       -6.00298805988253       -0.00031140636986
C           -7.18104016667568       -4.74161530285883        0.00036302616892
C           -2.91931546700605       -4.85248639552636       -0.00015123776204
C           -5.00705784515094       -3.57757474165290        0.00025656623996
C           -7.12519628220193       -2.31135620467202        0.00084367744754
C           -0.76468067806152       -3.67279254775942        0.00002614773753
C           -2.86483106232693       -2.39929271324904        0.00019075759402
C           -4.96937569655368       -1.14178206579126        0.00052629142901
C           -7.07375559835624        0.12630684051928        0.00089859339215
C           -7.83028858861961       -6.03039465342474        0.00012478762804
C           -5.74369764663436       -4.78666472608778        0.00009420654755
C           -7.83496395517498       -3.54501686521561        0.00078878301356
C           -3.59696813575044       -3.61208537859715        0.00007446354376
C           -5.69901582888965       -2.34627200142800        0.00054480521550
C           -7.77667525384828       -1.08404839820391        0.00108566894676
C            1.36580176387798       -2.47680586659403       -0.00002632802118
C           -7.01305802429141        2.54968960085086        0.00045018915970
C            1.60002239070529        7.31457831156549        0.00115335441785
C           -0.72723407849824       -1.21730370577111        0.00009071583403
C            7.83496382717027        3.54501700955769       -0.00048516732150
C           -2.81998697830178        0.04452481997928        0.00025929093268
C            5.74369749404130        4.78666476213570        0.00032394628459
C           -4.91975621530243        1.29737537670355        0.00039455175825
C            3.65950805273096        6.05948163063418        0.00092946784632
C            3.50318434970206       -1.28292583500312       -0.00026840307001
C           -4.86601751794968        3.73586360214307       -0.00012754505795
C            1.41087256063571       -0.02212558150802       -0.00005058609555
C           -6.99882374246299        4.91074078464868       -0.00040267361589
C           -0.68605921645004        1.24061782998402        0.00007840924290
C            7.83028842398561        6.03039471616896        0.00046731212222
C           -2.78042368861025        2.49343666061282        0.00005808217346
C            5.65363259844138       -0.09175123405975       -0.00064763146560
C           -2.75760675991557        4.96453026773324       -0.00046979862632
C            3.54911886028105        1.16835018838449       -0.00022341681229
C           -4.91116026507350        6.19549721439006       -0.00109300501688
C            1.44919508888055        2.43141405816889        0.00002983891156
C           -7.06184333889689        7.30061698794622       -0.00159625031537
C           -0.64481250797904        3.69817143577291        0.00000714246935
C            7.77667516533143        1.08404857965171       -0.00104093489020
C           -0.61081064434454        6.15667139927628       -0.00023873520819
C            5.69901573572019        2.34627207991451       -0.00037682829930
C           -2.71234435226732        7.37120983687602       -0.00141032002086
C            3.59696803972729        3.61208537893839        0.00016123846283
C            1.49927960432067        4.89299749908932        0.00031063151048
C           -1.44919516491974       -2.43141410104613        0.00005047819369
C            7.12519618980301        2.31135634399349       -0.00067389163880
C           -1.34550276948350        7.35666887341600       -0.00100135814270
C           -3.54911893094966       -1.16835017285934        0.00028771990633
C            5.00705774299121        3.57757478068806        0.00001854430290
C           -5.65363266153507        0.09175132425666        0.00061183783409
C            2.91931535414610        4.85248636479234        0.00046756373168
C           -7.72948997280186        1.38200917106673        0.00085970159310
C            0.82485934040744        6.13214095481971        0.00037988020306
C            0.68605915707479       -1.24061786444247       -0.00006554733349
C           -1.41087260997062        0.02212554899334        0.00007056328445
C            7.18104001990898        4.74161538631724        0.00007028967230
C           -3.50318439872858        1.28292584840268        0.00020459284436
C            5.07304511412904        6.00298803205058        0.00086027060796
C           -5.59447375677984        2.52879820544115        0.00024383148960
C            2.96173504059918        7.28517650561724        0.00144617503350
C            2.81998692020119       -0.04452480266315       -0.00025155915970
C           -5.59110363188563        4.95978761139194       -0.00051818920969
C            0.72723401838392        1.21730366690520       -0.00005339527537
C           -7.73152836270338        6.08279665535860       -0.00093032667357
C           -1.36580180845990        2.47680583054754        0.00000082535741
C            7.09727414196738        7.15094060700843        0.00106577623067
C           -3.46802683814319        3.73041262837958       -0.00019037921371
C            4.96937562201367        1.14178213480289       -0.00046077276786
C           -3.46583914247219        6.18561969670033       -0.00099524864518
C            2.86483098602628        2.39929271345473       -0.00006818810630
C           -5.68657701716703        7.36372445688715       -0.00166554155626
C            0.76468061295258        3.67279249858166        0.00005660179582
C           -1.33650965956957        4.94346326076943       -0.00022852239738
H           -3.53032900790795       -8.20232262785752       -0.00116234709314
H            0.83061623502478       -8.30357753495622        0.00093232554133
H            5.21496928970211       -8.33259114937238        0.00138769362840
H           -1.11142927879688       -8.27510782436964       -0.00095322709649
H            3.21393962909601       -8.32553948663606        0.00127332051138
H            8.80849608680006       -6.03411457132002        0.00009902779149
H            8.80767225592031       -1.42059911810803       -0.00129567604578
H            7.63746217478286       -8.21422857261888        0.00113410167531
H           -7.51667739974945       -8.14627631412608       -0.00058716613798
H           -8.90609689216479       -6.08342286631130        0.00029429006819
H           -8.91498353368998       -3.52004838985918        0.00102536901404
H           -8.85719104117499       -1.06140257028834        0.00134374747417
H            1.11142885805134        8.27510755110392        0.00162039328606
H            8.91498341908613        3.52004857600739       -0.00071657791405
H            8.90609672694032        6.08342297714183        0.00031579322377
H           -7.63746198680967        8.21422848959178       -0.00206037403845
H            8.85719096209114        1.06140279076758       -0.00130920173237
H           -3.21393933984896        8.32553928171234       -0.00204488324894
H           -0.83061589686171        8.30357730777558       -0.00138471420693
H           -8.80767231935288        1.42059931969180        0.00106864106956
H            3.53032865793783        8.20232240204769        0.00206016736494
H           -8.80849600984153        6.03411463306809       -0.00084217771923
H            7.51667719521668        8.14627626551763        0.00143356698086
H           -5.21496909551835        8.33259101809772       -0.00218243146049
O            7.68827747065646       -3.73577740257988       -0.00063699340161
O           -5.74847230973142       -7.18954673747095       -0.00057056134732
O           -7.68827746506001        3.73577753211269        0.00021621963248
O            5.74847210476698        7.18954667657146        0.00127784286324
 
 Bond Distances (Angstroems)
 ---------------------------
C1-C7=1.3620         C1-C8=1.4104         C1-H101=1.0791       C2-C9=1.3669         C2-C10=1.4070        C2-H102=1.0778       
C3-C7=1.4139         C3-C10=1.4359        C3-C11=1.4108        C4-C17=1.3767        C4-C18=1.4022        C4-H103=1.0776       
C5-C9=1.4048         C5-C18=1.4454        C5-C19=1.4116        C6-C10=1.4137        C6-C19=1.4213        C6-C20=1.4245        
C7-C1=1.3620         C7-C3=1.4139         C7-H104=1.0777       C8-C1=1.4104         C8-C28=1.4147        C8-C30=1.4159        
C9-C2=1.3669         C9-C5=1.4048         C9-H105=1.0781       C10-C2=1.4070        C10-C3=1.4359        C10-C6=1.4137        
C11-C3=1.4108        C11-C30=1.4206       C11-C33=1.4243       C12-C17=1.3898       C12-C21=1.3822       C12-H106=1.0781      
C13-C18=1.4104       C13-C21=1.4086       C13-C22=1.4226       C14-C19=1.4240       C14-C22=1.3980       C14-C23=1.4152       
C15-C22=1.4098       C15-C24=1.4187       C15-C25=1.4042       C16-C24=1.3699       C16-C26=1.4166       C16-H107=1.0789      
C17-C4=1.3767        C17-C12=1.3898       C17-H108=1.0798      C18-C4=1.4022        C18-C5=1.4454        C18-C13=1.4104       
C19-C5=1.4116        C19-C6=1.4213        C19-C14=1.4240       C20-C6=1.4245        C20-C33=1.4097       C20-C43=1.4183       
C21-C12=1.3822       C21-C13=1.4086       C21-O125=1.3623      C22-C13=1.4226       C22-C14=1.3980       C22-C15=1.4098       
C23-C14=1.4152       C23-C43=1.4147       C23-C52=1.4099       C24-C15=1.4187       C24-C16=1.3699       C24-O125=1.3648      
C25-C15=1.4042       C25-C52=1.4166       C25-C59=1.4114       C26-C16=1.4166       C26-C59=1.4205       C26-C66=1.3997       
C27-C37=1.3390       C27-H109=1.0801      C27-O126=1.3494      C28-C8=1.4147        C28-C38=1.3890       C28-O126=1.3653      
C29-C37=1.4431       C29-C38=1.4380       C29-C39=1.3636       C30-C8=1.4159        C30-C11=1.4206       C30-C40=1.4134       
C31-C38=1.4158       C31-C40=1.4105       C31-C41=1.4124       C32-C39=1.4233       C32-C41=1.4266       C32-C42=1.3895       
C33-C11=1.4243       C33-C20=1.4097       C33-C72=1.4176       C34-C40=1.4166       C34-C72=1.4160       C34-C75=1.4084       
C35-C41=1.4083       C35-C75=1.4205       C35-C77=1.4106       C36-C42=1.3997       C36-C77=1.4205       C36-C79=1.4166       
C37-C27=1.3390       C37-C29=1.4431       C37-H110=1.0771      C38-C28=1.3890       C38-C29=1.4380       C38-C31=1.4158       
C39-C29=1.3636       C39-C32=1.4233       C39-H111=1.0803      C40-C30=1.4134       C40-C31=1.4105       C40-C34=1.4166       
C41-C31=1.4124       C41-C32=1.4266       C41-C35=1.4083       C42-C32=1.3895       C42-C36=1.3997       C42-H112=1.0808      
C43-C20=1.4183       C43-C23=1.4147       C43-C81=1.4107       C44-C79=1.3699       C44-C86=1.4187       C44-O127=1.3648      
C45-C80=1.4139       C45-C87=1.3620       C45-H113=1.0777      C46-C72=1.4125       C46-C81=1.4135       C46-C82=1.4155       
C47-C73=1.4233       C47-C83=1.3636       C47-H114=1.0803      C48-C75=1.4152       C48-C82=1.4093       C48-C84=1.4144       
C49-C76=1.4158       C49-C83=1.4380       C49-C85=1.3890       C50-C77=1.4114       C50-C84=1.4166       C50-C86=1.4042       
C51-C78=1.4159       C51-C85=1.4147       C51-C87=1.4104       C52-C23=1.4099       C52-C25=1.4166       C52-C88=1.4144       
C53-C86=1.4098       C53-C89=1.4226       C53-C94=1.3980       C54-C81=1.4178       C54-C88=1.4093       C54-C90=1.4155       
C55-C89=1.4086       C55-C91=1.3822       C55-O127=1.3623      C56-C82=1.4178       C56-C90=1.4135       C56-C92=1.4107       
C57-C83=1.4431       C57-C93=1.3390       C57-H115=1.0771      C58-C84=1.4099       C58-C92=1.4147       C58-C94=1.4152       
C59-C25=1.4114       C59-C26=1.4205       C59-C95=1.4106       C60-C94=1.4240       C60-C96=1.4116       C60-C100=1.4213      
C61-C88=1.4152       C61-C95=1.4205       C61-C97=1.4084       C62-C89=1.4104       C62-C96=1.4454       C62-C98=1.4022       
C63-C90=1.4125       C63-C97=1.4160       C63-C99=1.4176       C64-C91=1.3898       C64-C98=1.3767       C64-H116=1.0798      
C65-C92=1.4183       C65-C99=1.4097       C65-C100=1.4245      C66-C26=1.3997       C66-C73=1.3895       C66-H117=1.0808      
C67-C74=1.4070       C67-C80=1.4359       C67-C100=1.4137      C68-C73=1.4266       C68-C76=1.4124       C68-C95=1.4083       
C69-C74=1.3669       C69-C96=1.4048       C69-H118=1.0781      C70-C76=1.4105       C70-C78=1.4134       C70-C97=1.4166       
C71-C78=1.4206       C71-C80=1.4108       C71-C99=1.4243       C72-C33=1.4176       C72-C34=1.4160       C72-C46=1.4125       
C73-C47=1.4233       C73-C66=1.3895       C73-C68=1.4266       C74-C67=1.4070       C74-C69=1.3669       C74-H119=1.0778      
C75-C34=1.4084       C75-C35=1.4205       C75-C48=1.4152       C76-C49=1.4158       C76-C68=1.4124       C76-C70=1.4105       
C77-C35=1.4106       C77-C36=1.4205       C77-C50=1.4114       C78-C51=1.4159       C78-C70=1.4134       C78-C71=1.4206       
C79-C36=1.4166       C79-C44=1.3699       C79-H120=1.0789      C80-C45=1.4139       C80-C67=1.4359       C80-C71=1.4108       
C81-C43=1.4107       C81-C46=1.4135       C81-C54=1.4178       C82-C46=1.4155       C82-C48=1.4093       C82-C56=1.4178       
C83-C47=1.3636       C83-C49=1.4380       C83-C57=1.4431       C84-C48=1.4144       C84-C50=1.4166       C84-C58=1.4099       
C85-C49=1.3890       C85-C51=1.4147       C85-O128=1.3653      C86-C44=1.4187       C86-C50=1.4042       C86-C53=1.4098       
C87-C45=1.3620       C87-C51=1.4104       C87-H121=1.0791      C88-C52=1.4144       C88-C54=1.4093       C88-C61=1.4152       
C89-C53=1.4226       C89-C55=1.4086       C89-C62=1.4104       C90-C54=1.4155       C90-C56=1.4135       C90-C63=1.4125       
C91-C55=1.3822       C91-C64=1.3898       C91-H122=1.0781      C92-C56=1.4107       C92-C58=1.4147       C92-C65=1.4183       
C93-C57=1.3390       C93-H123=1.0801      C93-O128=1.3494      C94-C53=1.3980       C94-C58=1.4152       C94-C60=1.4240       
C95-C59=1.4106       C95-C61=1.4205       C95-C68=1.4083       C96-C60=1.4116       C96-C62=1.4454       C96-C69=1.4048       
C97-C61=1.4084       C97-C63=1.4160       C97-C70=1.4166       C98-C62=1.4022       C98-C64=1.3767       C98-H124=1.0776      
C99-C63=1.4176       C99-C65=1.4097       C99-C71=1.4243       C100-C60=1.4213      C100-C65=1.4245      C100-C67=1.4137      
H101-C1=1.0791       H102-C2=1.0778       H103-C4=1.0776       H104-C7=1.0777       H105-C9=1.0781       H106-C12=1.0781      
H107-C16=1.0789      H108-C17=1.0798      H109-C27=1.0801      H110-C37=1.0771      H111-C39=1.0803      H112-C42=1.0808      
H113-C45=1.0777      H114-C47=1.0803      H115-C57=1.0771      H116-C64=1.0798      H117-C66=1.0808      H118-C69=1.0781      
H119-C74=1.0778      H120-C79=1.0789      H121-C87=1.0791      H122-C91=1.0781      H123-C93=1.0801      H124-C98=1.0776      
O125-C21=1.3623      O125-C24=1.3648      O126-C27=1.3494      O126-C28=1.3653      O127-C44=1.3648      O127-C55=1.3623      
O128-C85=1.3653      O128-C93=1.3494      
 C  H  Rav=1.0788 sigma=0.0012  Rmin=1.0771  Rmax=1.0808    24
 C  C  Rav=1.4093 sigma=0.0184  Rmin=1.3390  Rmax=1.4454   134
 O  C  Rav=1.3605 sigma=0.0065  Rmin=1.3494  Rmax=1.3653     8
 
 selected bond angles (degree)
 --------------------
C8-C1-C7=120.89                H101-C1-C7=120.56              H101-C1-C8=118.55              C10-C2-C9=122.09               
H102-C2-C9=117.93              H102-C2-C10=119.99             C10-C3-C7=122.27               C11-C3-C7=118.19               
C11-C3-C10=119.54              C18-C4-C17=120.95              H103-C4-C17=118.58             H103-C4-C18=120.47             
C18-C5-C9=122.05               C19-C5-C9=117.45               C19-C5-C18=120.51              C19-C6-C10=120.04              
C20-C6-C10=120.06              C20-C6-C19=119.90              C3-C7-C1=122.01                H104-C7-C1=118.20              
H104-C7-C3=119.79              C28-C8-C1=121.94               C30-C8-C1=118.83               C30-C8-C28=119.23              
C5-C9-C2=121.83                H105-C9-C2=118.34              H105-C9-C5=119.84              C3-C10-C2=122.46               
C6-C10-C2=117.64               C6-C10-C3=119.91               
 
 selected dihedral angles (degree)
 ---------------------------------
C3-C7-C1-C8=  0.00            C3-C7-C1-H101=180.00          H104-C7-C1-C8=180.00          H104-C7-C1-H101=  0.00        
C1-C7-C3-C10=179.99           C1-C7-C3-C11=  0.00           H104-C7-C3-C10=  0.00         H104-C7-C3-C11=179.98         
C28-C8-C1-C7=180.01           C28-C8-C1-H101=  0.00         C30-C8-C1-C7=  0.00           C30-C8-C1-H101=180.01         
C5-C9-C2-C10=  0.00           C5-C9-C2-H102=180.00          H105-C9-C2-C10=180.00         H105-C9-C2-H102=  0.00        
C2-C9-C5-C18=180.01           C2-C9-C5-C19=  0.00           H105-C9-C5-C18=  0.00         H105-C9-C5-C19=180.01         
C3-C10-C2-C9=179.99           C3-C10-C2-H102=  0.00         C6-C10-C2-C9=  0.00           C6-C10-C2-H102=179.99         
C2-C10-C3-C7=359.97           C2-C10-C3-C11=179.97          C6-C10-C3-C7=179.98           C6-C10-C3-C11=  0.00          
C2-C10-C6-C19=  0.00          C2-C10-C6-C20=180.02          C3-C10-C6-C19=180.01          C3-C10-C6-C20=  0.00          
           -------------------------------------------------
          |                Final Singlepoint                |
           -------------------------------------------------

          ...................................................
          :                      SETUP                      :
          :.................................................:
          :  # basis functions                 440          :
          :  # atomic orbitals                 440          :
          :  # shells                          232          :
          :  # electrons                       448          :
          :  max. iterations                   250          :
          :  Hamiltonian                  GFN2-xTB          :
          :  restarted?                      false          :
          :  GBSA solvation                  false          :
          :  PC potential                    false          :
          :  electronic temp.          300.0000000     K    :
          :  accuracy                    1.0000000          :
          :  -> integral cutoff          0.2500000E+02      :
          :  -> integral neglect         0.1000000E-07      :
          :  -> SCF convergence          0.1000000E-05 Eh   :
          :  -> wf. convergence          0.1000000E-03 e    :
          :  Broyden damping             0.4000000          :
          :  net charge                          0          :
          :  unpaired electrons                  0          :
          ...................................................

 iter      E             dE          RMSdq      gap      omega  full diag
   1   -248.0112036 -0.248011E+03  0.889E-05    1.09       0.0  T
   2   -248.0112036  0.270489E-09  0.929E-05    1.09      95.1  T
   3   -248.0112036 -0.127727E-08  0.274E-05    1.09     322.3  T

   *** convergence criteria satisfied after 3 iterations ***

         #    Occupation            Energy/Eh            Energy/eV
      -------------------------------------------------------------
         1        2.0000           -0.7447419             -20.2655
       ...           ...                  ...                  ...
       218        2.0000           -0.3788734             -10.3097
       219        2.0000           -0.3780847             -10.2882
       220        2.0000           -0.3693274             -10.0499
       221        2.0000           -0.3587886              -9.7631
       222        2.0000           -0.3502916              -9.5319
       223        2.0000           -0.3484539              -9.4819
       224        2.0000           -0.3376992              -9.1893 (HOMO)
       225                         -0.2975122              -8.0957 (LUMO)
       226                         -0.2888546              -7.8601
       227                         -0.2746272              -7.4730
       228                         -0.2685551              -7.3078
       229                         -0.2626567              -7.1473
       ...                                ...                  ...
       440                          0.7890582              21.4714
      -------------------------------------------------------------
                  HL-Gap            0.0401869 Eh            1.0935 eV
             Fermi-level           -0.3176057 Eh           -8.6425 eV

 SCC (total)                   0 d,  0 h,  0 min,  0.423 sec
 SCC setup                      ...        0 min,  0.001 sec (  0.236%)
 Dispersion                     ...        0 min,  0.005 sec (  1.182%)
 classical contributions        ...        0 min,  0.000 sec (  0.000%)
 integral evaluation            ...        0 min,  0.040 sec (  9.456%)
 iterations                     ...        0 min,  0.185 sec ( 43.735%)
 molecular gradient             ...        0 min,  0.188 sec ( 44.444%)
 printout                       ...        0 min,  0.004 sec (  0.946%)

         :::::::::::::::::::::::::::::::::::::::::::::::::::::
         ::                     SUMMARY                     ::
         :::::::::::::::::::::::::::::::::::::::::::::::::::::
         :: total energy            -243.484607255169 Eh    ::
         :: gradient norm              0.000410768317 Eh/a0 ::
         :: HOMO-LUMO gap              1.093542376250 eV    ::
         ::.................................................::
         :: SCC energy              -248.018982371229 Eh    ::
         :: -> isotropic ES            0.044332345749 Eh    ::
         :: -> anisotropic ES          0.012057578880 Eh    ::
         :: -> anisotropic XC          0.070544856081 Eh    ::
         :: -> dispersion             -0.282640910703 Eh    ::
         :: repulsion energy           4.534375116060 Eh    ::
         :: add. restraining           0.000000000000 Eh    ::
         :: total charge              -0.000000000000 e     ::
         :::::::::::::::::::::::::::::::::::::::::::::::::::::

           -------------------------------------------------
          |                Property Printout                |
           -------------------------------------------------

    * Orbital Energies and Occupations

         #    Occupation            Energy/Eh            Energy/eV
      -------------------------------------------------------------
         1        2.0000           -0.7447419             -20.2655
       ...           ...                  ...                  ...
       212        2.0000           -0.3986141             -10.8468
       213        2.0000           -0.3950564             -10.7500
       214        2.0000           -0.3903499             -10.6220
       215        2.0000           -0.3861194             -10.5068
       216        2.0000           -0.3856450             -10.4939
       217        2.0000           -0.3815404             -10.3822
       218        2.0000           -0.3788734             -10.3097
       219        2.0000           -0.3780847             -10.2882
       220        2.0000           -0.3693274             -10.0499
       221        2.0000           -0.3587886              -9.7631
       222        2.0000           -0.3502916              -9.5319
       223        2.0000           -0.3484539              -9.4819
       224        2.0000           -0.3376992              -9.1893 (HOMO)
       225                         -0.2975122              -8.0957 (LUMO)
       226                         -0.2888546              -7.8601
       227                         -0.2746272              -7.4730
       228                         -0.2685551              -7.3078
       229                         -0.2626567              -7.1473
       230                         -0.2609787              -7.1016
       231                         -0.2591424              -7.0516
       232                         -0.2522274              -6.8635
       233                         -0.2515562              -6.8452
       234                         -0.2472795              -6.7288
       235                         -0.2402585              -6.5378
       ...                                ...                  ...
       440                          0.7890582              21.4714
      -------------------------------------------------------------
                  HL-Gap            0.0401869 Eh            1.0935 eV
             Fermi-level           -0.3176057 Eh           -8.6425 eV

     #   Z          covCN         q      C6AA      α(0)
     1   6 C        2.914    -0.033    28.812     8.802
     2   6 C        2.917    -0.038    28.938     8.821
     3   6 C        2.977     0.006    27.888     8.662
     4   6 C        2.919    -0.046    29.144     8.853
     5   6 C        2.977     0.003    27.947     8.672
     6   6 C        2.989     0.002    27.979     8.677
     7   6 C        2.917    -0.037    28.910     8.817
     8   6 C        2.981    -0.012    28.312     8.728
     9   6 C        2.917    -0.036    28.904     8.816
    10   6 C        2.978     0.004    27.922     8.668
    11   6 C        2.989     0.003    27.941     8.671
    12   6 C        2.915    -0.060    29.490     8.905
    13   6 C        2.996    -0.016    28.394     8.741
    14   6 C        2.990    -0.006    28.152     8.704
    15   6 C        2.993    -0.017    28.429     8.746
    16   6 C        2.915    -0.073    29.819     8.955
    17   6 C        2.918    -0.030    28.753     8.793
    18   6 C        2.977     0.005    27.903     8.665
    19   6 C        2.990     0.002    27.963     8.674
    20   6 C        2.986    -0.000    28.032     8.685
    21   6 C        2.878     0.140    24.952     8.189
    22   6 C        2.996     0.006    27.874     8.661
    23   6 C        2.992     0.000    28.010     8.682
    24   6 C        2.870     0.136    25.024     8.200
    25   6 C        2.994    -0.001    28.037     8.686
    26   6 C        2.977     0.013    27.718     8.636
    27   6 C        2.815     0.097    25.846     8.330
    28   6 C        2.889     0.128    25.203     8.231
    29   6 C        2.979     0.017    27.627     8.622
    30   6 C        2.992     0.001    28.002     8.680
    31   6 C        2.993    -0.002    28.065     8.690
    32   6 C        2.975     0.013    27.710     8.635
    33   6 C        2.987    -0.001    28.050     8.688
    34   6 C        2.991     0.001    27.991     8.679
    35   6 C        2.991     0.002    27.973     8.676
    36   6 C        2.977     0.013    27.718     8.636
    37   6 C        2.903    -0.064    29.595     8.920
    38   6 C        2.990    -0.014    28.352     8.734
    39   6 C        2.917    -0.058    29.452     8.899
    40   6 C        2.990    -0.008    28.212     8.713
    41   6 C        2.994     0.000    28.014     8.682
    42   6 C        2.922    -0.052    29.295     8.876
    43   6 C        2.990    -0.001    28.039     8.686
    44   6 C        2.870     0.136    25.024     8.200
    45   6 C        2.917    -0.037    28.910     8.817
    46   6 C        2.991    -0.000    28.020     8.683
    47   6 C        2.917    -0.058    29.452     8.899
    48   6 C        2.992    -0.000    28.025     8.684
    49   6 C        2.990    -0.014    28.352     8.734
    50   6 C        2.994    -0.001    28.037     8.686
    51   6 C        2.981    -0.012    28.312     8.728
    52   6 C        2.992    -0.000    28.026     8.684
    53   6 C        2.996     0.006    27.874     8.661
    54   6 C        2.990    -0.002    28.072     8.691
    55   6 C        2.878     0.140    24.952     8.189
    56   6 C        2.991     0.000    28.019     8.683
    57   6 C        2.903    -0.064    29.595     8.920
    58   6 C        2.992     0.000    28.010     8.682
    59   6 C        2.996    -0.008    28.199     8.711
    60   6 C        2.990     0.002    27.963     8.674
    61   6 C        2.990    -0.000    28.027     8.684
    62   6 C        2.977     0.005    27.903     8.665
    63   6 C        2.989    -0.001    28.046     8.687
    64   6 C        2.918    -0.030    28.753     8.793
    65   6 C        2.986    -0.000    28.032     8.685
    66   6 C        2.922    -0.052    29.295     8.876
    67   6 C        2.978     0.004    27.922     8.668
    68   6 C        2.994     0.000    28.014     8.682
    69   6 C        2.917    -0.036    28.904     8.816
    70   6 C        2.990    -0.008    28.212     8.713
    71   6 C        2.989     0.003    27.941     8.671
    72   6 C        2.989    -0.001    28.046     8.687
    73   6 C        2.975     0.013    27.710     8.635
    74   6 C        2.917    -0.038    28.938     8.821
    75   6 C        2.990    -0.000    28.027     8.684
    76   6 C        2.993    -0.002    28.065     8.690
    77   6 C        2.996    -0.008    28.199     8.711
    78   6 C        2.992     0.001    28.002     8.680
    79   6 C        2.915    -0.073    29.819     8.955
    80   6 C        2.977     0.006    27.888     8.662
    81   6 C        2.991     0.000    28.019     8.683
    82   6 C        2.990    -0.002    28.072     8.691
    83   6 C        2.979     0.017    27.627     8.622
    84   6 C        2.992    -0.000    28.026     8.684
    85   6 C        2.889     0.128    25.203     8.231
    86   6 C        2.993    -0.017    28.429     8.746
    87   6 C        2.914    -0.033    28.812     8.802
    88   6 C        2.992    -0.000    28.025     8.684
    89   6 C        2.996    -0.016    28.394     8.741
    90   6 C        2.991    -0.000    28.020     8.683
    91   6 C        2.915    -0.060    29.490     8.905
    92   6 C        2.990    -0.001    28.039     8.686
    93   6 C        2.815     0.097    25.846     8.330
    94   6 C        2.990    -0.006    28.152     8.704
    95   6 C        2.991     0.002    27.973     8.676
    96   6 C        2.977     0.003    27.947     8.672
    97   6 C        2.991     0.001    27.991     8.679
    98   6 C        2.919    -0.046    29.144     8.853
    99   6 C        2.987    -0.001    28.050     8.688
   100   6 C        2.989     0.002    27.979     8.677
   101   1 H        0.926     0.042     2.417     2.431
   102   1 H        0.926     0.033     2.542     2.493
   103   1 H        0.926     0.037     2.490     2.468
   104   1 H        0.926     0.036     2.506     2.476
   105   1 H        0.926     0.033     2.541     2.493
   106   1 H        0.926     0.047     2.355     2.400
   107   1 H        0.926     0.045     2.385     2.415
   108   1 H        0.926     0.038     2.474     2.459
   109   1 H        0.926     0.053     2.285     2.364
   110   1 H        0.926     0.046     2.375     2.410
   111   1 H        0.926     0.029     2.594     2.518
   112   1 H        0.926     0.031     2.568     2.506
   113   1 H        0.926     0.036     2.506     2.476
   114   1 H        0.926     0.029     2.594     2.518
   115   1 H        0.926     0.046     2.375     2.410
   116   1 H        0.926     0.038     2.474     2.459
   117   1 H        0.926     0.031     2.568     2.506
   118   1 H        0.926     0.033     2.541     2.493
   119   1 H        0.926     0.033     2.542     2.493
   120   1 H        0.926     0.045     2.385     2.415
   121   1 H        0.926     0.042     2.417     2.431
   122   1 H        0.926     0.047     2.355     2.400
   123   1 H        0.926     0.053     2.285     2.364
   124   1 H        0.926     0.037     2.490     2.468
   125   8 O        1.710    -0.231    17.827     5.701
   126   8 O        1.709    -0.203    17.383     5.629
   127   8 O        1.710    -0.231    17.827     5.701
   128   8 O        1.709    -0.203    17.383     5.629

 Mol. C6AA /au·bohr⁶  :     340817.201536
 Mol. C8AA /au·bohr⁸  :    9323614.611446
 Mol. α(0) /au        :        950.234840


Wiberg/Mayer (AO) data.
largest (>0.10) Wiberg bond orders for each atom

 ---------------------------------------------------------------------------
     #   Z sym  total        # sym  WBO       # sym  WBO       # sym  WBO
 ---------------------------------------------------------------------------
     1   6 C    3.951 --     7 C    1.570     8 C    1.262   101 H    0.967
     2   6 C    3.960 --     9 C    1.534    10 C    1.298   102 H    0.961
     3   6 C    3.946 --    11 C    1.297     7 C    1.273    10 C    1.182
     4   6 C    3.971 --    17 C    1.484    18 C    1.336   103 H    0.963
     5   6 C    3.960 --     9 C    1.304    19 C    1.301    18 C    1.153
     6   6 C    3.976 --    10 C    1.282    19 C    1.251    20 C    1.221
     7   6 C    3.969 --     1 C    1.570     3 C    1.273   104 H    0.961
     8   6 C    3.966 --     1 C    1.262    30 C    1.254    28 C    1.239
     9   6 C    3.965 --     2 C    1.534     5 C    1.304   105 H    0.962
    10   6 C    3.959 --     2 C    1.298     6 C    1.282     3 C    1.182
    11   6 C    3.980 --     3 C    1.297    30 C    1.243    33 C    1.215
    12   6 C    3.965 --    21 C    1.406    17 C    1.392   106 H    0.968
    13   6 C    3.976 --    18 C    1.286    21 C    1.271    22 C    1.186
    14   6 C    3.972 --    22 C    1.305    23 C    1.235    19 C    1.204
    15   6 C    3.951 --    25 C    1.276    22 C    1.246    24 C    1.205
    16   6 C    3.935 --    24 C    1.490    26 C    1.250   107 H    0.966
    17   6 C    3.975 --     4 C    1.484    12 C    1.392   108 H    0.971
    18   6 C    3.972 --     4 C    1.336    13 C    1.286     5 C    1.153
    19   6 C    3.983 --     5 C    1.301     6 C    1.251    14 C    1.204
    20   6 C    3.961 --    33 C    1.282    43 C    1.239     6 C    1.221
    21   6 C    3.920 --    12 C    1.406    13 C    1.271   125 O    1.054
    22   6 C    3.955 --    14 C    1.305    15 C    1.246    13 C    1.186
    23   6 C    3.966 --    52 C    1.273    43 C    1.237    14 C    1.235
    24   6 C    3.907 --    16 C    1.490    15 C    1.205   125 O    1.044
    25   6 C    3.975 --    15 C    1.276    59 C    1.248    52 C    1.231
    26   6 C    3.970 --    66 C    1.331    16 C    1.250    59 C    1.228
    27   6 C    3.908 --    37 C    1.719   126 O    1.091   109 H    0.959
    28   6 C    3.863 --    38 C    1.363     8 C    1.239   126 O    1.048
    29   6 C    3.971 --    39 C    1.538    38 C    1.150    37 C    1.131
    30   6 C    3.976 --     8 C    1.254    40 C    1.253    11 C    1.243
    31   6 C    3.968 --    40 C    1.264    41 C    1.257    38 C    1.228
    32   6 C    3.972 --    42 C    1.393    39 C    1.215    41 C    1.206
    33   6 C    3.961 --    20 C    1.282    72 C    1.245    11 C    1.215
    34   6 C    3.964 --    75 C    1.279    72 C    1.239    40 C    1.229
    35   6 C    3.979 --    41 C    1.274    77 C    1.261    75 C    1.222
    36   6 C    3.970 --    42 C    1.331    79 C    1.250    77 C    1.228
    37   6 C    3.973 --    27 C    1.719    29 C    1.131   110 H    0.966
    38   6 C    3.973 --    28 C    1.363    31 C    1.228    29 C    1.150
    39   6 C    3.967 --    29 C    1.538    32 C    1.215   111 H    0.967
    40   6 C    3.978 --    31 C    1.264    30 C    1.253    34 C    1.229
    41   6 C    3.963 --    35 C    1.274    31 C    1.257    32 C    1.206
    42   6 C    3.900 --    32 C    1.393    36 C    1.331   112 H    0.967
    43   6 C    3.957 --    81 C    1.268    20 C    1.239    23 C    1.237
    44   6 C    3.907 --    79 C    1.490    86 C    1.205   127 O    1.044
    45   6 C    3.969 --    87 C    1.570    80 C    1.273   113 H    0.961
    46   6 C    3.965 --    72 C    1.261    82 C    1.243    81 C    1.243
    47   6 C    3.967 --    83 C    1.538    73 C    1.215   114 H    0.967
    48   6 C    3.962 --    82 C    1.265    75 C    1.242    84 C    1.240
    49   6 C    3.973 --    85 C    1.363    76 C    1.228    83 C    1.150
    50   6 C    3.975 --    86 C    1.276    77 C    1.248    84 C    1.231
    51   6 C    3.966 --    87 C    1.262    78 C    1.254    85 C    1.239
    52   6 C    3.965 --    23 C    1.273    88 C    1.240    25 C    1.231
    53   6 C    3.955 --    94 C    1.305    86 C    1.246    89 C    1.186
    54   6 C    3.961 --    88 C    1.265    90 C    1.243    81 C    1.235
    55   6 C    3.920 --    91 C    1.406    89 C    1.271   127 O    1.054
    56   6 C    3.964 --    92 C    1.268    90 C    1.243    82 C    1.235
    57   6 C    3.973 --    93 C    1.719    83 C    1.131   115 H    0.966
    58   6 C    3.966 --    84 C    1.273    92 C    1.237    94 C    1.235
    59   6 C    3.963 --    95 C    1.261    25 C    1.248    26 C    1.228
    60   6 C    3.983 --    96 C    1.301   100 C    1.251    94 C    1.204
    61   6 C    3.961 --    97 C    1.279    88 C    1.242    95 C    1.222
    62   6 C    3.972 --    98 C    1.336    89 C    1.286    96 C    1.153
    63   6 C    3.961 --    90 C    1.261    99 C    1.245    97 C    1.239
    64   6 C    3.975 --    98 C    1.484    91 C    1.392   116 H    0.971
    65   6 C    3.961 --    99 C    1.282    92 C    1.239   100 C    1.221
    66   6 C    3.900 --    73 C    1.393    26 C    1.331   117 H    0.967
    67   6 C    3.959 --    74 C    1.298   100 C    1.282    80 C    1.182
    68   6 C    3.963 --    95 C    1.274    76 C    1.257    73 C    1.206
    69   6 C    3.965 --    74 C    1.534    96 C    1.304   118 H    0.962
    70   6 C    3.978 --    76 C    1.264    78 C    1.253    97 C    1.229
    71   6 C    3.980 --    80 C    1.297    78 C    1.243    99 C    1.215
    72   6 C    3.961 --    46 C    1.261    33 C    1.245    34 C    1.239
    73   6 C    3.972 --    66 C    1.393    47 C    1.215    68 C    1.206
    74   6 C    3.960 --    69 C    1.534    67 C    1.298   119 H    0.961
    75   6 C    3.961 --    34 C    1.279    48 C    1.242    35 C    1.222
    76   6 C    3.968 --    70 C    1.264    68 C    1.257    49 C    1.228
    77   6 C    3.963 --    35 C    1.261    50 C    1.248    36 C    1.228
    78   6 C    3.976 --    51 C    1.254    70 C    1.253    71 C    1.243
    79   6 C    3.935 --    44 C    1.490    36 C    1.250   120 H    0.966
    80   6 C    3.946 --    71 C    1.297    45 C    1.273    67 C    1.182
    81   6 C    3.964 --    43 C    1.268    46 C    1.243    54 C    1.235
    82   6 C    3.961 --    48 C    1.265    46 C    1.243    56 C    1.235
    83   6 C    3.971 --    47 C    1.538    49 C    1.150    57 C    1.131
    84   6 C    3.965 --    58 C    1.273    48 C    1.240    50 C    1.231
    85   6 C    3.863 --    49 C    1.363    51 C    1.239   128 O    1.048
    86   6 C    3.951 --    50 C    1.276    53 C    1.246    44 C    1.205
    87   6 C    3.951 --    45 C    1.570    51 C    1.262   121 H    0.967
    88   6 C    3.962 --    54 C    1.265    61 C    1.242    52 C    1.240
    89   6 C    3.976 --    62 C    1.286    55 C    1.271    53 C    1.186
    90   6 C    3.965 --    63 C    1.261    54 C    1.243    56 C    1.243
    91   6 C    3.965 --    55 C    1.406    64 C    1.392   122 H    0.968
    92   6 C    3.957 --    56 C    1.268    65 C    1.239    58 C    1.237
    93   6 C    3.908 --    57 C    1.719   128 O    1.091   123 H    0.959
    94   6 C    3.972 --    53 C    1.305    58 C    1.235    60 C    1.204
    95   6 C    3.979 --    68 C    1.274    59 C    1.261    61 C    1.222
    96   6 C    3.960 --    69 C    1.304    60 C    1.301    62 C    1.153
    97   6 C    3.964 --    61 C    1.279    63 C    1.239    70 C    1.229
    98   6 C    3.971 --    64 C    1.484    62 C    1.336   124 H    0.963
    99   6 C    3.961 --    65 C    1.282    63 C    1.245    71 C    1.215
   100   6 C    3.976 --    67 C    1.282    60 C    1.251    65 C    1.221
   101   1 H    0.997 --     1 C    0.967
   102   1 H    0.998 --     2 C    0.961
   103   1 H    0.998 --     4 C    0.963
   104   1 H    0.998 --     7 C    0.961
   105   1 H    0.998 --     9 C    0.962
   106   1 H    0.997 --    12 C    0.968
   107   1 H    0.997 --    16 C    0.966
   108   1 H    0.998 --    17 C    0.971
   109   1 H    0.996 --    27 C    0.959
   110   1 H    0.997 --    37 C    0.966
   111   1 H    0.998 --    39 C    0.967
   112   1 H    0.998 --    42 C    0.967
   113   1 H    0.998 --    45 C    0.961
   114   1 H    0.998 --    47 C    0.967
   115   1 H    0.997 --    57 C    0.966
   116   1 H    0.998 --    64 C    0.971
   117   1 H    0.998 --    66 C    0.967
   118   1 H    0.998 --    69 C    0.962
   119   1 H    0.998 --    74 C    0.961
   120   1 H    0.997 --    79 C    0.966
   121   1 H    0.997 --    87 C    0.967
   122   1 H    0.997 --    91 C    0.968
   123   1 H    0.996 --    93 C    0.959
   124   1 H    0.998 --    98 C    0.963
   125   8 O    2.345 --    21 C    1.054    24 C    1.044
   126   8 O    2.366 --    27 C    1.091    28 C    1.048
   127   8 O    2.345 --    55 C    1.054    44 C    1.044
   128   8 O    2.366 --    93 C    1.091    85 C    1.048
 ---------------------------------------------------------------------------

Topologies differ in total number of bonds
Writing topology from bond orders to xtbtopo.mol

molecular dipole:
                 x           y           z       tot (Debye)
 q only:       -0.000      -0.000       0.000
   full:       -0.000      -0.000       0.000       0.000
molecular quadrupole (traceless):
                xx          xy          yy          xz          yz          zz
 q only:       -2.747      26.588      28.930       0.009      -0.005     -26.183
  q+dip:       21.688      30.557      50.636       0.009      -0.005     -72.325
   full:        2.900      31.777      32.321       0.012      -0.004     -35.220

           -------------------------------------------------
          |                Geometry Summary                 |
           -------------------------------------------------

      molecular mass/u    :     1289.2617877
   center of mass at/Å    :       -0.0000000       0.0000000       0.0000008
  moments of inertia/u·Å² :        0.2764767E+05   0.3151120E+05   0.5915886E+05
rotational constants/cm⁻¹ :        0.6097307E-03   0.5349728E-03   0.2849553E-03

 * 158 selected distances

     #   Z          #   Z                                           value/Å
     1   6 C        7   6 C                                       1.3620302
     3   6 C        7   6 C                                       1.4138730
     1   6 C        8   6 C                                       1.4103956
     2   6 C        9   6 C                                       1.3669191
     5   6 C        9   6 C                                       1.4047701
     2   6 C       10   6 C                                       1.4070421
     6   6 C       10   6 C                                       1.4136879
     3   6 C       11   6 C                                       1.4107869
     4   6 C       17   6 C                                       1.3767136
    12   6 C       17   6 C                                       1.3898076
     4   6 C       18   6 C                                       1.4021507
    13   6 C       18   6 C                                       1.4104261
     5   6 C       19   6 C                                       1.4116137
     6   6 C       19   6 C                                       1.4212534
    14   6 C       19   6 C                                       1.4239886
     6   6 C       20   6 C                                       1.4244989
    12   6 C       21   6 C                                       1.3822343
    13   6 C       21   6 C                                       1.4085744
    13   6 C       22   6 C                                       1.4225823
    14   6 C       22   6 C                                       1.3980014
    15   6 C       22   6 C                                       1.4098425
    14   6 C       23   6 C                                       1.4152413
    15   6 C       24   6 C                                       1.4187382
    16   6 C       24   6 C                                       1.3699463
    15   6 C       25   6 C                                       1.4041532
    16   6 C       26   6 C                                       1.4166073
     8   6 C       28   6 C                                       1.4146657
     8   6 C       30   6 C                                       1.4158825
    11   6 C       30   6 C                                       1.4206136
    11   6 C       33   6 C                                       1.4242670
    20   6 C       33   6 C                                       1.4097217
    27   6 C       37   6 C                                       1.3390048
    28   6 C       38   6 C                                       1.3889628
    31   6 C       38   6 C                                       1.4158168
    29   6 C       39   6 C                                       1.3636219
    32   6 C       39   6 C                                       1.4232671
    30   6 C       40   6 C                                       1.4134384
    31   6 C       40   6 C                                       1.4105121
    34   6 C       40   6 C                                       1.4166478
    31   6 C       41   6 C                                       1.4124138
    32   6 C       41   6 C                                       1.4266080 (max)
    35   6 C       41   6 C                                       1.4082511
    32   6 C       42   6 C                                       1.3894998
    36   6 C       42   6 C                                       1.3996629
    20   6 C       43   6 C                                       1.4182947
    23   6 C       43   6 C                                       1.4147198
    23   6 C       52   6 C                                       1.4098652
    25   6 C       52   6 C                                       1.4166457
    25   6 C       59   6 C                                       1.4114193
    26   6 C       59   6 C                                       1.4205435
    26   6 C       66   6 C                                       1.3996629
    33   6 C       72   6 C                                       1.4175969
    34   6 C       72   6 C                                       1.4160004
    46   6 C       72   6 C                                       1.4125481
    47   6 C       73   6 C                                       1.4232671
    66   6 C       73   6 C                                       1.3894998
    68   6 C       73   6 C                                       1.4266080
    67   6 C       74   6 C                                       1.4070421
    69   6 C       74   6 C                                       1.3669191
    34   6 C       75   6 C                                       1.4083571
    35   6 C       75   6 C                                       1.4205054
    48   6 C       75   6 C                                       1.4151677
    49   6 C       76   6 C                                       1.4158168
    68   6 C       76   6 C                                       1.4124138
    70   6 C       76   6 C                                       1.4105121
    35   6 C       77   6 C                                       1.4106072
    36   6 C       77   6 C                                       1.4205435
    50   6 C       77   6 C                                       1.4114193
    51   6 C       78   6 C                                       1.4158825
    70   6 C       78   6 C                                       1.4134384
    71   6 C       78   6 C                                       1.4206136
    36   6 C       79   6 C                                       1.4166073
    44   6 C       79   6 C                                       1.3699463
    45   6 C       80   6 C                                       1.4138730
    71   6 C       80   6 C                                       1.4107869
    43   6 C       81   6 C                                       1.4107484
    46   6 C       81   6 C                                       1.4134857
    54   6 C       81   6 C                                       1.4177723
    46   6 C       82   6 C                                       1.4154670
    48   6 C       82   6 C                                       1.4092925
    56   6 C       82   6 C                                       1.4177723
    47   6 C       83   6 C                                       1.3636219
    48   6 C       84   6 C                                       1.4143536
    50   6 C       84   6 C                                       1.4166457
    58   6 C       84   6 C                                       1.4098652
    49   6 C       85   6 C                                       1.3889628
    51   6 C       85   6 C                                       1.4146657
    44   6 C       86   6 C                                       1.4187382
    50   6 C       86   6 C                                       1.4041532
    53   6 C       86   6 C                                       1.4098425
    45   6 C       87   6 C                                       1.3620302
    51   6 C       87   6 C                                       1.4103956
    52   6 C       88   6 C                                       1.4143536
    54   6 C       88   6 C                                       1.4092925
    61   6 C       88   6 C                                       1.4151677
    53   6 C       89   6 C                                       1.4225823
    55   6 C       89   6 C                                       1.4085744
    62   6 C       89   6 C                                       1.4104261
    54   6 C       90   6 C                                       1.4154670
    56   6 C       90   6 C                                       1.4134857
    63   6 C       90   6 C                                       1.4125481
    55   6 C       91   6 C                                       1.3822343
    64   6 C       91   6 C                                       1.3898076
    56   6 C       92   6 C                                       1.4107484
    58   6 C       92   6 C                                       1.4147198
    65   6 C       92   6 C                                       1.4182947
    57   6 C       93   6 C                                       1.3390048
    53   6 C       94   6 C                                       1.3980014
    58   6 C       94   6 C                                       1.4152413
    60   6 C       94   6 C                                       1.4239886
    59   6 C       95   6 C                                       1.4106072
    61   6 C       95   6 C                                       1.4205054
    68   6 C       95   6 C                                       1.4082511
    60   6 C       96   6 C                                       1.4116137
    69   6 C       96   6 C                                       1.4047701
    61   6 C       97   6 C                                       1.4083571
    63   6 C       97   6 C                                       1.4160004
    70   6 C       97   6 C                                       1.4166479
    62   6 C       98   6 C                                       1.4021507
    64   6 C       98   6 C                                       1.3767136
    63   6 C       99   6 C                                       1.4175969
    65   6 C       99   6 C                                       1.4097217
    71   6 C       99   6 C                                       1.4242670
    60   6 C      100   6 C                                       1.4212534
    65   6 C      100   6 C                                       1.4244989
    67   6 C      100   6 C                                       1.4136879
     1   6 C      101   1 H                                       1.0790996
     2   6 C      102   1 H                                       1.0778425
     4   6 C      103   1 H                                       1.0775514
     7   6 C      104   1 H                                       1.0776551
     9   6 C      105   1 H                                       1.0781201
    12   6 C      106   1 H                                       1.0780675
    16   6 C      107   1 H                                       1.0788729
    17   6 C      108   1 H                                       1.0798256
    27   6 C      109   1 H                                       1.0800890
    37   6 C      110   1 H                                       1.0771145
    39   6 C      111   1 H                                       1.0803083
    42   6 C      112   1 H                                       1.0807532
    45   6 C      113   1 H                                       1.0776551
    47   6 C      114   1 H                                       1.0803083
    57   6 C      115   1 H                                       1.0771145 (min)
    64   6 C      116   1 H                                       1.0798256
    66   6 C      117   1 H                                       1.0807532
    69   6 C      118   1 H                                       1.0781200
    74   6 C      119   1 H                                       1.0778425
    79   6 C      120   1 H                                       1.0788729
    87   6 C      121   1 H                                       1.0790996
    91   6 C      122   1 H                                       1.0780675
    93   6 C      123   1 H                                       1.0800890
    98   6 C      124   1 H                                       1.0775514
    21   6 C      125   8 O                                       1.3623090
    24   6 C      125   8 O                                       1.3648173
    27   6 C      126   8 O                                       1.3493546
    28   6 C      126   8 O                                       1.3653291
    44   6 C      127   8 O                                       1.3648173
    55   6 C      127   8 O                                       1.3623090
    85   6 C      128   8 O                                       1.3653291
    93   6 C      128   8 O                                       1.3493546

 * 3 distinct bonds (by element types)

   Z      Z             #   av. dist./Å        max./Å        min./Å
   1 H    6 C          24     1.0787750     1.0807532     1.0771145
   6 C    6 C         126     1.4073353     1.4266080     1.3390048
   6 C    8 O           8     1.3604525     1.3653291     1.3493546


optimized geometry written to: xtbopt.xyz


           -------------------------------------------------
          | TOTAL ENERGY             -243.484607255169 Eh   |
          | GRADIENT NORM               0.000410768317 Eh/α |
          | HOMO-LUMO GAP               1.093542376250 eV   |
           -------------------------------------------------

------------------------------------------------------------------------
 * finished run on 2025/12/08 at 00:32:33.786     
------------------------------------------------------------------------
 total:
 * wall-time:     0 d,  0 h,  0 min,  5.211 sec
 *  cpu-time:     0 d,  0 h,  0 min, 20.172 sec
 * ratio c/w:     3.871 speedup
 SCF:
 * wall-time:     0 d,  0 h,  0 min,  0.942 sec
 *  cpu-time:     0 d,  0 h,  0 min,  3.766 sec
 * ratio c/w:     3.997 speedup
 ANC optimizer:
 * wall-time:     0 d,  0 h,  0 min,  4.116 sec
 *  cpu-time:     0 d,  0 h,  0 min, 16.016 sec
 * ratio c/w:     3.891 speedup

normal termination of xtb
