      -----------------------------------------------------------      
     |                   =====================                   |     
     |                           x T B                           |     
     |                   =====================                   |     
     |                         S. Grimme                         |     
     |          Mulliken Center for Theoretical Chemistry        |     
     |                    University of Bonn                     |     
      -----------------------------------------------------------      

   * xtb version 6.7.1pre (5071a88) compiled by 'Marcel@Raven' on 2024-07-23

   xtb is free software: you can redistribute it and/or modify it under
   the terms of the GNU Lesser General Public License as published by
   the Free Software Foundation, either version 3 of the License, or
   (at your option) any later version.
   
   xtb is distributed in the hope that it will be useful,
   but WITHOUT ANY WARRANTY; without even the implied warranty of
   MERCHANTABILITY or FITNESS FOR A PARTICULAR PURPOSE.  See the
   GNU Lesser General Public License for more details.
   
   Cite this work as:
   * C. Bannwarth, E. Caldeweyher, S. Ehlert, A. Hansen, P. Pracht,
     J. Seibert, S. Spicher, S. Grimme, WIREs Comput. Mol. Sci., 2020, 11,
     e01493. DOI: 10.1002/wcms.1493
   
   for GFN2-xTB:
   * C. Bannwarth, S. Ehlert and S. Grimme., J. Chem. Theory Comput., 2019,
     15, 1652-1671. DOI: 10.1021/acs.jctc.8b01176
   for GFN1-xTB:
   * S. Grimme, C. Bannwarth, P. Shushkov, J. Chem. Theory Comput., 2017,
     13, 1989-2009. DOI: 10.1021/acs.jctc.7b00118
   for GFN0-xTB:
   * P. Pracht, E. Caldeweyher, S. Ehlert, S. Grimme, ChemRxiv, 2019, preprint.
     DOI: 10.26434/chemrxiv.8326202.v1
   for GFN-FF:
   * S. Spicher and S. Grimme, Angew. Chem. Int. Ed., 2020, 59, 15665-15673.
     DOI: 10.1002/anie.202004239
   
   for ALPB and GBSA implicit solvation:
   * S. Ehlert, M. Stahn, S. Spicher, S. Grimme, J. Chem. Theory Comput.,
     2021, 17, 4250-4261. DOI: 10.1021/acs.jctc.1c00471
   
   for ddCOSMO and CPCM-X implicit solvation:
   * M. Stahn, S. Ehlert, S. Grimme, J. Phys. Chem. A,
     2023, XX, XXXX-XXXX. DOI: 10.1021/acs.jpca.3c04382
   
   for DFT-D4:
   * E. Caldeweyher, C. Bannwarth and S. Grimme, J. Chem. Phys., 2017,
     147, 034112. DOI: 10.1063/1.4993215
   * E. Caldeweyher, S. Ehlert, A. Hansen, H. Neugebauer, S. Spicher,
     C. Bannwarth and S. Grimme, J. Chem. Phys., 2019, 150, 154122.
     DOI: 10.1063/1.5090222
   * E. Caldeweyher, J.-M. Mewes, S. Ehlert and S. Grimme, Phys. Chem. Chem. Phys.
     2020, 22, 8499-8512. DOI: 10.1039/D0CP00502A
   
   for sTDA-xTB:
   * S. Grimme and C. Bannwarth, J. Chem. Phys., 2016, 145, 054103.
     DOI: 10.1063/1.4959605
   
   in the mass-spec context:
   * V. Asgeirsson, C. Bauer and S. Grimme, Chem. Sci., 2017, 8, 4879.
     DOI: 10.1039/c7sc00601b
   * J. Koopman and S. Grimme, ACS Omega 2019, 4, 12, 15120-15133.
     DOI: 10.1021/acsomega.9b02011
   
   for metadynamics refer to:
   * S. Grimme, J. Chem. Theory Comput., 2019, 155, 2847-2862
     DOI: 10.1021/acs.jctc.9b00143
   
   for SPH calculations refer to:
   * S. Spicher and S. Grimme, J. Chem. Theory Comput., 2021, 17, 1701-1714
     DOI: 10.1021/acs.jctc.0c01306
   
   for ONIOM refer to:
   * C. Plett, A. Katbashev, S. Ehlert, S. Grimme, M. Bursch,
     Phys. Chem. Chem. Phys., 2023, 25, 17860-17868. DOI: 10.1039/D3CP02178E
   
   for DIPRO refer to:
   * J. Kohn, N. Gildemeister, S. Grimme, D. Fazzi, A. Hansen,
     J. Chem. Phys., 2023, just accepted.
   
   for PTB refer to:
   * S. Grimme, M. Mueller, A. Hansen, J. Chem. Phys., 2023, 158, 124111.
     DOI: 10.1063/5.0137838
   
   with help from (in alphabetical order)
   P. Atkinson, C. Bannwarth, F. Bohle, G. Brandenburg, E. Caldeweyher
   M. Checinski, S. Dohm, S. Ehlert, S. Ehrlich, I. Gerasimov, C. Hölzer
   A. Katbashev, J. Kohn, J. Koopman, C. Lavigne, S. Lehtola, F. März, M. Müller,
   F. Musil, H. Neugebauer, J. Pisarek, C. Plett, P. Pracht, F. Pultar,
   J. Seibert, P. Shushkov, S. Spicher, M. Stahn, M. Steiner, T. Strunk,
   J. Stückrath, T. Rose, and J. Unsleber
   
 * started run on 2025/12/08 at 00:32:33.826     
   ID    Z sym.   atoms
    1    6 C      1-100
    2    1 H      101-124
    3    8 O      125-128

           -------------------------------------------------
          |                Calculation Setup                |
           -------------------------------------------------

          program call               : xtb "C:\Users\LENOVO GAMING\Documents\GitHub\molecular-conductivity-sim\results\1.5nm-4Odoped-3percent\xtbopt.xyz" --sp
          coordinate file            : C:\Users\LENOVO GAMING\Documents\GitHub\molecular-conductivity-sim\results\1.5nm-4Odoped-3percent\xtbopt.xyz
          omp threads                :                    16


           -------------------------------------------------
          |                 G F N 2 - x T B                 |
           -------------------------------------------------

        Reference                      10.1021/acs.jctc.8b01176
      * Hamiltonian:
        H0-scaling (s, p, d)           1.850000    2.230000    2.230000
        zeta-weighting                 0.500000
      * Dispersion:
        s8                             2.700000
        a1                             0.520000
        a2                             5.000000
        s9                             5.000000
      * Repulsion:
        kExp                           1.500000    1.000000
        rExp                           1.000000
      * Coulomb:
        alpha                          2.000000
        third order                    shell-resolved
        anisotropic                    true
        a3                             3.000000
        a5                             4.000000
        cn-shift                       1.200000
        cn-exp                         4.000000
        max-rad                        5.000000

q/qsh data taken from xtbrestart
CAMM data taken from xtbrestart

          ...................................................
          :                      SETUP                      :
          :.................................................:
          :  # basis functions                 440          :
          :  # atomic orbitals                 440          :
          :  # shells                          232          :
          :  # electrons                       448          :
          :  max. iterations                   250          :
          :  Hamiltonian                  GFN2-xTB          :
          :  restarted?                       true          :
          :  GBSA solvation                  false          :
          :  PC potential                    false          :
          :  electronic temp.          300.0000000     K    :
          :  accuracy                    1.0000000          :
          :  -> integral cutoff          0.2500000E+02      :
          :  -> integral neglect         0.1000000E-07      :
          :  -> SCF convergence          0.1000000E-05 Eh   :
          :  -> wf. convergence          0.1000000E-03 e    :
          :  Broyden damping             0.4000000          :
          :  net charge                          0          :
          :  unpaired electrons                  0          :
          ...................................................

 iter      E             dE          RMSdq      gap      omega  full diag
   1   -248.0112036 -0.248011E+03  0.162E-05    1.09       0.0  T
   2   -248.0112036 -0.554223E-11  0.119E-05    1.09     741.7  T
   3   -248.0112036 -0.747491E-11  0.733E-06    1.09    1205.6  T

   *** convergence criteria satisfied after 3 iterations ***

         #    Occupation            Energy/Eh            Energy/eV
      -------------------------------------------------------------
         1        2.0000           -0.7447418             -20.2655
       ...           ...                  ...                  ...
       218        2.0000           -0.3788734             -10.3097
       219        2.0000           -0.3780847             -10.2882
       220        2.0000           -0.3693275             -10.0499
       221        2.0000           -0.3587888              -9.7631
       222        2.0000           -0.3502917              -9.5319
       223        2.0000           -0.3484541              -9.4819
       224        2.0000           -0.3376992              -9.1893 (HOMO)
       225                         -0.2975123              -8.0957 (LUMO)
       226                         -0.2888547              -7.8601
       227                         -0.2746273              -7.4730
       228                         -0.2685552              -7.3078
       229                         -0.2626568              -7.1473
       ...                                ...                  ...
       440                          0.7890581              21.4714
      -------------------------------------------------------------
                  HL-Gap            0.0401870 Eh            1.0935 eV
             Fermi-level           -0.3176058 Eh           -8.6425 eV

 SCC (total)                   0 d,  0 h,  0 min,  0.280 sec
 SCC setup                      ...        0 min,  0.002 sec (  0.714%)
 Dispersion                     ...        0 min,  0.010 sec (  3.571%)
 classical contributions        ...        0 min,  0.000 sec (  0.000%)
 integral evaluation            ...        0 min,  0.024 sec (  8.571%)
 iterations                     ...        0 min,  0.162 sec ( 57.857%)
 molecular gradient             ...        0 min,  0.078 sec ( 27.857%)
 printout                       ...        0 min,  0.004 sec (  1.429%)

         :::::::::::::::::::::::::::::::::::::::::::::::::::::
         ::                     SUMMARY                     ::
         :::::::::::::::::::::::::::::::::::::::::::::::::::::
         :: total energy            -243.484607255186 Eh    ::
         :: gradient norm              0.000410552934 Eh/a0 ::
         :: HOMO-LUMO gap              1.093542755147 eV    ::
         ::.................................................::
         :: SCC energy              -248.018982371246 Eh    ::
         :: -> isotropic ES            0.044332849599 Eh    ::
         :: -> anisotropic ES          0.012057633994 Eh    ::
         :: -> anisotropic XC          0.070544864692 Eh    ::
         :: -> dispersion             -0.282640903214 Eh    ::
         :: repulsion energy           4.534375116060 Eh    ::
         :: add. restraining           0.000000000000 Eh    ::
         :: total charge              -0.000000000000 e     ::
         :::::::::::::::::::::::::::::::::::::::::::::::::::::

           -------------------------------------------------
          |                Property Printout                |
           -------------------------------------------------

    * Orbital Energies and Occupations

         #    Occupation            Energy/Eh            Energy/eV
      -------------------------------------------------------------
         1        2.0000           -0.7447418             -20.2655
       ...           ...                  ...                  ...
       212        2.0000           -0.3986142             -10.8468
       213        2.0000           -0.3950564             -10.7500
       214        2.0000           -0.3903499             -10.6220
       215        2.0000           -0.3861194             -10.5068
       216        2.0000           -0.3856451             -10.4939
       217        2.0000           -0.3815405             -10.3822
       218        2.0000           -0.3788734             -10.3097
       219        2.0000           -0.3780847             -10.2882
       220        2.0000           -0.3693275             -10.0499
       221        2.0000           -0.3587888              -9.7631
       222        2.0000           -0.3502917              -9.5319
       223        2.0000           -0.3484541              -9.4819
       224        2.0000           -0.3376992              -9.1893 (HOMO)
       225                         -0.2975123              -8.0957 (LUMO)
       226                         -0.2888547              -7.8601
       227                         -0.2746273              -7.4730
       228                         -0.2685552              -7.3078
       229                         -0.2626568              -7.1473
       230                         -0.2609788              -7.1016
       231                         -0.2591425              -7.0516
       232                         -0.2522275              -6.8635
       233                         -0.2515562              -6.8452
       234                         -0.2472796              -6.7288
       235                         -0.2402586              -6.5378
       ...                                ...                  ...
       440                          0.7890581              21.4714
      -------------------------------------------------------------
                  HL-Gap            0.0401870 Eh            1.0935 eV
             Fermi-level           -0.3176058 Eh           -8.6425 eV

     #   Z          covCN         q      C6AA      α(0)
     1   6 C        2.914    -0.033    28.812     8.802
     2   6 C        2.917    -0.038    28.938     8.821
     3   6 C        2.977     0.006    27.888     8.662
     4   6 C        2.919    -0.046    29.144     8.853
     5   6 C        2.977     0.003    27.947     8.672
     6   6 C        2.989     0.002    27.979     8.677
     7   6 C        2.917    -0.037    28.910     8.817
     8   6 C        2.981    -0.012    28.312     8.728
     9   6 C        2.917    -0.036    28.904     8.816
    10   6 C        2.978     0.004    27.922     8.668
    11   6 C        2.989     0.003    27.941     8.671
    12   6 C        2.915    -0.060    29.490     8.905
    13   6 C        2.996    -0.016    28.394     8.741
    14   6 C        2.990    -0.006    28.152     8.704
    15   6 C        2.993    -0.017    28.429     8.746
    16   6 C        2.915    -0.073    29.819     8.955
    17   6 C        2.918    -0.030    28.753     8.793
    18   6 C        2.977     0.005    27.903     8.665
    19   6 C        2.990     0.002    27.963     8.674
    20   6 C        2.986    -0.000    28.032     8.685
    21   6 C        2.878     0.140    24.952     8.189
    22   6 C        2.996     0.006    27.875     8.661
    23   6 C        2.992     0.000    28.010     8.682
    24   6 C        2.870     0.136    25.024     8.200
    25   6 C        2.994    -0.001    28.037     8.686
    26   6 C        2.977     0.013    27.718     8.636
    27   6 C        2.815     0.097    25.846     8.330
    28   6 C        2.889     0.128    25.203     8.231
    29   6 C        2.979     0.017    27.627     8.622
    30   6 C        2.992     0.001    28.002     8.680
    31   6 C        2.993    -0.002    28.065     8.690
    32   6 C        2.975     0.013    27.710     8.635
    33   6 C        2.987    -0.001    28.050     8.688
    34   6 C        2.991     0.001    27.991     8.679
    35   6 C        2.991     0.002    27.973     8.676
    36   6 C        2.977     0.013    27.718     8.636
    37   6 C        2.903    -0.064    29.595     8.920
    38   6 C        2.990    -0.014    28.352     8.734
    39   6 C        2.917    -0.058    29.452     8.899
    40   6 C        2.990    -0.008    28.212     8.713
    41   6 C        2.994     0.000    28.014     8.682
    42   6 C        2.922    -0.052    29.295     8.876
    43   6 C        2.990    -0.001    28.039     8.686
    44   6 C        2.870     0.136    25.024     8.200
    45   6 C        2.917    -0.037    28.910     8.817
    46   6 C        2.991    -0.000    28.020     8.683
    47   6 C        2.917    -0.058    29.452     8.899
    48   6 C        2.992    -0.000    28.025     8.684
    49   6 C        2.990    -0.014    28.352     8.734
    50   6 C        2.994    -0.001    28.037     8.686
    51   6 C        2.981    -0.012    28.312     8.728
    52   6 C        2.992    -0.000    28.026     8.684
    53   6 C        2.996     0.006    27.875     8.661
    54   6 C        2.990    -0.002    28.072     8.691
    55   6 C        2.878     0.140    24.952     8.189
    56   6 C        2.991     0.000    28.019     8.683
    57   6 C        2.903    -0.064    29.595     8.920
    58   6 C        2.992     0.000    28.010     8.682
    59   6 C        2.996    -0.008    28.199     8.711
    60   6 C        2.990     0.002    27.963     8.674
    61   6 C        2.990    -0.000    28.027     8.684
    62   6 C        2.977     0.005    27.903     8.665
    63   6 C        2.989    -0.001    28.046     8.687
    64   6 C        2.918    -0.030    28.753     8.793
    65   6 C        2.986    -0.000    28.032     8.685
    66   6 C        2.922    -0.052    29.295     8.876
    67   6 C        2.978     0.004    27.922     8.668
    68   6 C        2.994     0.000    28.014     8.682
    69   6 C        2.917    -0.036    28.904     8.816
    70   6 C        2.990    -0.008    28.212     8.713
    71   6 C        2.989     0.003    27.941     8.671
    72   6 C        2.989    -0.001    28.046     8.687
    73   6 C        2.975     0.013    27.710     8.635
    74   6 C        2.917    -0.038    28.938     8.821
    75   6 C        2.990    -0.000    28.027     8.684
    76   6 C        2.993    -0.002    28.065     8.690
    77   6 C        2.996    -0.008    28.199     8.711
    78   6 C        2.992     0.001    28.002     8.680
    79   6 C        2.915    -0.073    29.819     8.955
    80   6 C        2.977     0.006    27.888     8.662
    81   6 C        2.991     0.000    28.019     8.683
    82   6 C        2.990    -0.002    28.072     8.691
    83   6 C        2.979     0.017    27.627     8.622
    84   6 C        2.992    -0.000    28.026     8.684
    85   6 C        2.889     0.128    25.203     8.231
    86   6 C        2.993    -0.017    28.429     8.746
    87   6 C        2.914    -0.033    28.812     8.802
    88   6 C        2.992    -0.000    28.025     8.684
    89   6 C        2.996    -0.016    28.394     8.741
    90   6 C        2.991    -0.000    28.020     8.683
    91   6 C        2.915    -0.060    29.490     8.905
    92   6 C        2.990    -0.001    28.039     8.686
    93   6 C        2.815     0.097    25.846     8.330
    94   6 C        2.990    -0.006    28.152     8.704
    95   6 C        2.991     0.002    27.973     8.676
    96   6 C        2.977     0.003    27.947     8.672
    97   6 C        2.991     0.001    27.991     8.679
    98   6 C        2.919    -0.046    29.144     8.853
    99   6 C        2.987    -0.001    28.050     8.688
   100   6 C        2.989     0.002    27.979     8.677
   101   1 H        0.926     0.042     2.417     2.431
   102   1 H        0.926     0.033     2.542     2.493
   103   1 H        0.926     0.037     2.490     2.468
   104   1 H        0.926     0.036     2.506     2.476
   105   1 H        0.926     0.033     2.541     2.493
   106   1 H        0.926     0.047     2.355     2.400
   107   1 H        0.926     0.045     2.385     2.415
   108   1 H        0.926     0.038     2.474     2.459
   109   1 H        0.926     0.053     2.285     2.364
   110   1 H        0.926     0.046     2.375     2.410
   111   1 H        0.926     0.029     2.594     2.518
   112   1 H        0.926     0.031     2.568     2.506
   113   1 H        0.926     0.036     2.506     2.476
   114   1 H        0.926     0.029     2.594     2.518
   115   1 H        0.926     0.046     2.375     2.410
   116   1 H        0.926     0.038     2.474     2.459
   117   1 H        0.926     0.031     2.568     2.506
   118   1 H        0.926     0.033     2.541     2.493
   119   1 H        0.926     0.033     2.542     2.493
   120   1 H        0.926     0.045     2.385     2.415
   121   1 H        0.926     0.042     2.417     2.431
   122   1 H        0.926     0.047     2.355     2.400
   123   1 H        0.926     0.053     2.285     2.364
   124   1 H        0.926     0.037     2.490     2.468
   125   8 O        1.710    -0.231    17.827     5.701
   126   8 O        1.709    -0.203    17.383     5.629
   127   8 O        1.710    -0.231    17.827     5.701
   128   8 O        1.709    -0.203    17.383     5.629

 Mol. C6AA /au·bohr⁶  :     340817.200375
 Mol. C8AA /au·bohr⁸  :    9323614.656084
 Mol. α(0) /au        :        950.234840


Wiberg/Mayer (AO) data.
largest (>0.10) Wiberg bond orders for each atom

 ---------------------------------------------------------------------------
     #   Z sym  total        # sym  WBO       # sym  WBO       # sym  WBO
 ---------------------------------------------------------------------------
     1   6 C    3.951 --     7 C    1.570     8 C    1.262   101 H    0.967
     2   6 C    3.960 --     9 C    1.534    10 C    1.298   102 H    0.961
     3   6 C    3.946 --    11 C    1.297     7 C    1.273    10 C    1.182
     4   6 C    3.971 --    17 C    1.484    18 C    1.336   103 H    0.963
     5   6 C    3.960 --     9 C    1.304    19 C    1.301    18 C    1.153
     6   6 C    3.976 --    10 C    1.282    19 C    1.251    20 C    1.221
     7   6 C    3.969 --     1 C    1.570     3 C    1.273   104 H    0.961
     8   6 C    3.966 --     1 C    1.262    30 C    1.254    28 C    1.239
     9   6 C    3.965 --     2 C    1.534     5 C    1.304   105 H    0.962
    10   6 C    3.959 --     2 C    1.298     6 C    1.282     3 C    1.182
    11   6 C    3.980 --     3 C    1.297    30 C    1.243    33 C    1.215
    12   6 C    3.965 --    21 C    1.406    17 C    1.392   106 H    0.968
    13   6 C    3.976 --    18 C    1.286    21 C    1.271    22 C    1.186
    14   6 C    3.972 --    22 C    1.305    23 C    1.235    19 C    1.204
    15   6 C    3.951 --    25 C    1.276    22 C    1.246    24 C    1.205
    16   6 C    3.935 --    24 C    1.490    26 C    1.250   107 H    0.966
    17   6 C    3.975 --     4 C    1.484    12 C    1.392   108 H    0.971
    18   6 C    3.972 --     4 C    1.336    13 C    1.286     5 C    1.153
    19   6 C    3.983 --     5 C    1.301     6 C    1.251    14 C    1.204
    20   6 C    3.961 --    33 C    1.282    43 C    1.239     6 C    1.221
    21   6 C    3.920 --    12 C    1.406    13 C    1.271   125 O    1.054
    22   6 C    3.955 --    14 C    1.305    15 C    1.246    13 C    1.186
    23   6 C    3.966 --    52 C    1.273    43 C    1.237    14 C    1.235
    24   6 C    3.907 --    16 C    1.490    15 C    1.205   125 O    1.044
    25   6 C    3.975 --    15 C    1.276    59 C    1.248    52 C    1.231
    26   6 C    3.970 --    66 C    1.331    16 C    1.250    59 C    1.228
    27   6 C    3.908 --    37 C    1.719   126 O    1.091   109 H    0.959
    28   6 C    3.863 --    38 C    1.363     8 C    1.239   126 O    1.048
    29   6 C    3.971 --    39 C    1.538    38 C    1.150    37 C    1.131
    30   6 C    3.976 --     8 C    1.254    40 C    1.253    11 C    1.243
    31   6 C    3.968 --    40 C    1.264    41 C    1.257    38 C    1.228
    32   6 C    3.972 --    42 C    1.393    39 C    1.215    41 C    1.206
    33   6 C    3.961 --    20 C    1.282    72 C    1.245    11 C    1.215
    34   6 C    3.964 --    75 C    1.279    72 C    1.239    40 C    1.229
    35   6 C    3.979 --    41 C    1.274    77 C    1.261    75 C    1.222
    36   6 C    3.970 --    42 C    1.331    79 C    1.250    77 C    1.228
    37   6 C    3.973 --    27 C    1.719    29 C    1.131   110 H    0.966
    38   6 C    3.973 --    28 C    1.363    31 C    1.228    29 C    1.150
    39   6 C    3.967 --    29 C    1.538    32 C    1.215   111 H    0.967
    40   6 C    3.978 --    31 C    1.264    30 C    1.253    34 C    1.229
    41   6 C    3.963 --    35 C    1.274    31 C    1.257    32 C    1.206
    42   6 C    3.900 --    32 C    1.393    36 C    1.331   112 H    0.967
    43   6 C    3.957 --    81 C    1.268    20 C    1.239    23 C    1.237
    44   6 C    3.907 --    79 C    1.490    86 C    1.205   127 O    1.044
    45   6 C    3.969 --    87 C    1.570    80 C    1.273   113 H    0.961
    46   6 C    3.965 --    72 C    1.261    82 C    1.243    81 C    1.243
    47   6 C    3.967 --    83 C    1.538    73 C    1.215   114 H    0.967
    48   6 C    3.962 --    82 C    1.265    75 C    1.242    84 C    1.240
    49   6 C    3.973 --    85 C    1.363    76 C    1.228    83 C    1.150
    50   6 C    3.975 --    86 C    1.276    77 C    1.248    84 C    1.231
    51   6 C    3.966 --    87 C    1.262    78 C    1.254    85 C    1.239
    52   6 C    3.965 --    23 C    1.273    88 C    1.240    25 C    1.231
    53   6 C    3.955 --    94 C    1.305    86 C    1.246    89 C    1.186
    54   6 C    3.961 --    88 C    1.265    90 C    1.243    81 C    1.235
    55   6 C    3.920 --    91 C    1.406    89 C    1.271   127 O    1.054
    56   6 C    3.964 --    92 C    1.268    90 C    1.243    82 C    1.235
    57   6 C    3.973 --    93 C    1.719    83 C    1.131   115 H    0.966
    58   6 C    3.966 --    84 C    1.273    92 C    1.237    94 C    1.235
    59   6 C    3.963 --    95 C    1.261    25 C    1.248    26 C    1.228
    60   6 C    3.983 --    96 C    1.301   100 C    1.251    94 C    1.204
    61   6 C    3.961 --    97 C    1.279    88 C    1.242    95 C    1.222
    62   6 C    3.972 --    98 C    1.336    89 C    1.286    96 C    1.153
    63   6 C    3.961 --    90 C    1.261    99 C    1.245    97 C    1.239
    64   6 C    3.975 --    98 C    1.484    91 C    1.392   116 H    0.971
    65   6 C    3.961 --    99 C    1.282    92 C    1.239   100 C    1.221
    66   6 C    3.900 --    73 C    1.393    26 C    1.331   117 H    0.967
    67   6 C    3.959 --    74 C    1.298   100 C    1.282    80 C    1.182
    68   6 C    3.963 --    95 C    1.274    76 C    1.257    73 C    1.206
    69   6 C    3.965 --    74 C    1.534    96 C    1.304   118 H    0.962
    70   6 C    3.978 --    76 C    1.264    78 C    1.253    97 C    1.229
    71   6 C    3.980 --    80 C    1.297    78 C    1.243    99 C    1.215
    72   6 C    3.961 --    46 C    1.261    33 C    1.245    34 C    1.239
    73   6 C    3.972 --    66 C    1.393    47 C    1.215    68 C    1.206
    74   6 C    3.960 --    69 C    1.534    67 C    1.298   119 H    0.961
    75   6 C    3.961 --    34 C    1.279    48 C    1.242    35 C    1.222
    76   6 C    3.968 --    70 C    1.264    68 C    1.257    49 C    1.228
    77   6 C    3.963 --    35 C    1.261    50 C    1.248    36 C    1.228
    78   6 C    3.976 --    51 C    1.254    70 C    1.253    71 C    1.243
    79   6 C    3.935 --    44 C    1.490    36 C    1.250   120 H    0.966
    80   6 C    3.946 --    71 C    1.297    45 C    1.273    67 C    1.182
    81   6 C    3.964 --    43 C    1.268    46 C    1.243    54 C    1.235
    82   6 C    3.961 --    48 C    1.265    46 C    1.243    56 C    1.235
    83   6 C    3.971 --    47 C    1.538    49 C    1.150    57 C    1.131
    84   6 C    3.965 --    58 C    1.273    48 C    1.240    50 C    1.231
    85   6 C    3.863 --    49 C    1.363    51 C    1.239   128 O    1.048
    86   6 C    3.951 --    50 C    1.276    53 C    1.246    44 C    1.205
    87   6 C    3.951 --    45 C    1.570    51 C    1.262   121 H    0.967
    88   6 C    3.962 --    54 C    1.265    61 C    1.242    52 C    1.240
    89   6 C    3.976 --    62 C    1.286    55 C    1.271    53 C    1.186
    90   6 C    3.965 --    63 C    1.261    54 C    1.243    56 C    1.243
    91   6 C    3.965 --    55 C    1.406    64 C    1.392   122 H    0.968
    92   6 C    3.957 --    56 C    1.268    65 C    1.239    58 C    1.237
    93   6 C    3.908 --    57 C    1.719   128 O    1.091   123 H    0.959
    94   6 C    3.972 --    53 C    1.305    58 C    1.235    60 C    1.204
    95   6 C    3.979 --    68 C    1.274    59 C    1.261    61 C    1.222
    96   6 C    3.960 --    69 C    1.304    60 C    1.301    62 C    1.153
    97   6 C    3.964 --    61 C    1.279    63 C    1.239    70 C    1.229
    98   6 C    3.971 --    64 C    1.484    62 C    1.336   124 H    0.963
    99   6 C    3.961 --    65 C    1.282    63 C    1.245    71 C    1.215
   100   6 C    3.976 --    67 C    1.282    60 C    1.251    65 C    1.221
   101   1 H    0.997 --     1 C    0.967
   102   1 H    0.998 --     2 C    0.961
   103   1 H    0.998 --     4 C    0.963
   104   1 H    0.998 --     7 C    0.961
   105   1 H    0.998 --     9 C    0.962
   106   1 H    0.997 --    12 C    0.968
   107   1 H    0.997 --    16 C    0.966
   108   1 H    0.998 --    17 C    0.971
   109   1 H    0.996 --    27 C    0.959
   110   1 H    0.997 --    37 C    0.966
   111   1 H    0.998 --    39 C    0.967
   112   1 H    0.998 --    42 C    0.967
   113   1 H    0.998 --    45 C    0.961
   114   1 H    0.998 --    47 C    0.967
   115   1 H    0.997 --    57 C    0.966
   116   1 H    0.998 --    64 C    0.971
   117   1 H    0.998 --    66 C    0.967
   118   1 H    0.998 --    69 C    0.962
   119   1 H    0.998 --    74 C    0.961
   120   1 H    0.997 --    79 C    0.966
   121   1 H    0.997 --    87 C    0.967
   122   1 H    0.997 --    91 C    0.968
   123   1 H    0.996 --    93 C    0.959
   124   1 H    0.998 --    98 C    0.963
   125   8 O    2.345 --    21 C    1.054    24 C    1.044
   126   8 O    2.366 --    27 C    1.091    28 C    1.048
   127   8 O    2.345 --    55 C    1.054    44 C    1.044
   128   8 O    2.366 --    93 C    1.091    85 C    1.048
 ---------------------------------------------------------------------------

Topologies differ in total number of bonds
Writing topology from bond orders to xtbtopo.mol

molecular dipole:
                 x           y           z       tot (Debye)
 q only:       -0.000      -0.000       0.000
   full:       -0.000      -0.000       0.000       0.000
molecular quadrupole (traceless):
                xx          xy          yy          xz          yz          zz
 q only:       -2.747      26.588      28.930       0.009      -0.005     -26.183
  q+dip:       21.688      30.557      50.637       0.009      -0.005     -72.324
   full:        2.899      31.777      32.321       0.012      -0.004     -35.220


           -------------------------------------------------
          | TOTAL ENERGY             -243.484607255186 Eh   |
          | GRADIENT NORM               0.000410552934 Eh/α |
          | HOMO-LUMO GAP               1.093542755147 eV   |
           -------------------------------------------------

------------------------------------------------------------------------
 * finished run on 2025/12/08 at 00:32:34.198     
------------------------------------------------------------------------
 total:
 * wall-time:     0 d,  0 h,  0 min,  0.368 sec
 *  cpu-time:     0 d,  0 h,  0 min,  4.688 sec
 * ratio c/w:    12.738 speedup
 SCF:
 * wall-time:     0 d,  0 h,  0 min,  0.282 sec
 *  cpu-time:     0 d,  0 h,  0 min,  3.609 sec
 * ratio c/w:    12.799 speedup

normal termination of xtb
