128
 energy: -243.484607255169 gnorm: 0.000410768317 xtb: 6.7.1pre (5071a88)
C           -2.96173531407080       -7.28517665061083       -0.00078618113263
C            1.34550292934051       -7.35666898658142        0.00065672283342
C           -0.82485944360696       -6.13214102888816       -0.00017202194917
C            5.68657716839427       -7.36372453232906        0.00094767093656
C            3.46583924777179       -6.18561973662504        0.00055448486910
C            1.33650964186925       -4.94346330743023        0.00013056823440
C           -1.60002264047954       -7.31457845336339       -0.00064101579617
C           -3.65950823431447       -6.05948167679306       -0.00042525420696
C            2.71234454504045       -7.37120995450366        0.00087242168300
C            0.61081063663254       -6.15667147229223        0.00017677082193
C           -1.49927969704022       -4.89299755310006       -0.00011163410376
C            7.73152845950493       -6.08279662649584        0.00024009236915
C            5.59110368227680       -4.95978757986377        0.00006747223502
C            3.46802683173699       -3.73041262681135       -0.00002015452613
C            5.59447372698451       -2.52879813511691       -0.00047199511527
C            7.72948991575678       -1.38200899741536       -0.00105319496793
C            7.06184349030058       -7.30061703717962        0.00080595718465
C            4.91116037263117       -6.19549724676435        0.00054755035066
C            2.75760677743477       -4.96453028462272        0.00021962568063
C            0.64481245236921       -3.69817147748914       -0.00000896634463
C            6.99882379204915       -4.91074072313400       -0.00011648973196
C            4.86601750998687       -3.73586356408685       -0.00016788623956
C            2.78042364469142       -2.49343666580233       -0.00015269546269
C            7.01305799095911       -2.54968947393795       -0.00073262988322
C            4.91975616832844       -1.29737531206277       -0.00050379555450
C            7.07375553203668       -0.12630668314993       -0.00096067178837
C           -7.09727433398806       -7.15094062287463       -0.00034532910050
C           -5.07304529715345       -6.00298805988253       -0.00031140636986
C           -7.18104016667568       -4.74161530285883        0.00036302616892
C           -2.91931546700605       -4.85248639552636       -0.00015123776204
C           -5.00705784515094       -3.57757474165290        0.00025656623996
C           -7.12519628220193       -2.31135620467202        0.00084367744754
C           -0.76468067806152       -3.67279254775942        0.00002614773753
C           -2.86483106232693       -2.39929271324904        0.00019075759402
C           -4.96937569655368       -1.14178206579126        0.00052629142901
C           -7.07375559835624        0.12630684051928        0.00089859339215
C           -7.83028858861961       -6.03039465342474        0.00012478762804
C           -5.74369764663436       -4.78666472608778        0.00009420654755
C           -7.83496395517498       -3.54501686521561        0.00078878301356
C           -3.59696813575044       -3.61208537859715        0.00007446354376
C           -5.69901582888965       -2.34627200142800        0.00054480521550
C           -7.77667525384828       -1.08404839820391        0.00108566894676
C            1.36580176387798       -2.47680586659403       -0.00002632802118
C           -7.01305802429141        2.54968960085086        0.00045018915970
C            1.60002239070529        7.31457831156549        0.00115335441785
C           -0.72723407849824       -1.21730370577111        0.00009071583403
C            7.83496382717027        3.54501700955769       -0.00048516732150
C           -2.81998697830178        0.04452481997928        0.00025929093268
C            5.74369749404130        4.78666476213570        0.00032394628459
C           -4.91975621530243        1.29737537670355        0.00039455175825
C            3.65950805273096        6.05948163063418        0.00092946784632
C            3.50318434970206       -1.28292583500312       -0.00026840307001
C           -4.86601751794968        3.73586360214307       -0.00012754505795
C            1.41087256063571       -0.02212558150802       -0.00005058609555
C           -6.99882374246299        4.91074078464868       -0.00040267361589
C           -0.68605921645004        1.24061782998402        0.00007840924290
C            7.83028842398561        6.03039471616896        0.00046731212222
C           -2.78042368861025        2.49343666061282        0.00005808217346
C            5.65363259844138       -0.09175123405975       -0.00064763146560
C           -2.75760675991557        4.96453026773324       -0.00046979862632
C            3.54911886028105        1.16835018838449       -0.00022341681229
C           -4.91116026507350        6.19549721439006       -0.00109300501688
C            1.44919508888055        2.43141405816889        0.00002983891156
C           -7.06184333889689        7.30061698794622       -0.00159625031537
C           -0.64481250797904        3.69817143577291        0.00000714246935
C            7.77667516533143        1.08404857965171       -0.00104093489020
C           -0.61081064434454        6.15667139927628       -0.00023873520819
C            5.69901573572019        2.34627207991451       -0.00037682829930
C           -2.71234435226732        7.37120983687602       -0.00141032002086
C            3.59696803972729        3.61208537893839        0.00016123846283
C            1.49927960432067        4.89299749908932        0.00031063151048
C           -1.44919516491974       -2.43141410104613        0.00005047819369
C            7.12519618980301        2.31135634399349       -0.00067389163880
C           -1.34550276948350        7.35666887341600       -0.00100135814270
C           -3.54911893094966       -1.16835017285934        0.00028771990633
C            5.00705774299121        3.57757478068806        0.00001854430290
C           -5.65363266153507        0.09175132425666        0.00061183783409
C            2.91931535414610        4.85248636479234        0.00046756373168
C           -7.72948997280186        1.38200917106673        0.00085970159310
C            0.82485934040744        6.13214095481971        0.00037988020306
C            0.68605915707479       -1.24061786444247       -0.00006554733349
C           -1.41087260997062        0.02212554899334        0.00007056328445
C            7.18104001990898        4.74161538631724        0.00007028967230
C           -3.50318439872858        1.28292584840268        0.00020459284436
C            5.07304511412904        6.00298803205058        0.00086027060796
C           -5.59447375677984        2.52879820544115        0.00024383148960
C            2.96173504059918        7.28517650561724        0.00144617503350
C            2.81998692020119       -0.04452480266315       -0.00025155915970
C           -5.59110363188563        4.95978761139194       -0.00051818920969
C            0.72723401838392        1.21730366690520       -0.00005339527537
C           -7.73152836270338        6.08279665535860       -0.00093032667357
C           -1.36580180845990        2.47680583054754        0.00000082535741
C            7.09727414196738        7.15094060700843        0.00106577623067
C           -3.46802683814319        3.73041262837958       -0.00019037921371
C            4.96937562201367        1.14178213480289       -0.00046077276786
C           -3.46583914247219        6.18561969670033       -0.00099524864518
C            2.86483098602628        2.39929271345473       -0.00006818810630
C           -5.68657701716703        7.36372445688715       -0.00166554155626
C            0.76468061295258        3.67279249858166        0.00005660179582
C           -1.33650965956957        4.94346326076943       -0.00022852239738
H           -3.53032900790795       -8.20232262785752       -0.00116234709314
H            0.83061623502478       -8.30357753495622        0.00093232554133
H            5.21496928970211       -8.33259114937238        0.00138769362840
H           -1.11142927879688       -8.27510782436964       -0.00095322709649
H            3.21393962909601       -8.32553948663606        0.00127332051138
H            8.80849608680006       -6.03411457132002        0.00009902779149
H            8.80767225592031       -1.42059911810803       -0.00129567604578
H            7.63746217478286       -8.21422857261888        0.00113410167531
H           -7.51667739974945       -8.14627631412608       -0.00058716613798
H           -8.90609689216479       -6.08342286631130        0.00029429006819
H           -8.91498353368998       -3.52004838985918        0.00102536901404
H           -8.85719104117499       -1.06140257028834        0.00134374747417
H            1.11142885805134        8.27510755110392        0.00162039328606
H            8.91498341908613        3.52004857600739       -0.00071657791405
H            8.90609672694032        6.08342297714183        0.00031579322377
H           -7.63746198680967        8.21422848959178       -0.00206037403845
H            8.85719096209114        1.06140279076758       -0.00130920173237
H           -3.21393933984896        8.32553928171234       -0.00204488324894
H           -0.83061589686171        8.30357730777558       -0.00138471420693
H           -8.80767231935288        1.42059931969180        0.00106864106956
H            3.53032865793783        8.20232240204769        0.00206016736494
H           -8.80849600984153        6.03411463306809       -0.00084217771923
H            7.51667719521668        8.14627626551763        0.00143356698086
H           -5.21496909551835        8.33259101809772       -0.00218243146049
O            7.68827747065646       -3.73577740257988       -0.00063699340161
O           -5.74847230973142       -7.18954673747095       -0.00057056134732
O           -7.68827746506001        3.73577753211269        0.00021621963248
O            5.74847210476698        7.18954667657146        0.00127784286324
