128
 energy: -243.470012852984 gnorm: 0.052335961222 xtb: 6.7.1pre (5071a88)
C           -2.98755400000000       -7.33856000000000       -0.00108400000000
C            1.35132600000000       -7.41187200000000        0.00072700000000
C           -0.83504400000000       -6.17525200000000       -0.00025600000000
C            5.72789900000000       -7.41757400000000        0.00107000000000
C            3.48596300000000       -6.23171000000000        0.00061000000000
C            1.34344700000000       -4.97983900000000        0.00045600000000
C           -1.61666500000000       -7.36704900000000       -0.00071200000000
C           -3.68798800000000       -6.10346000000000       -0.00070900000000
C            2.72699000000000       -7.42610400000000        0.00111700000000
C            0.61331700000000       -6.20123300000000        0.00030600000000
C           -1.51226700000000       -4.92789900000000       -0.00063700000000
C            7.78655400000000       -6.11595800000000        0.00026500000000
C            5.62487300000000       -4.99246800000000       -0.00002900000000
C            3.49401700000000       -3.75626700000000        0.00055400000000
C            5.62634700000000       -2.54758000000000       -0.00028400000000
C            7.78168600000000       -1.39732600000000       -0.00145200000000
C            7.11334100000000       -7.34815500000000        0.00094400000000
C            4.94615100000000       -6.24001800000000        0.00076700000000
C            2.77698800000000       -5.00079000000000        0.00027000000000
C            0.64639700000000       -3.72370900000000       -0.00121300000000
C            7.03749500000000       -4.95256200000000       -0.00003400000000
C            4.89782800000000       -3.76132400000000       -0.00019200000000
C            2.79954600000000       -2.51100200000000       -0.00161800000000
C            7.04976600000000       -2.55908300000000       -0.00099900000000
C            4.95219600000000       -1.30773800000000       -0.00134100000000
C            7.12294000000000       -0.12884800000000       -0.00128600000000
C           -7.15015100000000       -7.20374700000000       -0.00045500000000
C           -5.10587900000000       -6.02896300000000       -0.00041200000000
C           -7.23560500000000       -4.77912900000000        0.00030400000000
C           -2.94447500000000       -4.88705500000000        0.00008900000000
C           -5.04258100000000       -3.60075700000000        0.00059500000000
C           -7.17789800000000       -2.32760300000000        0.00106400000000
C           -0.77063500000000       -3.69782800000000        0.00138400000000
C           -2.88623600000000       -2.41520800000000        0.00211900000000
C           -5.00452800000000       -1.14882900000000        0.00156400000000
C           -7.12294000000000        0.12884800000000        0.00122400000000
C           -7.88229900000000       -6.07706000000000        0.00009700000000
C           -5.78764000000000       -4.81706500000000       -0.00010800000000
C           -7.89158500000000       -3.57462300000000        0.00105300000000
C           -3.62488100000000       -3.63592800000000       -0.00111500000000
C           -5.73860500000000       -2.35987700000000        0.00020200000000
C           -7.83078300000000       -1.09167200000000        0.00160000000000
C            1.37487500000000       -2.49367300000000        0.00232300000000
C           -7.04976600000000        2.55908300000000        0.00069400000000
C            1.61666500000000        7.36704900000000        0.00132100000000
C           -0.73257900000000       -1.22617600000000        0.00360400000000
C            7.89158400000000        3.57462300000000       -0.00075200000000
C           -2.83749100000000        0.04511000000000        0.00293500000000
C            5.78763900000000        4.81706500000000        0.00052200000000
C           -4.95219600000000        1.30773800000000        0.00122300000000
C            3.68798800000000        6.10346000000000        0.00122800000000
C            3.52530100000000       -1.29218500000000        0.00167300000000
C           -4.89782800000000        3.76132400000000       -0.00009700000000
C            1.42098300000000       -0.02245300000000        0.00382800000000
C           -7.03749400000000        4.95256200000000       -0.00045700000000
C           -0.69053200000000        1.25026900000000        0.00352800000000
C            7.88229900000000        6.07706000000000        0.00049700000000
C           -2.79954600000000        2.51100200000000        0.00152400000000
C            5.69210400000000       -0.09398500000000       -0.00017400000000
C           -2.77698800000000        5.00079100000000       -0.00052500000000
C            3.57299100000000        1.17651200000000        0.00204800000000
C           -4.94615100000000        6.24001800000000       -0.00131900000000
C            1.46017800000000        2.44685600000000        0.00271600000000
C           -7.11334000000000        7.34815500000000       -0.00176000000000
C           -0.64639700000000        3.72370900000000        0.00121200000000
C            7.83078200000000        1.09167300000000       -0.00155300000000
C           -0.61331700000000        6.20123200000000       -0.00039100000000
C            5.73860400000000        2.35987700000000       -0.00003900000000
C           -2.72699000000000        7.42610400000000       -0.00170400000000
C            3.62488100000000        3.63592800000000        0.00135200000000
C            1.51226700000000        4.92789900000000        0.00083800000000
C           -1.46017800000000       -2.44685700000000       -0.00263700000000
C            7.17789800000000        2.32760300000000       -0.00089800000000
C           -1.35132600000000        7.41187200000000       -0.00115000000000
C           -3.57299100000000       -1.17651200000000       -0.00198100000000
C            5.04258100000000        3.60075700000000       -0.00033000000000
C           -5.69210400000000        0.09398500000000        0.00013900000000
C            2.94447500000000        4.88705500000000        0.00022900000000
C           -7.78168600000000        1.39732700000000        0.00124700000000
C            0.83504400000000        6.17525200000000        0.00048900000000
C            0.69053200000000       -1.25026900000000       -0.00351700000000
C           -1.42098200000000        0.02245300000000       -0.00380500000000
C            7.23560400000000        4.77912900000000        0.00012300000000
C           -3.52530100000000        1.29218500000000       -0.00173300000000
C            5.10587800000000        6.02896300000000        0.00096000000000
C           -5.62634700000000        2.54758000000000        0.00005200000000
C            2.98755300000000        7.33855900000000        0.00181400000000
C            2.83749100000000       -0.04510900000000       -0.00293000000000
C           -5.62487300000000        4.99246800000000       -0.00040900000000
C            0.73257900000000        1.22617600000000       -0.00356700000000
C           -7.78655300000000        6.11595800000000       -0.00095300000000
C           -1.37487500000000        2.49367300000000       -0.00234500000000
C            7.15015100000000        7.20374700000000        0.00117500000000
C           -3.49401700000000        3.75626700000000       -0.00075900000000
C            5.00452800000000        1.14882900000000       -0.00150900000000
C           -3.48596300000000        6.23171000000000       -0.00106400000000
C            2.88623600000000        2.41520800000000       -0.00200500000000
C           -5.72789900000000        7.41757400000000       -0.00181000000000
C            0.77063500000000        3.69782800000000       -0.00130300000000
C           -1.34344700000000        4.97983900000000       -0.00055600000000
H           -3.55012900000000       -8.26524000000000       -0.00123300000000
H            0.83421900000000       -8.36366100000000        0.00129800000000
H            5.25542900000000       -8.39266100000000        0.00165700000000
H           -1.12706100000000       -8.33314900000000       -0.00126300000000
H            3.22891300000000       -8.38676100000000        0.00120800000000
H            8.86989700000000       -6.06021200000000        0.00016900000000
H            8.86603800000000       -1.44594100000000       -0.00157100000000
H            7.69443300000000       -8.26556900000000        0.00122300000000
H           -7.54994100000000       -8.20943300000000       -0.00069500000000
H           -8.96425200000000       -6.15268800000000        0.00030600000000
H           -8.97833800000000       -3.55144800000000        0.00117100000000
H           -8.91782200000000       -1.06887700000000        0.00161700000000
H            1.12706100000000        8.33314900000000        0.00217500000000
H            8.97833800000000        3.55144800000000       -0.00085800000000
H            8.96425200000000        6.15268900000000        0.00031700000000
H           -7.69443200000000        8.26556900000000       -0.00219100000000
H            8.91782200000000        1.06887700000000       -0.00157700000000
H           -3.22891300000000        8.38676000000000       -0.00204600000000
H           -0.83421800000000        8.36366100000000       -0.00194000000000
H           -8.86603800000000        1.44594100000000        0.00133200000000
H            3.55012800000000        8.26523900000000        0.00226300000000
H           -8.86989700000000        6.06021200000000       -0.00091300000000
H            7.54994100000000        8.20943300000000        0.00155000000000
H           -5.25542900000000        8.39266100000000       -0.00250100000000
O            7.72504700000000       -3.75810600000000       -0.00075300000000
O           -5.78181800000000       -7.22316500000000       -0.00072900000000
O           -7.72504700000000        3.75810600000000        0.00033800000000
O            5.78181700000000        7.22316500000000        0.00142800000000
128
 energy: -243.480378924019 gnorm: 0.025271412167 xtb: 6.7.1pre (5071a88)
C           -2.97754882386453       -7.31092537189406       -0.00093097297740
C            1.35142474489623       -7.38428874758728        0.00078292101364
C           -0.83123879888884       -6.15561007616428       -0.00018366808464
C            5.71583395195064       -7.39147964211877        0.00106103853047
C            3.47952802474917       -6.21189170729583        0.00064570716032
C            1.34118031735745       -4.96524321766426        0.00029439840378
C           -1.61266888468796       -7.33981699165260       -0.00078677205063
C           -3.67810873961253       -6.08315081457147       -0.00061829647691
C            2.72154503704136       -7.39913985687013        0.00096920486047
C            0.61228159295371       -6.18139504060898        0.00021311095631
C           -1.50794270029305       -4.91316340344799       -0.00031810347109
C            7.76292334746440       -6.10274857570431        0.00026224142825
C            5.61079424108937       -4.98066401699842        0.00007629159957
C            3.48282496976467       -3.74714275615184        0.00024631909814
C            5.61213645523525       -2.54060182110746       -0.00038649149073
C            7.75650655362098       -1.39037968539652       -0.00128390347372
C            7.09351612851771       -7.32549646044184        0.00090857805278
C            4.93308330873425       -6.22206296546683        0.00064532705723
C            2.76933539423912       -4.98682621744257        0.00027489676736
C            0.64563631714834       -3.71429849135793       -0.00031296417222
C            7.02095273568160       -4.93634319912884       -0.00011404186287
C            4.88430962226551       -3.75264702898187       -0.00020646330123
C            2.79183051555448       -2.50488684653221       -0.00049418855046
C            7.03305075391136       -2.55587668213078       -0.00090081980233
C            4.93868540937063       -1.30364142218947       -0.00076312394079
C            7.10102648221680       -0.12712550358378       -0.00120132775991
C           -7.13083942715957       -7.17984146241160       -0.00042373136025
C           -5.09514720923712       -6.01837943509957       -0.00040233947618
C           -7.21354227581560       -4.76291178040249        0.00035149626208
C           -2.93492701541846       -4.87235980156985       -0.00017239033388
C           -5.02978561945254       -3.59132014615582        0.00032085707954
C           -7.15511807247239       -2.32147372896761        0.00101438075559
C           -0.76864719540262       -3.68821689224803        0.00036010806418
C           -2.87899737800675       -2.40938567661943        0.00061113676903
C           -4.99137405236533       -1.14611798023385        0.00079168378946
C           -7.10102649390629        0.12712546607592        0.00113457475611
C           -7.86102365959378       -6.05661317641856        0.00009551357672
C           -5.77118361299305       -4.80415556720188       -0.00004935945404
C           -7.86604514862143       -3.56245176129340        0.00092044516655
C           -3.61527168508075       -3.62688594542475       -0.00035386795010
C           -5.72306432110045       -2.35457530360017        0.00042678684332
C           -7.80494748575912       -1.08920888930562        0.00133120819686
C            1.37118164694912       -2.48782858533795        0.00063172942091
C           -7.03305078120317        2.55587677159150        0.00061672947284
C            1.61266849441387        7.33981695695451        0.00139360538912
C           -0.73089311286623       -1.22319149982850        0.00091413897087
C            7.86604463165602        3.56245199736818       -0.00061893287825
C           -2.83119421131709        0.04473069417739        0.00088968617676
C            5.77118315765168        4.80415566687168        0.00046004157658
C           -4.93868545617404        1.30364146167261        0.00065003408006
C            3.67810863810043        6.08315082075024        0.00113357356849
C            3.51639912031274       -1.28891689288205        0.00030612613265
C           -4.88430950474258        3.75264701544686       -0.00008332618513
C            1.41724654126261       -0.02233104860911        0.00096512315236
C           -7.02095225879456        4.93634333924346       -0.00039689172936
C           -0.68877000969017        1.24694914077878        0.00087404239547
C            7.86102351905312        6.05661326020644        0.00049651792026
C           -2.79183048245766        2.50488681305191        0.00040122853904
C            5.67629490607021       -0.09331178005452       -0.00052932842692
C           -2.76933536404639        4.98682653226932       -0.00052741954654
C            3.56458465430074        1.17354081474179        0.00040848043831
C           -4.93308309253677        6.22206293762921       -0.00119260763787
C            1.45675090758425        2.44136107148652        0.00072886908658
C           -7.09351564048762        7.32549647558626       -0.00171395220622
C           -0.64563628652683        3.71429836119285        0.00031278597798
C            7.80494704048505        1.08920942896040       -0.00128679072185
C           -0.61228164568704        6.18139452267690       -0.00029190329456
C            5.72306382339562        2.35457539493379       -0.00026389235498
C           -2.72154475339664        7.39913984784959       -0.00155484152551
C            3.61527155372447        3.62688602238182        0.00058553153739
C            1.50794256474266        4.91316338857811        0.00051848960122
C           -1.45675096460120       -2.44136150693942       -0.00065190925798
C            7.15511814179711        2.32147385336844       -0.00084772491118
C           -1.35142459952343        7.38428864149813       -0.00119851264828
C           -3.56458469663013       -1.17354079008412       -0.00034616740886
C            5.02978558858063        3.59132021129424       -0.00005338506487
C           -5.67629492193736        0.09331181910685        0.00049058892709
C            2.93492686357047        4.87235976402049        0.00048973988450
C           -7.75650659117799        1.39038018204034        0.00108570895374
C            0.83123859783636        6.15561002564801        0.00041191227188
C            0.68876989273299       -1.24694925898430       -0.00086097997611
C           -1.41724623400034        0.02233095949592       -0.00094430696239
C            7.21354178233559        4.76291193729677        0.00007656157433
C           -3.51639916103003        1.28891683293967       -0.00036885536388
C            5.09514669923152        6.01837950657005        0.00094583482380
C           -5.61213640757849        2.54060188229750        0.00015880402197
C            2.97754812305568        7.31092493098360        0.00166343312593
C            2.83119410694761       -0.04473033736746       -0.00088332791954
C           -5.61079412616001        4.98066405185064       -0.00051857666486
C            0.73089298390504        1.22319147988234       -0.00087768399265
C           -7.76292289615901        6.10274863168892       -0.00095119461676
C           -1.37118170616781        2.48782849806575       -0.00065457876267
C            7.13083936518994        7.17984148305546        0.00114290203658
C           -3.48282491413775        3.74714267027369       -0.00045308385956
C            4.99137409353459        1.14611804226958       -0.00073151099204
C           -3.47952782247817        6.21189158288169       -0.00109502287641
C            2.87899728589591        2.40938570420543       -0.00049431007285
C           -5.71583369560969        7.39147961412274       -0.00179758258728
C            0.76864709277306        3.68821688765127       -0.00028103062695
C           -1.34118030022976        4.96524313081981       -0.00039456335539
H           -3.54111341810701       -8.23381491882749       -0.00129123728295
H            0.83781705633260       -8.33446259759814        0.00117887029788
H            5.24882517463636       -8.36475993068601        0.00160881450616
H           -1.12686378831221       -8.30428324383234       -0.00116591756883
H            3.22173237586094       -8.35716464290742        0.00127711588009
H            8.84195493424247       -6.05329046818532        0.00015336592144
H            8.83671470813951       -1.43565473455035       -0.00160306464478
H            7.67295064945716       -8.23997938101287        0.00123376878462
H           -7.53701403809118       -8.18132322624602       -0.00067118099299
H           -8.93929082502698       -6.12596434191495        0.00029188813264
H           -8.94891129547722       -3.53968450359782        0.00120604609047
H           -8.88824589148209       -1.06627359461394        0.00169756298004
H            1.12686322723037        8.30428306213295        0.00202527644612
H            8.94891107420470        3.53968484071292       -0.00089592959129
H            8.93929064657098        6.12596497237787        0.00032633075185
H           -7.67295018793287        8.23997934023311       -0.00219310178762
H            8.88824577012293        1.06627349787203       -0.00165890778226
H           -3.22173216644136        8.35716422546458       -0.00211359509485
H           -0.83781622057632        8.33446219960435       -0.00178006118186
H           -8.83671475666991        1.43565454444770        0.00136709874635
H            3.54111273428249        8.23381440585204        0.00230374213801
H           -8.84195472840366        6.05329051742053       -0.00089409844497
H            7.53701383853015        8.18132323609327        0.00152082693560
H           -5.24882478091433        8.36475981883842       -0.00244278509611
O            7.70900124632911       -3.74965325318983       -0.00073911166428
O           -5.77190632004840       -7.20902700127698       -0.00068714174938
O           -7.70900129561842        3.74965340139491        0.00032447762442
O            5.77190579339019        7.20902703972179        0.00138652281899
128
 energy: -243.484289909108 gnorm: 0.006627626155 xtb: 6.7.1pre (5071a88)
C           -2.96672769993417       -7.28854956449601       -0.00090146990396
C            1.34802861642929       -7.36137797759589        0.00076121842529
C           -0.82683757847892       -6.13728949720431       -0.00021606182024
C            5.69785247126031       -7.36932931135628        0.00105639476036
C            3.47119046712846       -6.19249149034490        0.00064092288721
C            1.33825900809405       -4.94951927130996        0.00015514583836
C           -1.60477947973392       -7.31795086599203       -0.00074201542108
C           -3.66647723512430       -6.06437106671627       -0.00053206859963
C            2.71534939088667       -7.37647543097774        0.00093952535487
C            0.61096446916673       -6.16249685638258        0.00022336068765
C           -1.50256307005227       -4.89804312636080       -0.00013223455705
C            7.74101424903590       -6.08775672817738        0.00027210714414
C            5.59705421236912       -4.96652304660237        0.00011156142965
C            3.47179074932878       -3.73576784355748        0.00001231828176
C            5.59860628086584       -2.53239607318931       -0.00050506917982
C            7.73444987488328       -1.38380408051435       -0.00122712105303
C            7.07256277792249       -7.30553879036807        0.00087976740903
C            4.91825967241085       -6.20331476880995        0.00060717389014
C            2.76118883348715       -4.97116834757806        0.00031219347155
C            0.64502051295625       -3.70301715745206        0.00014096840086
C            7.00545379327207       -4.91739121090704       -0.00013269609303
C            4.87097819009318       -3.74151870124482       -0.00013274693333
C            2.78362606691659       -2.49715175167060        0.00007760258275
C            7.01765011803456       -2.55187401229905       -0.00083136090860
C            4.92458388979457       -1.29918032032544       -0.00042390196236
C            7.08027109252176       -0.12626639864006       -0.00110474710094
C           -7.10845192908151       -7.15753608590700       -0.00040961064065
C           -5.08179568192056       -6.00767809575280       -0.00041298352403
C           -7.19120792962584       -4.74668139600716        0.00036624675320
C           -2.92437854973499       -4.85741664125506       -0.00029712045261
C           -5.01471818952515       -3.58134851882483        0.00014142764616
C           -7.13319461086198       -2.31419593302934        0.00094266083238
C           -0.76614909210394       -3.67712987140285       -0.00014368088184
C           -2.86965278485022       -2.40228204228902       -0.00010062806029
C           -4.97602815915458       -1.14295585205002        0.00042255811857
C           -7.08027115584864        0.12626649888356        0.00104094189619
C           -7.84001597018468       -6.03668143621635        0.00009695100153
C           -5.75282568356599       -4.79121074233934        0.00003224748642
C           -7.84304101739458       -3.54923116820680        0.00087057030177
C           -3.60332663547071       -3.61639647025305        0.00007183841537
C           -5.70628533672147       -2.34863478581907        0.00059044991639
C           -7.78255606732359       -1.08550377104862        0.00127292412748
C            1.36729217074950       -2.48032999259945       -0.00019367596920
C           -7.01765017652404        2.55187416774706        0.00055136691641
C            1.60477904713282        7.31795072184426        0.00132183368325
C           -0.72849174096685       -1.21916563663426       -0.00027920101185
C            7.84304088362962        3.54923145498265       -0.00056999563871
C           -2.82343378502967        0.04454373812488       -0.00008906063858
C            5.75282554293772        4.79121085906982        0.00037871978153
C           -4.92458396945461        1.29918040958042        0.00031475436058
C            3.66647699860833        6.06437102561957        0.00104677723553
C            3.50678495301462       -1.28486573391415       -0.00038419593187
C           -4.87097812052643        3.74151871226466       -0.00015706869739
C            1.41272674608508       -0.02224566001182       -0.00034419281914
C           -7.00545370939071        4.91739137047454       -0.00038129827382
C           -0.68679136113693        1.24262442774726       -0.00026894541901
C            7.84001570360546        6.03668157282987        0.00049259401714
C           -2.78362606521232        2.49715175016731       -0.00016945823523
C            5.65974529156879       -0.09248322599093       -0.00075233846325
C           -2.76118880184717        4.97116822363399       -0.00056196220141
C            3.55410307671102        1.16981656786028       -0.00035905106785
C           -4.91825944699424        6.20331472258983       -0.00115835221650
C            1.45196605535598        2.43441689010654       -0.00015295679885
C           -7.07256259562316        7.30553877800763       -0.00168294119257
C           -0.64502050231961        3.70301702542834       -0.00014105789713
C            7.78255600457900        1.08550399115048       -0.00122967348753
C           -0.61096447587975        6.16249674461292       -0.00029409851615
C            5.70628523164474        2.34863491132204       -0.00042808363863
C           -2.71534904401373        7.37647531453760       -0.00151464983315
C            3.60332647098656        3.61639649979846        0.00015715576911
C            1.50256293127650        4.89804306066446        0.00033301466164
C           -1.45196610288310       -2.43441692134137        0.00022831526377
C            7.13319457944584        2.31419612635454       -0.00077660018325
C           -1.34802839616044        7.36137781535287       -0.00115421158508
C           -3.55410313046863       -1.16981656378479        0.00041887211936
C            5.01471808733632        3.58134859200547        0.00012754484156
C           -5.65974535090500        0.09248331432382        0.00071339903394
C            2.92437837262359        4.85741656674925        0.00061384219253
C           -7.73444993173493        1.38380425899174        0.00103113344878
C            0.82683736929688        6.13728939003593        0.00043993672444
C            0.68679127786059       -1.24262453042087        0.00028233387385
C           -1.41272686239833        0.02224556590542        0.00036324700428
C            7.19120777218884        4.74668158618981        0.00006185639663
C           -3.50678500761755        1.28486570390785        0.00032019411503
C            5.08179547126467        6.00767814993925        0.00095941525593
C           -5.59860628133320        2.53239617462933        0.00027982636776
C            2.96672731199176        7.28854942974495        0.00161835172445
C            2.82343369223357       -0.04454379921561        0.00009562173283
C           -5.59705408264897        4.96652308787990       -0.00055816226696
C            0.72849165874443        1.21916559584307        0.00031488466080
C           -7.74101413934131        6.08775681938774       -0.00096084642670
C           -1.36729222107704        2.48032990350691        0.00017036701061
C            7.10845168661041        7.15753614446927        0.00112675146916
C           -3.47179072119081        3.73576778930434       -0.00021911639492
C            4.97602814314870        1.14295594759474       -0.00036071469970
C           -3.47119026050070        6.19249136205061       -0.00108728796320
C            2.86965270859476        2.40228204120305        0.00021789916686
C           -5.69785216400421        7.36932922618198       -0.00178975223130
C            0.76614901668446        3.67712982611216        0.00022229175559
C           -1.33825899293779        4.94951916061290       -0.00025418739831
H           -3.53284451212681       -8.20773654422520       -0.00130440874295
H            0.83460030348622       -8.30966488024889        0.00106291929332
H            5.23124395875205       -8.34083911530469        0.00153316645300
H           -1.11890623480299       -8.28037946101316       -0.00107730543227
H            3.21593973451554       -8.33197081418565        0.00133098298242
H            8.81782974438891       -6.04136263674484        0.00010936439132
H            8.81244422190018       -1.42553963963390       -0.00157043971789
H            7.65014794607034       -8.21838306082262        0.00123430646487
H           -7.52272967487182       -8.15512779782049       -0.00065935855450
H           -8.91591876656339       -6.09745306033710        0.00030086691593
H           -8.92340166968629       -3.52599429085697        0.00119521413818
H           -8.86340483274115       -1.06249502112176        0.00163097930336
H            1.11890562161321        8.28037910000584        0.00187535602805
H            8.92340144163877        3.52599468645294       -0.00088613030534
H            8.91591849428660        6.09745334129603        0.00031217621388
H           -7.65014770243154        8.21838300903952       -0.00217982592916
H            8.86340467776867        1.06249505998984       -0.00159552532567
H           -3.21593944163739        8.33197063104245       -0.00216282205009
H           -0.83459973196790        8.30966439024962       -0.00161231022342
H           -8.81244428836581        1.42553958261855        0.00133938223895
H            3.53284407348969        8.20773629230508        0.00229806518140
H           -8.81782950753597        6.04136274357703       -0.00084831080940
H            7.52272926855035        8.15512785829479        0.00150462819837
H           -5.23124355051981        8.34083893145377       -0.00235304279101
O            7.69395394024759       -3.73945259606356       -0.00071474413496