      -----------------------------------------------------------      
     |                   =====================                   |     
     |                           x T B                           |     
     |                   =====================                   |     
     |                         S. Grimme                         |     
     |          Mulliken Center for Theoretical Chemistry        |     
     |                    University of Bonn                     |     
      -----------------------------------------------------------      

   * xtb version 6.7.1pre (5071a88) compiled by 'Marcel@Raven' on 2024-07-23

   xtb is free software: you can redistribute it and/or modify it under
   the terms of the GNU Lesser General Public License as published by
   the Free Software Foundation, either version 3 of the License, or
   (at your option) any later version.
   
   xtb is distributed in the hope that it will be useful,
   but WITHOUT ANY WARRANTY; without even the implied warranty of
   MERCHANTABILITY or FITNESS FOR A PARTICULAR PURPOSE.  See the
   GNU Lesser General Public License for more details.
   
   Cite this work as:
   * C. Bannwarth, E. Caldeweyher, S. Ehlert, A. Hansen, P. Pracht,
     J. Seibert, S. Spicher, S. Grimme, WIREs Comput. Mol. Sci., 2020, 11,
     e01493. DOI: 10.1002/wcms.1493
   
   for GFN2-xTB:
   * C. Bannwarth, S. Ehlert and S. Grimme., J. Chem. Theory Comput., 2019,
     15, 1652-1671. DOI: 10.1021/acs.jctc.8b01176
   for GFN1-xTB:
   * S. Grimme, C. Bannwarth, P. Shushkov, J. Chem. Theory Comput., 2017,
     13, 1989-2009. DOI: 10.1021/acs.jctc.7b00118
   for GFN0-xTB:
   * P. Pracht, E. Caldeweyher, S. Ehlert, S. Grimme, ChemRxiv, 2019, preprint.
     DOI: 10.26434/chemrxiv.8326202.v1
   for GFN-FF:
   * S. Spicher and S. Grimme, Angew. Chem. Int. Ed., 2020, 59, 15665-15673.
     DOI: 10.1002/anie.202004239
   
   for ALPB and GBSA implicit solvation:
   * S. Ehlert, M. Stahn, S. Spicher, S. Grimme, J. Chem. Theory Comput.,
     2021, 17, 4250-4261. DOI: 10.1021/acs.jctc.1c00471
   
   for ddCOSMO and CPCM-X implicit solvation:
   * M. Stahn, S. Ehlert, S. Grimme, J. Phys. Chem. A,
     2023, XX, XXXX-XXXX. DOI: 10.1021/acs.jpca.3c04382
   
   for DFT-D4:
   * E. Caldeweyher, C. Bannwarth and S. Grimme, J. Chem. Phys., 2017,
     147, 034112. DOI: 10.1063/1.4993215
   * E. Caldeweyher, S. Ehlert, A. Hansen, H. Neugebauer, S. Spicher,
     C. Bannwarth and S. Grimme, J. Chem. Phys., 2019, 150, 154122.
     DOI: 10.1063/1.5090222
   * E. Caldeweyher, J.-M. Mewes, S. Ehlert and S. Grimme, Phys. Chem. Chem. Phys.
     2020, 22, 8499-8512. DOI: 10.1039/D0CP00502A
   
   for sTDA-xTB:
   * S. Grimme and C. Bannwarth, J. Chem. Phys., 2016, 145, 054103.
     DOI: 10.1063/1.4959605
   
   in the mass-spec context:
   * V. Asgeirsson, C. Bauer and S. Grimme, Chem. Sci., 2017, 8, 4879.
     DOI: 10.1039/c7sc00601b
   * J. Koopman and S. Grimme, ACS Omega 2019, 4, 12, 15120-15133.
     DOI: 10.1021/acsomega.9b02011
   
   for metadynamics refer to:
   * S. Grimme, J. Chem. Theory Comput., 2019, 155, 2847-2862
     DOI: 10.1021/acs.jctc.9b00143
   
   for SPH calculations refer to:
   * S. Spicher and S. Grimme, J. Chem. Theory Comput., 2021, 17, 1701-1714
     DOI: 10.1021/acs.jctc.0c01306
   
   for ONIOM refer to:
   * C. Plett, A. Katbashev, S. Ehlert, S. Grimme, M. Bursch,
     Phys. Chem. Chem. Phys., 2023, 25, 17860-17868. DOI: 10.1039/D3CP02178E
   
   for DIPRO refer to:
   * J. Kohn, N. Gildemeister, S. Grimme, D. Fazzi, A. Hansen,
     J. Chem. Phys., 2023, just accepted.
   
   for PTB refer to:
   * S. Grimme, M. Mueller, A. Hansen, J. Chem. Phys., 2023, 158, 124111.
     DOI: 10.1063/5.0137838
   
   with help from (in alphabetical order)
   P. Atkinson, C. Bannwarth, F. Bohle, G. Brandenburg, E. Caldeweyher
   M. Checinski, S. Dohm, S. Ehlert, S. Ehrlich, I. Gerasimov, C. Hölzer
   A. Katbashev, J. Kohn, J. Koopman, C. Lavigne, S. Lehtola, F. März, M. Müller,
   F. Musil, H. Neugebauer, J. Pisarek, C. Plett, P. Pracht, F. Pultar,
   J. Seibert, P. Shushkov, S. Spicher, M. Stahn, M. Steiner, T. Strunk,
   J. Stückrath, T. Rose, and J. Unsleber
   
 * started run on 2025/12/08 at 00:34:30.937     
   ID    Z sym.   atoms
    1    6 C      1-52
    2    1 H      53-70
    3   16 S      71, 72

           -------------------------------------------------
          |                Calculation Setup                |
           -------------------------------------------------

          program call               : xtb "C:\Users\LENOVO GAMING\Documents\GitHub\molecular-conductivity-sim\results\1nm-2Sdoped-3percent\xtbopt.xyz" --sp
          coordinate file            : C:\Users\LENOVO GAMING\Documents\GitHub\molecular-conductivity-sim\results\1nm-2Sdoped-3percent\xtbopt.xyz
          omp threads                :                    16


           -------------------------------------------------
          |                 G F N 2 - x T B                 |
           -------------------------------------------------

        Reference                      10.1021/acs.jctc.8b01176
      * Hamiltonian:
        H0-scaling (s, p, d)           1.850000    2.230000    2.230000
        zeta-weighting                 0.500000
      * Dispersion:
        s8                             2.700000
        a1                             0.520000
        a2                             5.000000
        s9                             5.000000
      * Repulsion:
        kExp                           1.500000    1.000000
        rExp                           1.000000
      * Coulomb:
        alpha                          2.000000
        third order                    shell-resolved
        anisotropic                    true
        a3                             3.000000
        a5                             4.000000
        cn-shift                       1.200000
        cn-exp                         4.000000
        max-rad                        5.000000

q/qsh data taken from xtbrestart
CAMM data taken from xtbrestart

          ...................................................
          :                      SETUP                      :
          :.................................................:
          :  # basis functions                 246          :
          :  # atomic orbitals                 244          :
          :  # shells                          128          :
          :  # electrons                       238          :
          :  max. iterations                   250          :
          :  Hamiltonian                  GFN2-xTB          :
          :  restarted?                       true          :
          :  GBSA solvation                  false          :
          :  PC potential                    false          :
          :  electronic temp.          300.0000000     K    :
          :  accuracy                    1.0000000          :
          :  -> integral cutoff          0.2500000E+02      :
          :  -> integral neglect         0.1000000E-07      :
          :  -> SCF convergence          0.1000000E-05 Eh   :
          :  -> wf. convergence          0.1000000E-03 e    :
          :  Broyden damping             0.4000000          :
          :  net charge                          0          :
          :  unpaired electrons                  0          :
          ...................................................

 iter      E             dE          RMSdq      gap      omega  full diag
   1   -129.7055964 -0.129706E+03  0.106E-05    1.07       0.0  T
   2   -129.7055964  0.628120E-11  0.129E-05    1.07     915.7  T
   3   -129.7055964 -0.132161E-10  0.324E-06    1.07    3640.9  T

   *** convergence criteria satisfied after 3 iterations ***

         #    Occupation            Energy/Eh            Energy/eV
      -------------------------------------------------------------
         1        2.0000           -0.7312680             -19.8988
       ...           ...                  ...                  ...
       113        2.0000           -0.3967693             -10.7966
       114        2.0000           -0.3948979             -10.7457
       115        2.0000           -0.3919157             -10.6646
       116        2.0000           -0.3809706             -10.3667
       117        2.0000           -0.3669894              -9.9863
       118        2.0000           -0.3528853              -9.6025
       119        2.0000           -0.3417365              -9.2991 (HOMO)
       120                         -0.3023147              -8.2264 (LUMO)
       121                         -0.2774551              -7.5499
       122                         -0.2740188              -7.4564
       123                         -0.2593948              -7.0585
       124                         -0.2463495              -6.7035
       ...                                ...                  ...
       244                          0.7591794              20.6583
      -------------------------------------------------------------
                  HL-Gap            0.0394218 Eh            1.0727 eV
             Fermi-level           -0.3220256 Eh           -8.7628 eV

 SCC (total)                   0 d,  0 h,  0 min,  0.096 sec
 SCC setup                      ...        0 min,  0.001 sec (  1.042%)
 Dispersion                     ...        0 min,  0.003 sec (  3.125%)
 classical contributions        ...        0 min,  0.000 sec (  0.000%)
 integral evaluation            ...        0 min,  0.010 sec ( 10.417%)
 iterations                     ...        0 min,  0.058 sec ( 60.417%)
 molecular gradient             ...        0 min,  0.023 sec ( 23.958%)
 printout                       ...        0 min,  0.001 sec (  1.042%)

         :::::::::::::::::::::::::::::::::::::::::::::::::::::
         ::                     SUMMARY                     ::
         :::::::::::::::::::::::::::::::::::::::::::::::::::::
         :: total energy            -127.303761956295 Eh    ::
         :: gradient norm              0.000350284740 Eh/a0 ::
         :: HOMO-LUMO gap              1.072721757128 eV    ::
         ::.................................................::
         :: SCC energy              -129.707683891037 Eh    ::
         :: -> isotropic ES            0.003467325150 Eh    ::
         :: -> anisotropic ES          0.007301960670 Eh    ::
         :: -> anisotropic XC          0.054169139189 Eh    ::
         :: -> dispersion             -0.140854120441 Eh    ::
         :: repulsion energy           2.403921934742 Eh    ::
         :: add. restraining           0.000000000000 Eh    ::
         :: total charge               0.000000000000 e     ::
         :::::::::::::::::::::::::::::::::::::::::::::::::::::

           -------------------------------------------------
          |                Property Printout                |
           -------------------------------------------------

    * Orbital Energies and Occupations

         #    Occupation            Energy/Eh            Energy/eV
      -------------------------------------------------------------
         1        2.0000           -0.7312680             -19.8988
       ...           ...                  ...                  ...
       107        2.0000           -0.4113678             -11.1939
       108        2.0000           -0.4107501             -11.1771
       109        2.0000           -0.4087092             -11.1215
       110        2.0000           -0.4076317             -11.0922
       111        2.0000           -0.4016209             -10.9287
       112        2.0000           -0.3983783             -10.8404
       113        2.0000           -0.3967693             -10.7966
       114        2.0000           -0.3948979             -10.7457
       115        2.0000           -0.3919157             -10.6646
       116        2.0000           -0.3809706             -10.3667
       117        2.0000           -0.3669894              -9.9863
       118        2.0000           -0.3528853              -9.6025
       119        2.0000           -0.3417365              -9.2991 (HOMO)
       120                         -0.3023147              -8.2264 (LUMO)
       121                         -0.2774551              -7.5499
       122                         -0.2740188              -7.4564
       123                         -0.2593948              -7.0585
       124                         -0.2463495              -6.7035
       125                         -0.2425599              -6.6004
       126                         -0.2407478              -6.5511
       127                         -0.2358093              -6.4167
       128                         -0.2314835              -6.2990
       129                         -0.2289913              -6.2312
       130                         -0.2169835              -5.9044
       ...                                ...                  ...
       244                          0.7591794              20.6583
      -------------------------------------------------------------
                  HL-Gap            0.0394218 Eh            1.0727 eV
             Fermi-level           -0.3220256 Eh           -8.7628 eV

     #   Z          covCN         q      C6AA      α(0)
     1   6 C        2.923    -0.039    28.977     8.828
     2   6 C        2.923    -0.038    28.953     8.824
     3   6 C        2.919    -0.037    28.919     8.819
     4   6 C        2.914    -0.029    28.728     8.789
     5   6 C        2.979     0.006    27.871     8.660
     6   6 C        2.988     0.013    27.717     8.636
     7   6 C        2.887     0.001    27.995     8.674
     8   6 C        2.919    -0.038    28.950     8.823
     9   6 C        2.920    -0.037    28.920     8.819
    10   6 C        2.972     0.008    27.838     8.655
    11   6 C        2.959     0.039    27.122     8.542
    12   6 C        3.003    -0.000    28.020     8.683
    13   6 C        2.982     0.004    27.924     8.668
    14   6 C        2.981     0.005    27.900     8.664
    15   6 C        2.991     0.002    27.980     8.677
    16   6 C        2.987    -0.001    28.052     8.688
    17   6 C        3.028    -0.043    29.044     8.840
    18   6 C        2.980     0.011    27.761     8.643
    19   6 C        2.926    -0.043    29.065     8.841
    20   6 C        2.994    -0.001    28.051     8.688
    21   6 C        2.983     0.013    27.728     8.638
    22   6 C        2.985    -0.000    28.032     8.685
    23   6 C        2.985    -0.001    28.043     8.687
    24   6 C        2.986     0.001    28.004     8.681
    25   6 C        3.035    -0.055    29.337     8.884
    26   6 C        2.977     0.006    27.886     8.662
    27   6 C        2.999     0.000    28.012     8.682
    28   6 C        2.913    -0.030    28.746     8.792
    29   6 C        2.982    -0.002    28.070     8.691
    30   6 C        2.989     0.001    27.990     8.678
    31   6 C        2.952    -0.045    29.110     8.849
    32   6 C        2.964     0.044    27.017     8.526
    33   6 C        2.922    -0.038    28.951     8.824
    34   6 C        2.971     0.003    27.943     8.671
    35   6 C        2.987     0.002    27.979     8.677
    36   6 C        2.981     0.006    27.891     8.663
    37   6 C        2.985     0.002    27.981     8.677
    38   6 C        2.997     0.004    27.913     8.667
    39   6 C        2.973     0.047    26.937     8.513
    40   6 C        3.011    -0.060    29.467     8.905
    41   6 C        2.985     0.007    27.866     8.659
    42   6 C        2.921    -0.038    28.934     8.821
    43   6 C        2.988     0.001    27.986     8.678
    44   6 C        2.987    -0.001    28.056     8.689
    45   6 C        2.992     0.000    28.010     8.682
    46   6 C        2.916    -0.029    28.724     8.789
    47   6 C        2.926    -0.050    29.230     8.866
    48   6 C        2.988     0.000    28.019     8.683
    49   6 C        2.922    -0.038    28.937     8.821
    50   6 C        2.984     0.000    28.013     8.682
    51   6 C        2.986     0.001    28.004     8.681
    52   6 C        2.995    -0.000    28.019     8.683
    53   1 H        0.926     0.033     2.541     2.493
    54   1 H        0.926     0.035     2.515     2.480
    55   1 H        0.926     0.042     2.421     2.433
    56   1 H        0.926     0.039     2.468     2.457
    57   1 H        0.926     0.040     2.449     2.447
    58   1 H        0.926     0.029     2.595     2.519
    59   1 H        0.926     0.032     2.561     2.502
    60   1 H        0.926     0.035     2.513     2.479
    61   1 H        0.926     0.037     2.492     2.469
    62   1 H        0.926     0.033     2.547     2.496
    63   1 H        0.926     0.035     2.521     2.483
    64   1 H        0.926     0.031     2.576     2.510
    65   1 H        0.926     0.050     2.314     2.379
    66   1 H        0.926     0.033     2.542     2.493
    67   1 H        0.926     0.046     2.370     2.407
    68   1 H        0.926     0.037     2.484     2.465
    69   1 H        0.926     0.032     2.559     2.502
    70   1 H        0.926     0.031     2.567     2.506
    71  16 S        2.117    -0.072   144.039    20.200
    72  16 S        2.230    -0.112   145.752    20.319

 Mol. C6AA /au·bohr⁶  :     108107.350600
 Mol. C8AA /au·bohr⁸  :    3073486.716248
 Mol. α(0) /au        :        538.281744


Wiberg/Mayer (AO) data.
largest (>0.10) Wiberg bond orders for each atom

 ---------------------------------------------------------------------------
     #   Z sym  total        # sym  WBO       # sym  WBO       # sym  WBO
 ---------------------------------------------------------------------------
     1   6 C    3.938 --     4 C    1.419     5 C    1.376    62 H    0.961
     2   6 C    3.945 --     4 C    1.467     6 C    1.323    53 H    0.969
     3   6 C    3.968 --     8 C    1.536    14 C    1.302    63 H    0.960
     4   6 C    3.981 --     2 C    1.467     1 C    1.419    64 H    0.970
     5   6 C    3.980 --     1 C    1.376    20 C    1.264    14 C    1.146
     6   6 C    3.985 --     2 C    1.323    20 C    1.249    25 C    1.238
     7   6 C    3.930 --    31 C    1.715    71 S    1.128    65 H    0.963
     8   6 C    3.948 --     3 C    1.536    37 C    1.292    66 H    0.960
     9   6 C    3.973 --    42 C    1.501    36 C    1.335    54 H    0.960
    10   6 C    3.928 --    38 C    1.359    37 C    1.208    31 C    1.159
    11   6 C    3.942 --    40 C    1.575    38 C    1.178    71 S    1.033
    12   6 C    3.979 --    39 C    1.301    41 C    1.284    34 C    1.165
    13   6 C    3.971 --    42 C    1.329    35 C    1.294    41 C    1.143
    14   6 C    3.948 --    43 C    1.308     3 C    1.302     5 C    1.146
    15   6 C    3.975 --    37 C    1.261    44 C    1.246    43 C    1.245
    16   6 C    3.971 --    45 C    1.278    44 C    1.255    38 C    1.207
    17   6 C    3.973 --    39 C    1.416    46 C    1.403    55 H    0.967
    18   6 C    3.988 --    47 C    1.428    40 C    1.201    45 C    1.187
    19   6 C    3.978 --    46 C    1.471    41 C    1.346    56 H    0.958
    20   6 C    3.982 --     5 C    1.264     6 C    1.249    48 C    1.235
    21   6 C    3.985 --    49 C    1.298    47 C    1.287    52 C    1.233
    22   6 C    3.970 --    50 C    1.297    48 C    1.245    43 C    1.200
    23   6 C    3.970 --    51 C    1.302    44 C    1.241    50 C    1.202
    24   6 C    3.978 --    45 C    1.276    52 C    1.245    51 C    1.232
    25   6 C    3.963 --    32 C    1.534     6 C    1.238    57 H    0.964
    26   6 C    3.983 --    33 C    1.391    52 C    1.264    36 C    1.134
    27   6 C    3.960 --    34 C    1.270    48 C    1.263    32 C    1.204
    28   6 C    3.982 --    49 C    1.491    33 C    1.397    58 H    0.970
    29   6 C    3.974 --    34 C    1.294    50 C    1.247    35 C    1.204
    30   6 C    3.982 --    36 C    1.293    35 C    1.256    51 C    1.206
    31   6 C    3.981 --     7 C    1.715    10 C    1.159    67 H    0.949
    32   6 C    3.958 --    25 C    1.534    27 C    1.204    72 S    1.050
    33   6 C    3.925 --    28 C    1.397    26 C    1.391    59 H    0.962
    34   6 C    3.957 --    29 C    1.294    27 C    1.270    12 C    1.165
    35   6 C    3.980 --    13 C    1.294    30 C    1.256    29 C    1.204
    36   6 C    3.959 --     9 C    1.335    30 C    1.293    26 C    1.134
    37   6 C    3.973 --     8 C    1.292    15 C    1.261    10 C    1.208
    38   6 C    3.978 --    10 C    1.359    16 C    1.207    11 C    1.178
    39   6 C    3.954 --    17 C    1.416    12 C    1.301    72 S    1.060
    40   6 C    3.973 --    11 C    1.575    18 C    1.201    68 H    0.964
    41   6 C    3.976 --    19 C    1.346    12 C    1.284    13 C    1.143
    42   6 C    3.963 --     9 C    1.501    13 C    1.329    60 H    0.958
    43   6 C    3.984 --    14 C    1.308    15 C    1.245    22 C    1.200
    44   6 C    3.979 --    16 C    1.255    15 C    1.246    23 C    1.241
    45   6 C    3.967 --    16 C    1.278    24 C    1.276    18 C    1.187
    46   6 C    3.978 --    19 C    1.471    17 C    1.403    61 H    0.969
    47   6 C    3.911 --    18 C    1.428    21 C    1.287    69 H    0.966
    48   6 C    3.975 --    27 C    1.263    22 C    1.245    20 C    1.235
    49   6 C    3.924 --    28 C    1.491    21 C    1.298    70 H    0.969
    50   6 C    3.970 --    22 C    1.297    29 C    1.247    23 C    1.202
    51   6 C    3.956 --    23 C    1.302    24 C    1.232    30 C    1.206
    52   6 C    3.971 --    26 C    1.264    24 C    1.245    21 C    1.233
    53   1 H    0.998 --     2 C    0.969
    54   1 H    0.997 --     9 C    0.960
    55   1 H    0.997 --    17 C    0.967
    56   1 H    0.997 --    19 C    0.958
    57   1 H    0.997 --    25 C    0.964
    58   1 H    0.998 --    28 C    0.970
    59   1 H    0.998 --    33 C    0.962
    60   1 H    0.998 --    42 C    0.958
    61   1 H    0.997 --    46 C    0.969
    62   1 H    0.998 --     1 C    0.961
    63   1 H    0.998 --     3 C    0.960
    64   1 H    0.998 --     4 C    0.970
    65   1 H    0.996 --     7 C    0.963
    66   1 H    0.998 --     8 C    0.960
    67   1 H    0.997 --    31 C    0.949
    68   1 H    0.997 --    40 C    0.964
    69   1 H    0.998 --    47 C    0.966
    70   1 H    0.998 --    49 C    0.969
    71  16 S    2.483 --     7 C    1.128    11 C    1.033
    72  16 S    2.434 --    39 C    1.060    32 C    1.050
 ---------------------------------------------------------------------------

Topologies differ in total number of bonds
Writing topology from bond orders to xtbtopo.mol

molecular dipole:
                 x           y           z       tot (Debye)
 q only:       -0.237      -0.120      -0.060
   full:       -0.211      -0.161      -0.090       0.711
molecular quadrupole (traceless):
                xx          xy          yy          xz          yz          zz
 q only:       -7.506       5.793      16.758      -2.836      -1.072      -9.252
  q+dip:       -4.944       5.615      35.465      -4.586      -1.583     -30.521
   full:      -14.744       6.088      26.415      -4.515      -1.506     -11.671


           -------------------------------------------------
          | TOTAL ENERGY             -127.303761956295 Eh   |
          | GRADIENT NORM               0.000350284740 Eh/α |
          | HOMO-LUMO GAP               1.072721757128 eV   |
           -------------------------------------------------

------------------------------------------------------------------------
 * finished run on 2025/12/08 at 00:34:31.082     
------------------------------------------------------------------------
 total:
 * wall-time:     0 d,  0 h,  0 min,  0.142 sec
 *  cpu-time:     0 d,  0 h,  0 min,  1.531 sec
 * ratio c/w:    10.783 speedup
 SCF:
 * wall-time:     0 d,  0 h,  0 min,  0.097 sec
 *  cpu-time:     0 d,  0 h,  0 min,  1.125 sec
 * ratio c/w:    11.598 speedup

normal termination of xtb
