      -----------------------------------------------------------      
     |                   =====================                   |     
     |                           x T B                           |     
     |                   =====================                   |     
     |                         S. Grimme                         |     
     |          Mulliken Center for Theoretical Chemistry        |     
     |                    University of Bonn                     |     
      -----------------------------------------------------------      

   * xtb version 6.7.1pre (5071a88) compiled by 'Marcel@Raven' on 2024-07-23

   xtb is free software: you can redistribute it and/or modify it under
   the terms of the GNU Lesser General Public License as published by
   the Free Software Foundation, either version 3 of the License, or
   (at your option) any later version.
   
   xtb is distributed in the hope that it will be useful,
   but WITHOUT ANY WARRANTY; without even the implied warranty of
   MERCHANTABILITY or FITNESS FOR A PARTICULAR PURPOSE.  See the
   GNU Lesser General Public License for more details.
   
   Cite this work as:
   * C. Bannwarth, E. Caldeweyher, S. Ehlert, A. Hansen, P. Pracht,
     J. Seibert, S. Spicher, S. Grimme, WIREs Comput. Mol. Sci., 2020, 11,
     e01493. DOI: 10.1002/wcms.1493
   
   for GFN2-xTB:
   * C. Bannwarth, S. Ehlert and S. Grimme., J. Chem. Theory Comput., 2019,
     15, 1652-1671. DOI: 10.1021/acs.jctc.8b01176
   for GFN1-xTB:
   * S. Grimme, C. Bannwarth, P. Shushkov, J. Chem. Theory Comput., 2017,
     13, 1989-2009. DOI: 10.1021/acs.jctc.7b00118
   for GFN0-xTB:
   * P. Pracht, E. Caldeweyher, S. Ehlert, S. Grimme, ChemRxiv, 2019, preprint.
     DOI: 10.26434/chemrxiv.8326202.v1
   for GFN-FF:
   * S. Spicher and S. Grimme, Angew. Chem. Int. Ed., 2020, 59, 15665-15673.
     DOI: 10.1002/anie.202004239
   
   for ALPB and GBSA implicit solvation:
   * S. Ehlert, M. Stahn, S. Spicher, S. Grimme, J. Chem. Theory Comput.,
     2021, 17, 4250-4261. DOI: 10.1021/acs.jctc.1c00471
   
   for ddCOSMO and CPCM-X implicit solvation:
   * M. Stahn, S. Ehlert, S. Grimme, J. Phys. Chem. A,
     2023, XX, XXXX-XXXX. DOI: 10.1021/acs.jpca.3c04382
   
   for DFT-D4:
   * E. Caldeweyher, C. Bannwarth and S. Grimme, J. Chem. Phys., 2017,
     147, 034112. DOI: 10.1063/1.4993215
   * E. Caldeweyher, S. Ehlert, A. Hansen, H. Neugebauer, S. Spicher,
     C. Bannwarth and S. Grimme, J. Chem. Phys., 2019, 150, 154122.
     DOI: 10.1063/1.5090222
   * E. Caldeweyher, J.-M. Mewes, S. Ehlert and S. Grimme, Phys. Chem. Chem. Phys.
     2020, 22, 8499-8512. DOI: 10.1039/D0CP00502A
   
   for sTDA-xTB:
   * S. Grimme and C. Bannwarth, J. Chem. Phys., 2016, 145, 054103.
     DOI: 10.1063/1.4959605
   
   in the mass-spec context:
   * V. Asgeirsson, C. Bauer and S. Grimme, Chem. Sci., 2017, 8, 4879.
     DOI: 10.1039/c7sc00601b
   * J. Koopman and S. Grimme, ACS Omega 2019, 4, 12, 15120-15133.
     DOI: 10.1021/acsomega.9b02011
   
   for metadynamics refer to:
   * S. Grimme, J. Chem. Theory Comput., 2019, 155, 2847-2862
     DOI: 10.1021/acs.jctc.9b00143
   
   for SPH calculations refer to:
   * S. Spicher and S. Grimme, J. Chem. Theory Comput., 2021, 17, 1701-1714
     DOI: 10.1021/acs.jctc.0c01306
   
   for ONIOM refer to:
   * C. Plett, A. Katbashev, S. Ehlert, S. Grimme, M. Bursch,
     Phys. Chem. Chem. Phys., 2023, 25, 17860-17868. DOI: 10.1039/D3CP02178E
   
   for DIPRO refer to:
   * J. Kohn, N. Gildemeister, S. Grimme, D. Fazzi, A. Hansen,
     J. Chem. Phys., 2023, just accepted.
   
   for PTB refer to:
   * S. Grimme, M. Mueller, A. Hansen, J. Chem. Phys., 2023, 158, 124111.
     DOI: 10.1063/5.0137838
   
   with help from (in alphabetical order)
   P. Atkinson, C. Bannwarth, F. Bohle, G. Brandenburg, E. Caldeweyher
   M. Checinski, S. Dohm, S. Ehlert, S. Ehrlich, I. Gerasimov, C. Hölzer
   A. Katbashev, J. Kohn, J. Koopman, C. Lavigne, S. Lehtola, F. März, M. Müller,
   F. Musil, H. Neugebauer, J. Pisarek, C. Plett, P. Pracht, F. Pultar,
   J. Seibert, P. Shushkov, S. Spicher, M. Stahn, M. Steiner, T. Strunk,
   J. Stückrath, T. Rose, and J. Unsleber
   
 * started run on 2025/12/08 at 00:34:28.036     
   ID    Z sym.   atoms
    1    6 C      1-52
    2    1 H      53-70
    3   16 S      71, 72

           -------------------------------------------------
          |                Calculation Setup                |
           -------------------------------------------------

          program call               : xtb "C:\Users\LENOVO GAMING\Documents\GitHub\molecular-conductivity-sim\dataset\1nm-2Sdoped-3percent.xyz" --opt --parallel 4
          coordinate file            : C:\Users\LENOVO GAMING\Documents\GitHub\molecular-conductivity-sim\dataset\1nm-2Sdoped-3percent.xyz
          omp threads                :                     4


           -------------------------------------------------
          |                 G F N 2 - x T B                 |
           -------------------------------------------------

        Reference                      10.1021/acs.jctc.8b01176
      * Hamiltonian:
        H0-scaling (s, p, d)           1.850000    2.230000    2.230000
        zeta-weighting                 0.500000
      * Dispersion:
        s8                             2.700000
        a1                             0.520000
        a2                             5.000000
        s9                             5.000000
      * Repulsion:
        kExp                           1.500000    1.000000
        rExp                           1.000000
      * Coulomb:
        alpha                          2.000000
        third order                    shell-resolved
        anisotropic                    true
        a3                             3.000000
        a5                             4.000000
        cn-shift                       1.200000
        cn-exp                         4.000000
        max-rad                        5.000000


          ...................................................
          :                      SETUP                      :
          :.................................................:
          :  # basis functions                 246          :
          :  # atomic orbitals                 244          :
          :  # shells                          128          :
          :  # electrons                       238          :
          :  max. iterations                   250          :
          :  Hamiltonian                  GFN2-xTB          :
          :  restarted?                      false          :
          :  GBSA solvation                  false          :
          :  PC potential                    false          :
          :  electronic temp.          300.0000000     K    :
          :  accuracy                    1.0000000          :
          :  -> integral cutoff          0.2500000E+02      :
          :  -> integral neglect         0.1000000E-07      :
          :  -> SCF convergence          0.1000000E-05 Eh   :
          :  -> wf. convergence          0.1000000E-03 e    :
          :  Broyden damping             0.4000000          :
          :  net charge                          0          :
          :  unpaired electrons                  0          :
          ...................................................

 iter      E             dE          RMSdq      gap      omega  full diag
   1   -129.4865347 -0.129487E+03  0.507E+00    1.13       0.0  T
   2   -129.5140728 -0.275380E-01  0.306E+00    1.11       1.0  T
   3   -129.3130074  0.201065E+00  0.174E+00    1.16       1.0  T
   4   -129.5375759 -0.224569E+00  0.368E-01    1.07       1.0  T
   5   -129.5381394 -0.563482E-03  0.280E-01    1.12       1.0  T
   6   -129.5434503 -0.531089E-02  0.770E-02    1.09       1.0  T
   7   -129.5437295 -0.279162E-03  0.279E-02    1.09       1.0  T
   8   -129.5437733 -0.438186E-04  0.101E-02    1.09       1.2  T
   9   -129.5437750 -0.167705E-05  0.505E-03    1.09       2.3  T
  10   -129.5437761 -0.109835E-05  0.159E-03    1.09       7.4  T
  11   -129.5437762 -0.116588E-06  0.646E-04    1.09      18.2  T
  12   -129.5437762 -0.798497E-08  0.284E-04    1.09      41.5  T

   *** convergence criteria satisfied after 12 iterations ***

         #    Occupation            Energy/Eh            Energy/eV
      -------------------------------------------------------------
         1        2.0000           -0.7290729             -19.8391
       ...           ...                  ...                  ...
       113        2.0000           -0.3971079             -10.8059
       114        2.0000           -0.3956227             -10.7654
       115        2.0000           -0.3905897             -10.6285
       116        2.0000           -0.3799306             -10.3384
       117        2.0000           -0.3665942              -9.9755
       118        2.0000           -0.3537873              -9.6270
       119        2.0000           -0.3424695              -9.3191 (HOMO)
       120                         -0.3023357              -8.2270 (LUMO)
       121                         -0.2782425              -7.5714
       122                         -0.2746259              -7.4729
       123                         -0.2606186              -7.0918
       124                         -0.2484943              -6.7619
       ...                                ...                  ...
       244                          0.7245583              19.7162
      -------------------------------------------------------------
                  HL-Gap            0.0401337 Eh            1.0921 eV
             Fermi-level           -0.3224026 Eh           -8.7730 eV

 SCC (total)                   0 d,  0 h,  0 min,  0.248 sec
 SCC setup                      ...        0 min,  0.001 sec (  0.403%)
 Dispersion                     ...        0 min,  0.002 sec (  0.806%)
 classical contributions        ...        0 min,  0.000 sec (  0.000%)
 integral evaluation            ...        0 min,  0.017 sec (  6.855%)
 iterations                     ...        0 min,  0.181 sec ( 72.984%)
 molecular gradient             ...        0 min,  0.046 sec ( 18.548%)
 printout                       ...        0 min,  0.001 sec (  0.403%)

         :::::::::::::::::::::::::::::::::::::::::::::::::::::
         ::                     SUMMARY                     ::
         :::::::::::::::::::::::::::::::::::::::::::::::::::::
         :: total energy            -127.294417321283 Eh    ::
         :: gradient norm              0.037892966936 Eh/a0 ::
         :: HOMO-LUMO gap              1.092094616094 eV    ::
         ::.................................................::
         :: SCC energy              -129.545865677589 Eh    ::
         :: -> isotropic ES            0.003183523656 Eh    ::
         :: -> anisotropic ES          0.007688460229 Eh    ::
         :: -> anisotropic XC          0.057398717058 Eh    ::
         :: -> dispersion             -0.139042187957 Eh    ::
         :: repulsion energy           2.251448356305 Eh    ::
         :: add. restraining           0.000000000000 Eh    ::
         :: total charge              -0.000000000000 e     ::
         :::::::::::::::::::::::::::::::::::::::::::::::::::::

      ----------------------------------------------------------- 
     |                   =====================                   |
     |                        A N C O P T                        |
     |                   =====================                   |
     |               Approximate Normal Coordinate               |
     |                Rational Function Optimizer                |
      ----------------------------------------------------------- 
      ----------------------------------------------------------- 
     |                   =====================                   |
     |                        A N C O P T                        |
     |                   =====================                   |
     |               Approximate Normal Coordinate               |
     |                Rational Function Optimizer                |
      ----------------------------------------------------------- 

          ...................................................
          :                      SETUP                      :
          :.................................................:
          :   optimization level            normal          :
          :   max. optcycles                   216          :
          :   ANC micro-cycles                  20          :
          :   degrees of freedom               210          :
          :.................................................:
          :   RF solver                   davidson          :
          :   write xtbopt.log                true          :
          :   linear?                        false          :
          :   energy convergence         0.5000000E-05 Eh   :
          :   grad. convergence          0.1000000E-02 Eh/α :
          :   maxmium RF displ.          1.0000000          :
          :   Hlow (freq-cutoff)         0.1000000E-01      :
          :   Hmax (freq-cutoff)         5.0000000          :
          :   S6 in model hess.         20.0000000          :
          ...................................................

generating ANC from exact Hessian ...
Using Lindh-Hessian (1995)
 Shifting diagonal of input Hessian by   9.687067831164587E-003
 Lowest  eigenvalues of input Hessian
    0.000000    0.000000    0.000000    0.000000    0.000000    0.000000
    0.010000    0.010342    0.010657    0.011027    0.011252    0.012783
    0.013597    0.014184    0.014626    0.015582    0.016207    0.017254
 Highest eigenvalues
    2.004662    2.009822    2.047305    2.062545    2.081727    2.104665
 

........................................................................
.............................. CYCLE    1 ..............................
........................................................................

 iter      E             dE          RMSdq      gap      omega  full diag
   1   -129.5437762 -0.129544E+03  0.151E-04    1.09       0.0  T
   2   -129.5437762 -0.489706E-10  0.109E-04    1.09     107.7  T
   3   -129.5437762 -0.395602E-09  0.794E-05    1.09     148.4  T
     SCC iter.                  ...        0 min,  0.048 sec
     gradient                   ...        0 min,  0.050 sec
 * total energy  :  -127.2944173 Eh     change       -0.3501555E-08 Eh
   gradient norm :     0.0378929 Eh/α   predicted     0.0000000E+00 (-100.00%)
   displ. norm   :     0.3856972 α      lambda       -0.1071540E-01
   maximum displ.:     0.2107557 α      in ANC's #34, #33, #35, ...

........................................................................
.............................. CYCLE    2 ..............................
........................................................................

 iter      E             dE          RMSdq      gap      omega  full diag
   1   -129.6446561 -0.129645E+03  0.138E-01    1.09       0.0  T
   2   -129.6446517  0.443042E-05  0.848E-02    1.09       1.0  T
   3   -129.6443616  0.290005E-03  0.682E-02    1.09       1.0  T
   4   -129.6446829 -0.321301E-03  0.122E-02    1.09       1.0  T
   5   -129.6446905 -0.753066E-05  0.634E-03    1.09       1.9  T
   6   -129.6446923 -0.179857E-05  0.190E-03    1.09       6.2  T
   7   -129.6446926 -0.284558E-06  0.569E-04    1.09      20.7  T
   8   -129.6446926 -0.704111E-08  0.324E-04    1.09      36.4  T
     SCC iter.                  ...        0 min,  0.120 sec
     gradient                   ...        0 min,  0.053 sec
 * total energy  :  -127.3018767 Eh     change       -0.7459379E-02 Eh
   gradient norm :     0.0158815 Eh/α   predicted    -0.6154770E-02 ( -17.49%)
   displ. norm   :     0.2774376 α      lambda       -0.2909215E-02
   maximum displ.:     0.1594660 α      in ANC's #34, #33, #35, ...

........................................................................
.............................. CYCLE    3 ..............................
........................................................................

 iter      E             dE          RMSdq      gap      omega  full diag
   1   -129.7034538 -0.129703E+03  0.932E-02    1.08       0.0  T
   2   -129.7034476  0.618040E-05  0.590E-02    1.08       1.0  T
   3   -129.7033099  0.137686E-03  0.497E-02    1.08       1.0  T
   4   -129.7034737 -0.163753E-03  0.108E-02    1.08       1.1  T
   5   -129.7034808 -0.710888E-05  0.454E-03    1.08       2.6  T
   6   -129.7034817 -0.865090E-06  0.153E-03    1.08       7.7  T
   7   -129.7034818 -0.146386E-06  0.515E-04    1.08      22.9  T
   8   -129.7034818 -0.100129E-07  0.223E-04    1.08      52.9  T
     SCC iter.                  ...        0 min,  0.122 sec
     gradient                   ...        0 min,  0.054 sec
 * total energy  :  -127.3034642 Eh     change       -0.1587486E-02 Eh
   gradient norm :     0.0060116 Eh/α   predicted    -0.1566659E-02 (  -1.31%)
   displ. norm   :     0.0596167 α      lambda       -0.9977558E-04
   maximum displ.:     0.0213773 α      in ANC's #34, #4, #5, ...

........................................................................
.............................. CYCLE    4 ..............................
........................................................................

 iter      E             dE          RMSdq      gap      omega  full diag
   1   -129.7071937 -0.129707E+03  0.202E-02    1.07       0.0  T
   2   -129.7071939 -0.186580E-06  0.124E-02    1.07       1.0  T
   3   -129.7071896  0.425643E-05  0.991E-03    1.08       1.2  T
   4   -129.7071952 -0.560738E-05  0.297E-03    1.07       4.0  T
   5   -129.7071957 -0.470079E-06  0.138E-03    1.07       8.5  T
   6   -129.7071958 -0.129174E-06  0.344E-04    1.07      34.3  T
   7   -129.7071958 -0.269560E-08  0.169E-04    1.07      69.9  T
     SCC iter.                  ...        0 min,  0.106 sec
     gradient                   ...        0 min,  0.053 sec
 * total energy  :  -127.3035365 Eh     change       -0.7235035E-04 Eh
   gradient norm :     0.0031437 Eh/α   predicted    -0.5009326E-04 ( -30.76%)
   displ. norm   :     0.0935860 α      lambda       -0.7940960E-04
   maximum displ.:     0.0387736 α      in ANC's #4, #2, #5, ...

........................................................................
.............................. CYCLE    5 ..............................
........................................................................

 iter      E             dE          RMSdq      gap      omega  full diag
   1   -129.7073386 -0.129707E+03  0.280E-02    1.07       0.0  T
   2   -129.7073393 -0.719573E-06  0.164E-02    1.07       1.0  T
   3   -129.7073312  0.810854E-05  0.123E-02    1.07       1.0  T
   4   -129.7073404 -0.924348E-05  0.334E-03    1.07       3.5  T
   5   -129.7073409 -0.510643E-06  0.176E-03    1.07       6.7  T
   6   -129.7073411 -0.223930E-06  0.411E-04    1.07      28.7  T
   7   -129.7073411 -0.352603E-08  0.207E-04    1.07      56.9  T
     SCC iter.                  ...        0 min,  0.107 sec
     gradient                   ...        0 min,  0.054 sec
 * total energy  :  -127.3035906 Eh     change       -0.5403401E-04 Eh
   gradient norm :     0.0016246 Eh/α   predicted    -0.4008094E-04 ( -25.82%)
   displ. norm   :     0.1458751 α      lambda       -0.4275757E-04
   maximum displ.:     0.0691367 α      in ANC's #4, #2, #5, ...

........................................................................
.............................. CYCLE    6 ..............................
........................................................................

 iter      E             dE          RMSdq      gap      omega  full diag
   1   -129.7051243 -0.129705E+03  0.384E-02    1.07       0.0  T
   2   -129.7051252 -0.952743E-06  0.221E-02    1.07       1.0  T
   3   -129.7051181  0.714392E-05  0.107E-02    1.07       1.1  T
   4   -129.7051260 -0.789811E-05  0.222E-03    1.07       5.3  T
   5   -129.7051260 -0.419695E-07  0.156E-03    1.07       7.6  T
   6   -129.7051262 -0.172847E-06  0.516E-04    1.07      22.8  T
   7   -129.7051262 -0.108831E-07  0.222E-04    1.07      53.0  T
     SCC iter.                  ...        0 min,  0.109 sec
     gradient                   ...        0 min,  0.053 sec
 * total energy  :  -127.3036293 Eh     change       -0.3876784E-04 Eh
   gradient norm :     0.0033398 Eh/α   predicted    -0.2158137E-04 ( -44.33%)
   displ. norm   :     0.0653603 α      lambda       -0.2483697E-04
   maximum displ.:     0.0353353 α      in ANC's #4, #2, #5, ...

........................................................................
.............................. CYCLE    7 ..............................
........................................................................

 iter      E             dE          RMSdq      gap      omega  full diag
   1   -129.7045727 -0.129705E+03  0.156E-02    1.07       0.0  T
   2   -129.7045727  0.702568E-08  0.915E-03    1.07       1.3  T
   3   -129.7045700  0.270093E-05  0.645E-03    1.07       1.8  T
   4   -129.7045728 -0.284469E-05  0.104E-03    1.07      11.4  T
   5   -129.7045729 -0.592179E-07  0.532E-04    1.07      22.1  T
   6   -129.7045729 -0.189352E-07  0.114E-04    1.07     103.4  T
     SCC iter.                  ...        0 min,  0.098 sec
     gradient                   ...        0 min,  0.050 sec
 * total energy  :  -127.3036508 Eh     change       -0.2150269E-04 Eh
   gradient norm :     0.0025253 Eh/α   predicted    -0.1247713E-04 ( -41.97%)
   displ. norm   :     0.1446138 α      lambda       -0.4760433E-04
   maximum displ.:     0.0794777 α      in ANC's #4, #2, #6, ...

........................................................................
.............................. CYCLE    8 ..............................
........................................................................

 iter      E             dE          RMSdq      gap      omega  full diag
   1   -129.7041050 -0.129704E+03  0.334E-02    1.07       0.0  T
   2   -129.7041050  0.505955E-08  0.196E-02    1.07       1.0  T
   3   -129.7040919  0.131583E-04  0.146E-02    1.07       1.0  T
   4   -129.7041058 -0.139140E-04  0.260E-03    1.07       4.5  T
   5   -129.7041062 -0.409881E-06  0.127E-03    1.07       9.3  T
   6   -129.7041063 -0.106188E-06  0.258E-04    1.07      45.7  T
   7   -129.7041063 -0.851429E-09  0.106E-04    1.07     110.8  T
     SCC iter.                  ...        0 min,  0.102 sec
     gradient                   ...        0 min,  0.052 sec
 * total energy  :  -127.3036852 Eh     change       -0.3438878E-04 Eh
   gradient norm :     0.0012728 Eh/α   predicted    -0.2430039E-04 ( -29.34%)
   displ. norm   :     0.1857842 α      lambda       -0.2560091E-04
   maximum displ.:     0.1057545 α      in ANC's #4, #2, #6, ...

........................................................................
.............................. CYCLE    9 ..............................
........................................................................

 iter      E             dE          RMSdq      gap      omega  full diag
   1   -129.7045141 -0.129705E+03  0.406E-02    1.08       0.0  T
   2   -129.7045143 -0.256807E-06  0.237E-02    1.08       1.0  T
   3   -129.7045007  0.136928E-04  0.151E-02    1.07       1.0  T
   4   -129.7045150 -0.143178E-04  0.290E-03    1.08       4.1  T
   5   -129.7045154 -0.445284E-06  0.157E-03    1.08       7.5  T
   6   -129.7045156 -0.170836E-06  0.298E-04    1.08      39.5  T
   7   -129.7045156 -0.116833E-08  0.113E-04    1.08     104.3  T
     SCC iter.                  ...        0 min,  0.097 sec
     gradient                   ...        0 min,  0.042 sec
 * total energy  :  -127.3037103 Eh     change       -0.2508241E-04 Eh
   gradient norm :     0.0022722 Eh/α   predicted    -0.1299702E-04 ( -48.18%)
   displ. norm   :     0.1229317 α      lambda        0.9386718E-05
   maximum displ.:     0.0699634 α      in ANC's #4, #2, #6, ...

........................................................................
.............................. CYCLE   10 ..............................
........................................................................

 iter      E             dE          RMSdq      gap      omega  full diag
   1   -129.7045734 -0.129705E+03  0.270E-02    1.08       0.0  T
   2   -129.7045735 -0.994653E-07  0.158E-02    1.08       1.0  T
   3   -129.7045668  0.675006E-05  0.107E-02    1.08       1.1  T
   4   -129.7045738 -0.709253E-05  0.202E-03    1.08       5.8  T
   5   -129.7045741 -0.224509E-06  0.106E-03    1.08      11.1  T
   6   -129.7045741 -0.771675E-07  0.207E-04    1.08      57.0  T
   7   -129.7045742 -0.542542E-09  0.771E-05    1.08     152.8  T
     SCC iter.                  ...        0 min,  0.107 sec
     gradient                   ...        0 min,  0.053 sec
 * total energy  :  -127.3037111 Eh     change       -0.7901483E-06 Eh
   gradient norm :     0.0035319 Eh/α   predicted     0.4763565E-05 (-702.87%)
   displ. norm   :     0.0270550 α      lambda       -0.1801486E-04
   maximum displ.:     0.0109430 α      in ANC's #10, #7, #14, ...

........................................................................
.............................. CYCLE   11 ..............................
........................................................................

 iter      E             dE          RMSdq      gap      omega  full diag
   1   -129.7052713 -0.129705E+03  0.910E-03    1.08       0.0  T
   2   -129.7052712  0.733702E-07  0.556E-03    1.08       2.1  T
   3   -129.7052698  0.142402E-05  0.511E-03    1.08       2.3  T
   4   -129.7052714 -0.164951E-05  0.975E-04    1.08      12.1  T
   5   -129.7052715 -0.626775E-07  0.384E-04    1.08      30.7  T
   6   -129.7052715 -0.862005E-08  0.941E-05    1.08     125.2  T
     SCC iter.                  ...        0 min,  0.090 sec
     gradient                   ...        0 min,  0.057 sec
 * total energy  :  -127.3037261 Eh     change       -0.1496543E-04 Eh
   gradient norm :     0.0023162 Eh/α   predicted    -0.9014214E-05 ( -39.77%)
   displ. norm   :     0.0846718 α      lambda       -0.3716228E-04
   maximum displ.:     0.0401588 α      in ANC's #2, #4, #10, ...

........................................................................
.............................. CYCLE   12 ..............................
........................................................................

 iter      E             dE          RMSdq      gap      omega  full diag
   1   -129.7062404 -0.129706E+03  0.227E-02    1.07       0.0  T
   2   -129.7062401  0.232312E-06  0.134E-02    1.07       1.0  T
   3   -129.7062310  0.912318E-05  0.117E-02    1.07       1.0  T
   4   -129.7062409 -0.991432E-05  0.187E-03    1.07       6.3  T
   5   -129.7062411 -0.168984E-06  0.860E-04    1.07      13.7  T
   6   -129.7062411 -0.433769E-07  0.211E-04    1.07      55.9  T
     SCC iter.                  ...        0 min,  0.094 sec
     gradient                   ...        0 min,  0.054 sec
 * total energy  :  -127.3037488 Eh     change       -0.2273905E-04 Eh
   gradient norm :     0.0008054 Eh/α   predicted    -0.1872041E-04 ( -17.67%)
   displ. norm   :     0.1088761 α      lambda       -0.8511571E-05
   maximum displ.:     0.0635952 α      in ANC's #2, #4, #1, ...

........................................................................
.............................. CYCLE   13 ..............................
........................................................................

 iter      E             dE          RMSdq      gap      omega  full diag
   1   -129.7060341 -0.129706E+03  0.220E-02    1.07       0.0  T
   2   -129.7060342 -0.122677E-06  0.126E-02    1.07       1.0  T
   3   -129.7060335  0.734542E-06  0.338E-03    1.07       3.5  T
   4   -129.7060343 -0.786311E-06  0.112E-03    1.07      10.5  T
   5   -129.7060342  0.188938E-07  0.907E-04    1.07      13.0  T
   6   -129.7060343 -0.630115E-07  0.133E-04    1.07      88.5  T
     SCC iter.                  ...        0 min,  0.088 sec
     gradient                   ...        0 min,  0.049 sec
 * total energy  :  -127.3037572 Eh     change       -0.8372092E-05 Eh
   gradient norm :     0.0010074 Eh/α   predicted    -0.4278505E-05 ( -48.90%)
   displ. norm   :     0.0688261 α      lambda       -0.4479371E-05
   maximum displ.:     0.0412132 α      in ANC's #2, #4, #1, ...

........................................................................
.............................. CYCLE   14 ..............................
........................................................................

 iter      E             dE          RMSdq      gap      omega  full diag
   1   -129.7055963 -0.129706E+03  0.136E-02    1.07       0.0  T
   2   -129.7055963 -0.265399E-07  0.794E-03    1.07       1.5  T
   3   -129.7055951  0.118189E-05  0.436E-03    1.07       2.7  T
   4   -129.7055963 -0.123331E-05  0.825E-04    1.07      14.3  T
   5   -129.7055964 -0.282041E-07  0.488E-04    1.07      24.1  T
   6   -129.7055964 -0.167503E-07  0.101E-04    1.07     117.1  T
     SCC iter.                  ...        0 min,  0.093 sec
     gradient                   ...        0 min,  0.053 sec
 * total energy  :  -127.3037620 Eh     change       -0.4773345E-05 Eh
   gradient norm :     0.0003507 Eh/α   predicted    -0.2244820E-05 ( -52.97%)
   displ. norm   :     0.0562029 α      lambda       -0.3258550E-05
   maximum displ.:     0.0337033 α      in ANC's #2, #4, #1, ...

   *** GEOMETRY OPTIMIZATION CONVERGED AFTER 14 ITERATIONS ***

------------------------------------------------------------------------
 total energy gain   :        -0.0093446 Eh       -5.8638 kcal/mol
 total RMSD          :         0.1443150 a0        0.0764 Å
 total power (kW/mol):        -1.7524525 (step)  -10.0881 (real)
------------------------------------------------------------------------

 ANCopt (total)                0 d,  0 h,  0 min,  2.432 sec
 optimizer setup                ...        0 min,  0.001 sec (  0.041%)
 model hessian                  ...        0 min,  0.038 sec (  1.562%)
 ANC generation                 ...        0 min,  0.008 sec (  0.329%)
 coordinate transformation      ...        0 min,  0.001 sec (  0.041%)
 single point calculation       ...        0 min,  2.360 sec ( 97.039%)
 optimization log               ...        0 min,  0.018 sec (  0.740%)
 hessian update                 ...        0 min,  0.000 sec (  0.000%)
 rational function              ...        0 min,  0.004 sec (  0.164%)

================
 final structure:
================
72
 xtb: 6.7.1pre (5071a88)
C            2.61975284100905       -5.37697481513443       -0.45432781304068
C            4.87488803873812       -4.61788705123143       -0.22823412603211
C           -0.24514649958938       -4.83079240502599       -0.34127917172624
C            3.97854371069163       -5.64059233567898       -0.43009929843634
C            2.11890223801146       -4.08460637745323       -0.29112314010325
C            4.41448895951922       -3.30602592792011       -0.07773304320689
C           -5.68653129190231       -4.04755989954321        0.43919773803773
C           -1.57994922160912       -4.58266439744919       -0.21956984034441
C            0.23314469615653        4.97545784636748       -0.25159466607933
C           -3.45917641051001       -3.02059990894257        0.14591094748131
C           -5.32050982888049       -1.37829684653054        0.12761919704632
C            3.97636159690915        1.86315392209787        0.09415419206582
C            2.08557313348875        3.42741863792230       -0.15838597893139
C            0.70710805487789       -3.80311845482457       -0.25603333933165
C           -1.13704541174055       -2.20957644853221       -0.04881146120916
C           -2.99590862961244       -0.61776930332851        0.03213421504687
C            6.24622415079531        2.78354634628748        0.19083762237493
C           -4.85440549125399        0.99415533066794        0.04217672538369
C            4.41677682404902        4.24428940598336       -0.20245587669583
C            3.02980143202388       -3.01341882976658       -0.12799527099102
C           -4.41619944718830        3.37705441118937       -0.02596314797055
C            1.18719380186446       -1.39443122775629       -0.05934903896959
C           -0.67450623157958        0.20240556112344       -0.01779840508861
C           -2.53764523797437        1.79008610059711       -0.02924300339229
C            5.31081819795565       -2.24418046464258        0.14472954956549
C           -2.11675793142336        4.21388284022806       -0.11041127083807
C            3.50219041978233       -0.59554400032571        0.11528934249038
C           -3.99888828379795        5.74693710356759       -0.08391157831019
C            1.66264899361179        1.00894847608057        0.00031587946257
C           -0.21925266843826        2.61281693213742       -0.08700106086830
C           -4.35052597593242       -4.11858798727750        0.40880136748359
C            4.87354108229696       -0.95879550752156        0.25277868781406
C           -2.63161722966953        5.50811926150767       -0.11779654603262
C            3.05177857583137        0.75122503346810        0.09088749038363
C            1.17779206668095        2.35220283501693       -0.07620089582362
C           -0.69814049630602        3.93985907973499       -0.14934110866574
C           -2.06653356912642       -3.27804534299286       -0.02748515547252
C           -3.92529769985656       -1.70451151915511        0.10183549201001
C            5.36551863427731        1.71871156512391        0.26522240003724
C           -5.75911134938384       -0.09530794301584        0.09547164976232
C            3.50519392422746        3.18428478946061       -0.10161947748403
C            1.57742948327938        4.72674071431387       -0.26159795210694
C            0.25618416487032       -2.47636429340570       -0.12437766761684
C           -1.60177508703639       -0.87331345645011        0.00121642737498
C           -3.45377082713614        0.71721732106671        0.01453457689659
C            5.77060285784301        4.05436905391283       -0.06702681719812
C           -5.30748638140878        2.29510899310199        0.02191350261943
C            2.57884790210587       -1.66618806898738       -0.02660049987972
C           -4.88520291242758        4.70063428097792       -0.04269996368182
C            0.73021089932211       -0.06388002878520       -0.01739563417472
C           -1.14193799039516        1.52785945664313       -0.03645414444651
C           -3.01746150824698        3.12459287238108       -0.05523396207587
H            5.93685071946772       -4.80839669053293       -0.18682557855784
H           -0.09367301727986        5.99910001330977       -0.32591875711998
H            7.30008132377231        2.59790117209438        0.33129541031964
H            4.06647946596838        5.24427801526391       -0.38976585328414
H            6.36558350781320       -2.45465954810442        0.24167779289750
H           -4.35897385007937        6.76551679821303       -0.09055567255700
H           -1.97477079752452        6.36172869075185       -0.14539846978797
H            2.23967382015294        5.57199776557120       -0.33749251176158
H            6.45341792133546        4.88576423942859       -0.15056234775718
H            1.94976244257764       -6.20707952433130       -0.60475230249618
H            0.06975296108361       -5.84938499041391       -0.49531101310083
H            4.32805795883115       -6.65431469957369       -0.56020897300159
H           -6.30862013853029       -4.90270096150608        0.64786483714090
H           -2.26289558329932       -5.41210165668194       -0.30650809071840
H           -3.91144585280273       -5.07576415894769        0.64100547030064
H           -6.81898318732518        0.11098541524427        0.10652792895133
H           -6.36988386013571        2.49011387375678        0.04450255672600
H           -5.95052650407431        4.87704984877552       -0.01961061715764
S           -6.59133640237222       -2.60838068332492        0.14600064454294
S            6.13285700462810        0.19487775172575        0.63555889930931
 
 Bond Distances (Angstroems)
 ---------------------------
C1-C4=1.3843         C1-C5=1.3956         C1-H62=1.0773        C2-C4=1.3748         C2-C6=1.3984         C2-H53=1.0797        
C3-C8=1.3631         C3-C14=1.4036        C3-H63=1.0772        C4-C1=1.3843         C4-C2=1.3748         C4-H64=1.0801        
C5-C1=1.3956         C5-C14=1.4400        C5-C20=1.4156        C6-C2=1.3984         C6-C20=1.4162        C6-C25=1.4073        
C7-C31=1.3382        C7-H65=1.0779        C7-S71=1.7251        C8-C3=1.3631         C8-C37=1.4056        C8-H66=1.0779        
C9-C36=1.3965        C9-C42=1.3671        C9-H54=1.0771        C10-C31=1.4385       C10-C37=1.4268       C10-C38=1.3969       
C11-C38=1.4331       C11-C40=1.3563       C11-S71=1.7687       C12-C34=1.4461       C12-C39=1.4071       C12-C41=1.4162       
C13-C35=1.4096       C13-C41=1.4414       C13-C42=1.3990       C14-C3=1.4036        C14-C5=1.4400        C14-C43=1.4075       
C15-C37=1.4163       C15-C43=1.4206       C15-C44=1.4157       C16-C38=1.4317       C16-C44=1.4177       C16-C45=1.4114       
C17-C39=1.3839       C17-C46=1.3812       C17-H55=1.0793       C18-C40=1.4171       C18-C45=1.4280       C18-C47=1.3777       
C19-C41=1.4017       C19-C46=1.3738       C19-H56=1.0760       C20-C5=1.4156        C20-C6=1.4162        C20-C48=1.4243       
C21-C47=1.4026       C21-C49=1.4043       C21-C52=1.4216       C22-C43=1.4288       C22-C48=1.4183       C22-C50=1.4075       
C23-C44=1.4203       C23-C50=1.4297       C23-C51=1.4056       C24-C45=1.4115       C24-C51=1.4201       C24-C52=1.4184       
C25-C6=1.4073        C25-C32=1.3620       C25-H57=1.0799       C26-C33=1.3929       C26-C36=1.4454       C26-C52=1.4145       
C27-C32=1.4253       C27-C34=1.4203       C27-C48=1.4209       C28-C33=1.3884       C28-C49=1.3719       C28-H58=1.0804       
C29-C34=1.4157       C29-C35=1.4301       C29-C50=1.4215       C30-C35=1.4212       C30-C36=1.4122       C30-C51=1.4251       
C31-C7=1.3382        C31-C10=1.4385       C31-H67=1.0784       C32-C25=1.3620       C32-C27=1.4253       C32-S72=1.7502       
C33-C26=1.3929       C33-C28=1.3884       C33-H59=1.0774       C34-C12=1.4461       C34-C27=1.4203       C34-C29=1.4157       
C35-C13=1.4096       C35-C29=1.4301       C35-C30=1.4212       C36-C9=1.3965        C36-C26=1.4454       C36-C30=1.4122       
C37-C8=1.4056        C37-C10=1.4268       C37-C15=1.4163       C38-C10=1.3969       C38-C11=1.4331       C38-C16=1.4317       
C39-C12=1.4071       C39-C17=1.3839       C39-S72=1.7459       C40-C11=1.3563       C40-C18=1.4171       C40-H68=1.0798       
C41-C12=1.4162       C41-C13=1.4414       C41-C19=1.4017       C42-C9=1.3671        C42-C13=1.3990       C42-H60=1.0765       
C43-C14=1.4075       C43-C15=1.4206       C43-C22=1.4288       C44-C15=1.4157       C44-C16=1.4177       C44-C23=1.4203       
C45-C16=1.4114       C45-C18=1.4280       C45-C24=1.4115       C46-C17=1.3812       C46-C19=1.3738       C46-H61=1.0791       
C47-C18=1.3777       C47-C21=1.4026       C47-H69=1.0804       C48-C20=1.4243       C48-C22=1.4183       C48-C27=1.4209       
C49-C21=1.4043       C49-C28=1.3719       C49-H70=1.0801       C50-C22=1.4075       C50-C23=1.4297       C50-C29=1.4215       
C51-C23=1.4056       C51-C24=1.4201       C51-C30=1.4251       C52-C21=1.4216       C52-C24=1.4184       C52-C26=1.4145       
H53-C2=1.0797        H54-C9=1.0771        H55-C17=1.0793       H56-C19=1.0760       H57-C25=1.0799       H58-C28=1.0804       
H59-C33=1.0774       H60-C42=1.0765       H61-C46=1.0791       H62-C1=1.0773        H63-C3=1.0772        H64-C4=1.0801        
H65-C7=1.0779        H66-C8=1.0779        H67-C31=1.0784       H68-C40=1.0798       H69-C47=1.0804       H70-C49=1.0801       
S71-C7=1.7251        S71-C11=1.7687       S72-C32=1.7502       S72-C39=1.7459       
 C  H  Rav=1.0786 sigma=0.0014  Rmin=1.0760  Rmax=1.0804    18
 C  C  Rav=1.4081 sigma=0.0223  Rmin=1.3382  Rmax=1.4461    67
 S  C  Rav=1.7475 sigma=0.0155  Rmin=1.7251  Rmax=1.7687     4
 
 selected bond angles (degree)
 --------------------
C5-C1-C4=121.77                H62-C1-C4=117.78               H62-C1-C5=120.44               C6-C2-C4=119.93                
H53-C2-C4=121.04               H53-C2-C6=119.03               C14-C3-C8=121.71               H63-C3-C8=118.11               
H63-C3-C14=120.18              C2-C4-C1=120.06                H64-C4-C1=119.62               H64-C4-C2=120.32               
C14-C5-C1=122.39               C20-C5-C1=118.90               C20-C5-C14=118.70              C20-C6-C2=120.79               
C25-C6-C2=121.01               C25-C6-C20=118.20              H65-C7-C31=122.58              S71-C7-C31=124.34              
S71-C7-H65=113.08              C37-C8-C3=121.34               H66-C8-C3=118.24               H66-C8-C37=120.39              
C42-C9-C36=121.42              H54-C9-C36=120.50              H54-C9-C42=118.08              C37-C10-C31=119.29             
C38-C10-C31=121.21             C38-C10-C37=119.46             
 
 selected dihedral angles (degree)
 ---------------------------------
C2-C4-C1-C5=  0.64            C2-C4-C1-H62=180.63           H64-C4-C1-C5=180.01           H64-C4-C1-H62=  0.00          
C1-C4-C2-C6=358.54            C1-C4-C2-H53=178.77           H64-C4-C2-C6=179.19           H64-C4-C2-H53=359.42          
C14-C5-C1-C4=182.76           C14-C5-C1-H62=  2.77          C20-C5-C1-C4=  1.50           C20-C5-C1-H62=181.51          
C20-C6-C2-C4=  0.12           C20-C6-C2-H53=179.89          C25-C6-C2-C4=179.29           C25-C6-C2-H53=359.06          
C37-C8-C3-C14=  1.21          C37-C8-C3-H63=180.51          H66-C8-C3-C14=179.25          H66-C8-C3-H63=358.55          
           -------------------------------------------------
          |                Final Singlepoint                |
           -------------------------------------------------

          ...................................................
          :                      SETUP                      :
          :.................................................:
          :  # basis functions                 246          :
          :  # atomic orbitals                 244          :
          :  # shells                          128          :
          :  # electrons                       238          :
          :  max. iterations                   250          :
          :  Hamiltonian                  GFN2-xTB          :
          :  restarted?                      false          :
          :  GBSA solvation                  false          :
          :  PC potential                    false          :
          :  electronic temp.          300.0000000     K    :
          :  accuracy                    1.0000000          :
          :  -> integral cutoff          0.2500000E+02      :
          :  -> integral neglect         0.1000000E-07      :
          :  -> SCF convergence          0.1000000E-05 Eh   :
          :  -> wf. convergence          0.1000000E-03 e    :
          :  Broyden damping             0.4000000          :
          :  net charge                          0          :
          :  unpaired electrons                  0          :
          ...................................................

 iter      E             dE          RMSdq      gap      omega  full diag
   1   -129.7055964 -0.129706E+03  0.392E-05    1.07       0.0  T
   2   -129.7055964 -0.200657E-10  0.293E-05    1.07     402.0  T
   3   -129.7055964 -0.483169E-10  0.142E-05    1.07     832.6  T

   *** convergence criteria satisfied after 3 iterations ***

         #    Occupation            Energy/Eh            Energy/eV
      -------------------------------------------------------------
         1        2.0000           -0.7312680             -19.8988
       ...           ...                  ...                  ...
       113        2.0000           -0.3967692             -10.7966
       114        2.0000           -0.3948979             -10.7457
       115        2.0000           -0.3919157             -10.6646
       116        2.0000           -0.3809706             -10.3667
       117        2.0000           -0.3669893              -9.9863
       118        2.0000           -0.3528852              -9.6025
       119        2.0000           -0.3417365              -9.2991 (HOMO)
       120                         -0.3023147              -8.2264 (LUMO)
       121                         -0.2774551              -7.5499
       122                         -0.2740188              -7.4564
       123                         -0.2593948              -7.0585
       124                         -0.2463495              -6.7035
       ...                                ...                  ...
       244                          0.7591794              20.6583
      -------------------------------------------------------------
                  HL-Gap            0.0394218 Eh            1.0727 eV
             Fermi-level           -0.3220256 Eh           -8.7628 eV

 SCC (total)                   0 d,  0 h,  0 min,  0.119 sec
 SCC setup                      ...        0 min,  0.001 sec (  0.840%)
 Dispersion                     ...        0 min,  0.001 sec (  0.840%)
 classical contributions        ...        0 min,  0.000 sec (  0.000%)
 integral evaluation            ...        0 min,  0.014 sec ( 11.765%)
 iterations                     ...        0 min,  0.044 sec ( 36.975%)
 molecular gradient             ...        0 min,  0.057 sec ( 47.899%)
 printout                       ...        0 min,  0.002 sec (  1.681%)

         :::::::::::::::::::::::::::::::::::::::::::::::::::::
         ::                     SUMMARY                     ::
         :::::::::::::::::::::::::::::::::::::::::::::::::::::
         :: total energy            -127.303761956291 Eh    ::
         :: gradient norm              0.000350329915 Eh/a0 ::
         :: HOMO-LUMO gap              1.072721516467 eV    ::
         ::.................................................::
         :: SCC energy              -129.707683891033 Eh    ::
         :: -> isotropic ES            0.003467333208 Eh    ::
         :: -> anisotropic ES          0.007301956178 Eh    ::
         :: -> anisotropic XC          0.054169137352 Eh    ::
         :: -> dispersion             -0.140854118551 Eh    ::
         :: repulsion energy           2.403921934742 Eh    ::
         :: add. restraining           0.000000000000 Eh    ::
         :: total charge               0.000000000000 e     ::
         :::::::::::::::::::::::::::::::::::::::::::::::::::::

           -------------------------------------------------
          |                Property Printout                |
           -------------------------------------------------

    * Orbital Energies and Occupations

         #    Occupation            Energy/Eh            Energy/eV
      -------------------------------------------------------------
         1        2.0000           -0.7312680             -19.8988
       ...           ...                  ...                  ...
       107        2.0000           -0.4113678             -11.1939
       108        2.0000           -0.4107501             -11.1771
       109        2.0000           -0.4087092             -11.1215
       110        2.0000           -0.4076317             -11.0922
       111        2.0000           -0.4016209             -10.9287
       112        2.0000           -0.3983783             -10.8404
       113        2.0000           -0.3967692             -10.7966
       114        2.0000           -0.3948979             -10.7457
       115        2.0000           -0.3919157             -10.6646
       116        2.0000           -0.3809706             -10.3667
       117        2.0000           -0.3669893              -9.9863
       118        2.0000           -0.3528852              -9.6025
       119        2.0000           -0.3417365              -9.2991 (HOMO)
       120                         -0.3023147              -8.2264 (LUMO)
       121                         -0.2774551              -7.5499
       122                         -0.2740188              -7.4564
       123                         -0.2593948              -7.0585
       124                         -0.2463495              -6.7035
       125                         -0.2425599              -6.6004
       126                         -0.2407478              -6.5511
       127                         -0.2358093              -6.4167
       128                         -0.2314835              -6.2990
       129                         -0.2289913              -6.2312
       130                         -0.2169835              -5.9044
       ...                                ...                  ...
       244                          0.7591794              20.6583
      -------------------------------------------------------------
                  HL-Gap            0.0394218 Eh            1.0727 eV
             Fermi-level           -0.3220256 Eh           -8.7628 eV

     #   Z          covCN         q      C6AA      α(0)
     1   6 C        2.923    -0.039    28.977     8.828
     2   6 C        2.923    -0.038    28.953     8.824
     3   6 C        2.919    -0.037    28.919     8.819
     4   6 C        2.914    -0.029    28.728     8.789
     5   6 C        2.979     0.006    27.871     8.660
     6   6 C        2.988     0.013    27.717     8.636
     7   6 C        2.887     0.001    27.995     8.674
     8   6 C        2.919    -0.038    28.950     8.823
     9   6 C        2.920    -0.037    28.920     8.819
    10   6 C        2.972     0.008    27.838     8.655
    11   6 C        2.959     0.039    27.122     8.542
    12   6 C        3.003    -0.000    28.020     8.683
    13   6 C        2.982     0.004    27.924     8.668
    14   6 C        2.981     0.005    27.900     8.664
    15   6 C        2.991     0.002    27.980     8.677
    16   6 C        2.987    -0.001    28.052     8.688
    17   6 C        3.028    -0.043    29.044     8.840
    18   6 C        2.980     0.011    27.761     8.643
    19   6 C        2.926    -0.043    29.065     8.841
    20   6 C        2.994    -0.001    28.051     8.688
    21   6 C        2.983     0.013    27.728     8.638
    22   6 C        2.985    -0.000    28.032     8.685
    23   6 C        2.985    -0.001    28.043     8.687
    24   6 C        2.986     0.001    28.004     8.681
    25   6 C        3.035    -0.055    29.337     8.884
    26   6 C        2.977     0.006    27.886     8.662
    27   6 C        2.999     0.000    28.012     8.682
    28   6 C        2.913    -0.030    28.746     8.792
    29   6 C        2.982    -0.002    28.070     8.691
    30   6 C        2.989     0.001    27.990     8.678
    31   6 C        2.952    -0.045    29.110     8.849
    32   6 C        2.964     0.044    27.017     8.526
    33   6 C        2.922    -0.038    28.951     8.824
    34   6 C        2.971     0.003    27.943     8.671
    35   6 C        2.987     0.002    27.979     8.677
    36   6 C        2.981     0.006    27.891     8.663
    37   6 C        2.985     0.002    27.981     8.677
    38   6 C        2.997     0.004    27.913     8.667
    39   6 C        2.973     0.047    26.937     8.513
    40   6 C        3.011    -0.060    29.467     8.905
    41   6 C        2.985     0.007    27.866     8.659
    42   6 C        2.921    -0.038    28.934     8.821
    43   6 C        2.988     0.001    27.986     8.678
    44   6 C        2.987    -0.001    28.056     8.689
    45   6 C        2.992     0.000    28.010     8.682
    46   6 C        2.916    -0.029    28.724     8.789
    47   6 C        2.926    -0.050    29.230     8.866
    48   6 C        2.988     0.000    28.019     8.683
    49   6 C        2.922    -0.038    28.937     8.821
    50   6 C        2.984     0.000    28.013     8.682
    51   6 C        2.986     0.001    28.004     8.681
    52   6 C        2.995    -0.000    28.019     8.683
    53   1 H        0.926     0.033     2.541     2.493
    54   1 H        0.926     0.035     2.515     2.480
    55   1 H        0.926     0.042     2.421     2.433
    56   1 H        0.926     0.039     2.468     2.457
    57   1 H        0.926     0.040     2.449     2.447
    58   1 H        0.926     0.029     2.595     2.519
    59   1 H        0.926     0.032     2.561     2.502
    60   1 H        0.926     0.035     2.513     2.479
    61   1 H        0.926     0.037     2.492     2.469
    62   1 H        0.926     0.033     2.547     2.496
    63   1 H        0.926     0.035     2.521     2.483
    64   1 H        0.926     0.031     2.576     2.510
    65   1 H        0.926     0.050     2.314     2.379
    66   1 H        0.926     0.033     2.542     2.493
    67   1 H        0.926     0.046     2.370     2.407
    68   1 H        0.926     0.037     2.484     2.465
    69   1 H        0.926     0.032     2.559     2.502
    70   1 H        0.926     0.031     2.567     2.506
    71  16 S        2.117    -0.072   144.039    20.200
    72  16 S        2.230    -0.112   145.752    20.319

 Mol. C6AA /au·bohr⁶  :     108107.350427
 Mol. C8AA /au·bohr⁸  :    3073486.715465
 Mol. α(0) /au        :        538.281744


Wiberg/Mayer (AO) data.
largest (>0.10) Wiberg bond orders for each atom

 ---------------------------------------------------------------------------
     #   Z sym  total        # sym  WBO       # sym  WBO       # sym  WBO
 ---------------------------------------------------------------------------
     1   6 C    3.938 --     4 C    1.419     5 C    1.376    62 H    0.961
     2   6 C    3.945 --     4 C    1.467     6 C    1.323    53 H    0.969
     3   6 C    3.968 --     8 C    1.536    14 C    1.302    63 H    0.960
     4   6 C    3.981 --     2 C    1.467     1 C    1.419    64 H    0.970
     5   6 C    3.980 --     1 C    1.376    20 C    1.264    14 C    1.146
     6   6 C    3.985 --     2 C    1.323    20 C    1.249    25 C    1.238
     7   6 C    3.930 --    31 C    1.715    71 S    1.128    65 H    0.963
     8   6 C    3.948 --     3 C    1.536    37 C    1.292    66 H    0.960
     9   6 C    3.973 --    42 C    1.501    36 C    1.335    54 H    0.960
    10   6 C    3.928 --    38 C    1.359    37 C    1.208    31 C    1.159
    11   6 C    3.942 --    40 C    1.575    38 C    1.178    71 S    1.033
    12   6 C    3.979 --    39 C    1.301    41 C    1.284    34 C    1.165
    13   6 C    3.971 --    42 C    1.329    35 C    1.294    41 C    1.143
    14   6 C    3.948 --    43 C    1.308     3 C    1.302     5 C    1.146
    15   6 C    3.975 --    37 C    1.261    44 C    1.246    43 C    1.245
    16   6 C    3.971 --    45 C    1.278    44 C    1.255    38 C    1.207
    17   6 C    3.973 --    39 C    1.416    46 C    1.403    55 H    0.967
    18   6 C    3.988 --    47 C    1.428    40 C    1.201    45 C    1.187
    19   6 C    3.978 --    46 C    1.471    41 C    1.346    56 H    0.958
    20   6 C    3.982 --     5 C    1.264     6 C    1.249    48 C    1.235
    21   6 C    3.985 --    49 C    1.298    47 C    1.287    52 C    1.233
    22   6 C    3.970 --    50 C    1.297    48 C    1.245    43 C    1.200
    23   6 C    3.970 --    51 C    1.302    44 C    1.241    50 C    1.202
    24   6 C    3.978 --    45 C    1.276    52 C    1.245    51 C    1.232
    25   6 C    3.963 --    32 C    1.534     6 C    1.238    57 H    0.964
    26   6 C    3.983 --    33 C    1.391    52 C    1.264    36 C    1.134
    27   6 C    3.960 --    34 C    1.270    48 C    1.263    32 C    1.204
    28   6 C    3.982 --    49 C    1.491    33 C    1.397    58 H    0.970
    29   6 C    3.974 --    34 C    1.294    50 C    1.247    35 C    1.204
    30   6 C    3.982 --    36 C    1.293    35 C    1.256    51 C    1.206
    31   6 C    3.981 --     7 C    1.715    10 C    1.159    67 H    0.949
    32   6 C    3.958 --    25 C    1.534    27 C    1.204    72 S    1.050
    33   6 C    3.925 --    28 C    1.397    26 C    1.391    59 H    0.962
    34   6 C    3.957 --    29 C    1.294    27 C    1.270    12 C    1.165
    35   6 C    3.980 --    13 C    1.294    30 C    1.256    29 C    1.204
    36   6 C    3.959 --     9 C    1.335    30 C    1.293    26 C    1.134
    37   6 C    3.973 --     8 C    1.292    15 C    1.261    10 C    1.208
    38   6 C    3.978 --    10 C    1.359    16 C    1.207    11 C    1.178
    39   6 C    3.954 --    17 C    1.416    12 C    1.301    72 S    1.060
    40   6 C    3.973 --    11 C    1.575    18 C    1.201    68 H    0.964
    41   6 C    3.976 --    19 C    1.346    12 C    1.284    13 C    1.143
    42   6 C    3.963 --     9 C    1.501    13 C    1.329    60 H    0.958
    43   6 C    3.984 --    14 C    1.308    15 C    1.245    22 C    1.200
    44   6 C    3.979 --    16 C    1.255    15 C    1.246    23 C    1.241
    45   6 C    3.967 --    16 C    1.278    24 C    1.276    18 C    1.187
    46   6 C    3.978 --    19 C    1.471    17 C    1.403    61 H    0.969
    47   6 C    3.911 --    18 C    1.428    21 C    1.287    69 H    0.966
    48   6 C    3.975 --    27 C    1.263    22 C    1.245    20 C    1.235
    49   6 C    3.924 --    28 C    1.491    21 C    1.298    70 H    0.969
    50   6 C    3.970 --    22 C    1.297    29 C    1.247    23 C    1.202
    51   6 C    3.956 --    23 C    1.302    24 C    1.232    30 C    1.206
    52   6 C    3.971 --    26 C    1.264    24 C    1.245    21 C    1.233
    53   1 H    0.998 --     2 C    0.969
    54   1 H    0.997 --     9 C    0.960
    55   1 H    0.997 --    17 C    0.967
    56   1 H    0.997 --    19 C    0.958
    57   1 H    0.997 --    25 C    0.964
    58   1 H    0.998 --    28 C    0.970
    59   1 H    0.998 --    33 C    0.962
    60   1 H    0.998 --    42 C    0.958
    61   1 H    0.997 --    46 C    0.969
    62   1 H    0.998 --     1 C    0.961
    63   1 H    0.998 --     3 C    0.960
    64   1 H    0.998 --     4 C    0.970
    65   1 H    0.996 --     7 C    0.963
    66   1 H    0.998 --     8 C    0.960
    67   1 H    0.997 --    31 C    0.949
    68   1 H    0.997 --    40 C    0.964
    69   1 H    0.998 --    47 C    0.966
    70   1 H    0.998 --    49 C    0.969
    71  16 S    2.483 --     7 C    1.128    11 C    1.033
    72  16 S    2.434 --    39 C    1.060    32 C    1.050
 ---------------------------------------------------------------------------

Topologies differ in total number of bonds
Writing topology from bond orders to xtbtopo.mol

molecular dipole:
                 x           y           z       tot (Debye)
 q only:       -0.237      -0.120      -0.060
   full:       -0.211      -0.161      -0.090       0.711
molecular quadrupole (traceless):
                xx          xy          yy          xz          yz          zz
 q only:       -7.506       5.792      16.758      -2.836      -1.072      -9.252
  q+dip:       -4.944       5.615      35.465      -4.586      -1.583     -30.521
   full:      -14.744       6.088      26.415      -4.515      -1.506     -11.671

           -------------------------------------------------
          |                Geometry Summary                 |
           -------------------------------------------------

      molecular mass/u    :      706.8307751
   center of mass at/Å    :        0.0000360      -0.0051682      -0.0011536
  moments of inertia/u·Å² :        0.7243471E+04   0.1067594E+05   0.1784542E+05
rotational constants/cm⁻¹ :        0.2327287E-02   0.1579030E-02   0.9446476E-03

 * 83 selected distances

     #   Z          #   Z                                           value/Å
     1   6 C        4   6 C                                       1.3843389
     2   6 C        4   6 C                                       1.3748124
     1   6 C        5   6 C                                       1.3956015
     2   6 C        6   6 C                                       1.3984269
     3   6 C        8   6 C                                       1.3631138
     3   6 C       14   6 C                                       1.4036273
     5   6 C       20   6 C                                       1.4155533
     6   6 C       20   6 C                                       1.4161586
     6   6 C       25   6 C                                       1.4072711
     7   6 C       31   6 C                                       1.3382374
    25   6 C       32   6 C                                       1.3620208
    27   6 C       32   6 C                                       1.4252922
    26   6 C       33   6 C                                       1.3929045
    28   6 C       33   6 C                                       1.3883849
    27   6 C       34   6 C                                       1.4203005
    29   6 C       34   6 C                                       1.4157351
    13   6 C       35   6 C                                       1.4095780
    29   6 C       35   6 C                                       1.4301307
    30   6 C       35   6 C                                       1.4211864
     9   6 C       36   6 C                                       1.3965003
    30   6 C       36   6 C                                       1.4121831
     8   6 C       37   6 C                                       1.4055931
    10   6 C       37   6 C                                       1.4268142
    15   6 C       37   6 C                                       1.4163436
    10   6 C       38   6 C                                       1.3968897
    11   6 C       38   6 C                                       1.4330729
    16   6 C       38   6 C                                       1.4316534
    12   6 C       39   6 C                                       1.4070841
    17   6 C       39   6 C                                       1.3838529
    11   6 C       40   6 C                                       1.3562690
    18   6 C       40   6 C                                       1.4171322
    12   6 C       41   6 C                                       1.4162321
    19   6 C       41   6 C                                       1.4016995
     9   6 C       42   6 C                                       1.3671365
    13   6 C       42   6 C                                       1.3989642
    14   6 C       43   6 C                                       1.4074596
    15   6 C       43   6 C                                       1.4205545
    22   6 C       43   6 C                                       1.4288412
    15   6 C       44   6 C                                       1.4156538
    16   6 C       44   6 C                                       1.4176979
    23   6 C       44   6 C                                       1.4203383
    16   6 C       45   6 C                                       1.4114309
    18   6 C       45   6 C                                       1.4280184
    24   6 C       45   6 C                                       1.4114710
    17   6 C       46   6 C                                       1.3811953
    19   6 C       46   6 C                                       1.3737744
    18   6 C       47   6 C                                       1.3777422
    21   6 C       47   6 C                                       1.4026014
    20   6 C       48   6 C                                       1.4243143
    22   6 C       48   6 C                                       1.4183179
    27   6 C       48   6 C                                       1.4209058
    21   6 C       49   6 C                                       1.4043178
    28   6 C       49   6 C                                       1.3718608
    22   6 C       50   6 C                                       1.4074659
    23   6 C       50   6 C                                       1.4297338
    29   6 C       50   6 C                                       1.4215189
    23   6 C       51   6 C                                       1.4055849
    24   6 C       51   6 C                                       1.4201457
    30   6 C       51   6 C                                       1.4251443
    21   6 C       52   6 C                                       1.4216405
    24   6 C       52   6 C                                       1.4183821
    26   6 C       52   6 C                                       1.4145192
     2   6 C       53   1 H                                       1.0797099
     9   6 C       54   1 H                                       1.0771153
    17   6 C       55   1 H                                       1.0792626
    19   6 C       56   1 H                                       1.0759975 (min)
    25   6 C       57   1 H                                       1.0799215
    28   6 C       58   1 H                                       1.0803752
    33   6 C       59   1 H                                       1.0774314
    42   6 C       60   1 H                                       1.0764698
    46   6 C       61   1 H                                       1.0790889
     1   6 C       62   1 H                                       1.0773062
     3   6 C       63   1 H                                       1.0772273
     4   6 C       64   1 H                                       1.0801491
     7   6 C       65   1 H                                       1.0778696
     8   6 C       66   1 H                                       1.0779334
    31   6 C       67   1 H                                       1.0783768
    40   6 C       68   1 H                                       1.0798184
    47   6 C       69   1 H                                       1.0803822
    49   6 C       70   1 H                                       1.0800788
     7   6 C       71  16 S                                       1.7250722
    32   6 C       72  16 S                                       1.7502457 (max)
    39   6 C       72  16 S                                       1.7458601

 * 3 distinct bonds (by element types)

   Z      Z             #   av. dist./Å        max./Å        min./Å
   1 H    6 C          18     1.0785841     1.0803822     1.0759975
   6 C    6 C          62     1.4053343     1.4330729     1.3382374
   6 C   16 S           3     1.7403926     1.7502457     1.7250722


optimized geometry written to: xtbopt.xyz


           -------------------------------------------------
          | TOTAL ENERGY             -127.303761956291 Eh   |
          | GRADIENT NORM               0.000350329915 Eh/α |
          | HOMO-LUMO GAP               1.072721516467 eV   |
           -------------------------------------------------

------------------------------------------------------------------------
 * finished run on 2025/12/08 at 00:34:30.909     
------------------------------------------------------------------------
 total:
 * wall-time:     0 d,  0 h,  0 min,  2.870 sec
 *  cpu-time:     0 d,  0 h,  0 min, 11.344 sec
 * ratio c/w:     3.953 speedup
 SCF:
 * wall-time:     0 d,  0 h,  0 min,  0.250 sec
 *  cpu-time:     0 d,  0 h,  0 min,  1.000 sec
 * ratio c/w:     4.000 speedup
 ANC optimizer:
 * wall-time:     0 d,  0 h,  0 min,  2.556 sec
 *  cpu-time:     0 d,  0 h,  0 min, 10.094 sec
 * ratio c/w:     3.949 speedup

normal termination of xtb
