72
 energy: -127.303761956291 gnorm: 0.000350329915 xtb: 6.7.1pre (5071a88)
C            2.61975284100905       -5.37697481513443       -0.45432781304068
C            4.87488803873812       -4.61788705123143       -0.22823412603211
C           -0.24514649958938       -4.83079240502599       -0.34127917172624
C            3.97854371069163       -5.64059233567898       -0.43009929843634
C            2.11890223801146       -4.08460637745323       -0.29112314010325
C            4.41448895951922       -3.30602592792011       -0.07773304320689
C           -5.68653129190231       -4.04755989954321        0.43919773803773
C           -1.57994922160912       -4.58266439744919       -0.21956984034441
C            0.23314469615653        4.97545784636748       -0.25159466607933
C           -3.45917641051001       -3.02059990894257        0.14591094748131
C           -5.32050982888049       -1.37829684653054        0.12761919704632
C            3.97636159690915        1.86315392209787        0.09415419206582
C            2.08557313348875        3.42741863792230       -0.15838597893139
C            0.70710805487789       -3.80311845482457       -0.25603333933165
C           -1.13704541174055       -2.20957644853221       -0.04881146120916
C           -2.99590862961244       -0.61776930332851        0.03213421504687
C            6.24622415079531        2.78354634628748        0.19083762237493
C           -4.85440549125399        0.99415533066794        0.04217672538369
C            4.41677682404902        4.24428940598336       -0.20245587669583
C            3.02980143202388       -3.01341882976658       -0.12799527099102
C           -4.41619944718830        3.37705441118937       -0.02596314797055
C            1.18719380186446       -1.39443122775629       -0.05934903896959
C           -0.67450623157958        0.20240556112344       -0.01779840508861
C           -2.53764523797437        1.79008610059711       -0.02924300339229
C            5.31081819795565       -2.24418046464258        0.14472954956549
C           -2.11675793142336        4.21388284022806       -0.11041127083807
C            3.50219041978233       -0.59554400032571        0.11528934249038
C           -3.99888828379795        5.74693710356759       -0.08391157831019
C            1.66264899361179        1.00894847608057        0.00031587946257
C           -0.21925266843826        2.61281693213742       -0.08700106086830
C           -4.35052597593242       -4.11858798727750        0.40880136748359
C            4.87354108229696       -0.95879550752156        0.25277868781406
C           -2.63161722966953        5.50811926150767       -0.11779654603262
C            3.05177857583137        0.75122503346810        0.09088749038363
C            1.17779206668095        2.35220283501693       -0.07620089582362
C           -0.69814049630602        3.93985907973499       -0.14934110866574
C           -2.06653356912642       -3.27804534299286       -0.02748515547252
C           -3.92529769985656       -1.70451151915511        0.10183549201001
C            5.36551863427731        1.71871156512391        0.26522240003724
C           -5.75911134938384       -0.09530794301584        0.09547164976232
C            3.50519392422746        3.18428478946061       -0.10161947748403
C            1.57742948327938        4.72674071431387       -0.26159795210694
C            0.25618416487032       -2.47636429340570       -0.12437766761684
C           -1.60177508703639       -0.87331345645011        0.00121642737498
C           -3.45377082713614        0.71721732106671        0.01453457689659
C            5.77060285784301        4.05436905391283       -0.06702681719812
C           -5.30748638140878        2.29510899310199        0.02191350261943
C            2.57884790210587       -1.66618806898738       -0.02660049987972
C           -4.88520291242758        4.70063428097792       -0.04269996368182
C            0.73021089932211       -0.06388002878520       -0.01739563417472
C           -1.14193799039516        1.52785945664313       -0.03645414444651
C           -3.01746150824698        3.12459287238108       -0.05523396207587
H            5.93685071946772       -4.80839669053293       -0.18682557855784
H           -0.09367301727986        5.99910001330977       -0.32591875711998
H            7.30008132377231        2.59790117209438        0.33129541031964
H            4.06647946596838        5.24427801526391       -0.38976585328414
H            6.36558350781320       -2.45465954810442        0.24167779289750
H           -4.35897385007937        6.76551679821303       -0.09055567255700
H           -1.97477079752452        6.36172869075185       -0.14539846978797
H            2.23967382015294        5.57199776557120       -0.33749251176158
H            6.45341792133546        4.88576423942859       -0.15056234775718
H            1.94976244257764       -6.20707952433130       -0.60475230249618
H            0.06975296108361       -5.84938499041391       -0.49531101310083
H            4.32805795883115       -6.65431469957369       -0.56020897300159
H           -6.30862013853029       -4.90270096150608        0.64786483714090
H           -2.26289558329932       -5.41210165668194       -0.30650809071840
H           -3.91144585280273       -5.07576415894769        0.64100547030064
H           -6.81898318732518        0.11098541524427        0.10652792895133
H           -6.36988386013571        2.49011387375678        0.04450255672600
H           -5.95052650407431        4.87704984877552       -0.01961061715764
S           -6.59133640237222       -2.60838068332492        0.14600064454294
S            6.13285700462810        0.19487775172575        0.63555889930931
