72
 energy: -127.294417324785 gnorm: 0.037892891018 xtb: 6.7.1pre (5071a88)
C            2.63614300000000       -5.42022200000000       -0.40990500000000
C            4.91365200000000       -4.64121500000000       -0.27932800000000
C           -0.24291600000000       -4.87293700000000       -0.21821900000000
C            4.00600100000000       -5.67862200000000       -0.43228800000000
C            2.13643700000000       -4.11663400000000       -0.24523600000000
C            4.45469600000000       -3.32169300000000       -0.11973300000000
C           -5.75283400000000       -4.09009300000000        0.30741800000000
C           -1.58652000000000       -4.62199300000000       -0.12260400000000
C            0.23874500000000        5.01022100000000       -0.23506800000000
C           -3.49868000000000       -3.04421000000000        0.11830900000000
C           -5.37807900000000       -1.38486900000000        0.12297900000000
C            4.01627200000000        1.88367600000000        0.09552400000000
C            2.10242000000000        3.45317500000000       -0.14480500000000
C            0.71244500000000       -3.83297100000000       -0.18459700000000
C           -1.15011700000000       -2.22688500000000       -0.02292600000000
C           -3.01985600000000       -0.62272100000000        0.04104600000000
C            6.30287500000000        2.80100100000000        0.14252000000000
C           -4.89293500000000        1.00294500000000        0.06834900000000
C            4.45043100000000        4.28298300000000       -0.20318900000000
C            3.05682200000000       -3.03678000000000       -0.12027800000000
C           -4.44971300000000        3.40180200000000       -0.00994700000000
C            1.19710000000000       -1.40426500000000       -0.03555900000000
C           -0.68005500000000        0.20400300000000       -0.00622700000000
C           -2.55578000000000        1.80170100000000       -0.01507400000000
C            5.36476000000000       -2.24749600000000        0.06668100000000
C           -2.13159800000000        4.24441000000000       -0.11062600000000
C            3.53297700000000       -0.60283200000000        0.11917700000000
C           -4.02615500000000        5.78756500000000       -0.10029000000000
C            1.68145800000000        1.01424900000000        0.01721800000000
C           -0.21823000000000        2.63142200000000       -0.07706400000000
C           -4.41078500000000       -4.16434800000000        0.29608800000000
C            4.92759200000000       -0.96281800000000        0.22098900000000
C           -2.64787300000000        5.54777400000000       -0.13619700000000
C            3.08101900000000        0.75580600000000        0.10434100000000
C            1.19108600000000        2.37043800000000       -0.06382700000000
C           -0.69883700000000        3.96749200000000       -0.14262300000000
C           -2.08827400000000       -3.30279300000000       -0.00248800000000
C           -3.96158200000000       -1.71957500000000        0.09064900000000
C            5.42142900000000        1.73130700000000        0.24646600000000
C           -5.80747500000000       -0.09290900000000        0.12138900000000
C            3.53576300000000        3.21053300000000       -0.09723900000000
C            1.59067800000000        4.76145300000000       -0.24059300000000
C            0.25629200000000       -2.49665000000000       -0.08432900000000
C           -1.61574500000000       -0.88005100000000        0.01263800000000
C           -3.47896800000000        0.72317500000000        0.03156200000000
C            5.81261500000000        4.08554900000000       -0.09502200000000
C           -5.34454500000000        2.30943600000000        0.05059900000000
C            2.59961100000000       -1.67739700000000       -0.01280100000000
C           -4.91984100000000        4.73393500000000       -0.03830400000000
C            0.73962500000000       -0.06600900000000       -0.00108500000000
C           -1.14917900000000        1.53633900000000       -0.02585400000000
C           -3.03889100000000        3.14835100000000       -0.04420600000000
H            5.98306300000000       -4.83307200000000       -0.27920600000000
H           -0.08968100000000        6.03974700000000       -0.30249700000000
H            7.37034800000000        2.62970800000000        0.24622700000000
H            4.09292300000000        5.28873100000000       -0.37648800000000
H            6.42780100000000       -2.46848700000000        0.11190500000000
H           -4.38942700000000        6.81116200000000       -0.12061800000000
H           -1.98416600000000        6.40237000000000       -0.17995900000000
H            2.25709200000000        5.61100400000000       -0.30375900000000
H            6.49753300000000        4.92286800000000       -0.18786600000000
H            1.95770900000000       -6.25573600000000       -0.52813800000000
H            0.07600600000000       -5.90342000000000       -0.30944300000000
H            4.35738100000000       -6.69799800000000       -0.56336600000000
H           -6.37413800000000       -4.96792300000000        0.45108100000000
H           -2.26128700000000       -5.46611000000000       -0.16919100000000
H           -3.99141000000000       -5.14632300000000        0.46967300000000
H           -6.87069600000000        0.13148700000000        0.14801000000000
H           -6.41340700000000        2.50595000000000        0.07875800000000
H           -5.99101500000000        4.91468800000000       -0.01057000000000
S           -6.66076400000000       -2.62062300000000        0.09645800000000
S            6.16479500000000        0.19880000000000        0.69397800000000
72
 energy: -127.301876703493 gnorm: 0.015881521400 xtb: 6.7.1pre (5071a88)
C            2.63193386796754       -5.39587280351347       -0.40730347020717
C            4.89466755755935       -4.62271610629399       -0.27936074503300
C           -0.23863794509915       -4.85126571364649       -0.21764489637025
C            3.99374771759551       -5.65382037881616       -0.43046026900758
C            2.13068091154695       -4.09943881218917       -0.24321525744191
C            4.43542496481542       -3.30882030588703       -0.12355742152433
C           -5.73095312049917       -4.06657063491722        0.30924631071792
C           -1.57706475747041       -4.60166558431592       -0.12421787174579
C            0.23584179811549        4.98802400108093       -0.23233236691052
C           -3.48333108030064       -3.03197456613922        0.11838533812686
C           -5.34751372011693       -1.37729797126446        0.11728696438389
C            3.99559522567689        1.87436613358469        0.09448713522053
C            2.09387537153675        3.43799579819112       -0.14294794182963
C            0.71340044550242       -3.81700664261528       -0.18289023313427
C           -1.14396502237811       -2.21904496207264       -0.02205150667853
C           -3.00804715024715       -0.62063120563378        0.04164800651782
C            6.27445915420312        2.78959574503467        0.14411718016952
C           -4.86997423054928        1.00052877397335        0.06924787836342
C            4.43537992178333        4.26025555226343       -0.20315785860004
C            3.04489613380278       -3.02256015298305       -0.12204590778906
C           -4.43008447821052        3.38932436575215       -0.01003706649070
C            1.19225109214245       -1.39881025483642       -0.03569674465262
C           -0.67758483993316        0.20258133911612       -0.00494175266223
C           -2.54613060627139        1.79529101980778       -0.01441382868393
C            5.33865523586212       -2.23981949191015        0.07000893316567
C           -2.12490204650807        4.22686380416094       -0.10987654262856
C            3.51613394689947       -0.59782114073296        0.11571590582545
C           -4.01233671910810        5.76258477470232       -0.09951421531113
C            1.67210709985614        1.01134594385415        0.01444455959647
C           -0.21879690764297        2.62059442596432       -0.07603928404762
C           -4.39463174584623       -4.14094799036743        0.29823898177770
C            4.89887417729903       -0.96027079433414        0.22447211206739
C           -2.64258029778869        5.52344664530108       -0.13506534033724
C            3.06625747302365        0.75429481104757        0.09958286976252
C            1.18414493246667        2.36020483390666       -0.06288857850652
C           -0.69919950916570        3.95071353393397       -0.14096433242814
C           -2.07836827094441       -3.29014353528239       -0.00112465223320
C           -3.94391599872393       -1.71174651238919        0.09025344495023
C            5.39235613553785        1.72798466152115        0.24823567994118
C           -5.77894160185220       -0.09164414195922        0.11722454483622
C            3.52057429621989        3.19618007095202       -0.09673341506873
C            1.58261641877751        4.74005786845954       -0.23802098702266
C            0.25670523072159       -2.48641772196972       -0.08378663331178
C           -1.60932585895297       -0.87747519733532        0.01309873136627
C           -3.46468407709739        0.72011357818206        0.03205651937783
C            5.79178340932858        4.06516166554940       -0.09872669760493
C           -5.32151545840132        2.30309270668868        0.05095772583755
C            2.58925416210523       -1.67017608700354       -0.01567472279659
C           -4.89961384534796        4.71521188181051       -0.03839380196035
C            0.73500046277365       -0.06483596648109       -0.00120461960206
C           -1.14545686920822        1.53096547314048       -0.02537942764047
C           -3.02720135756408        3.13531901059221       -0.04385152693680
H            5.95952278033945       -4.81528730162086       -0.27833560316614
H           -0.08993330120831        6.01468807723601       -0.30038495223592
H            7.33612172685979        2.61509332425124        0.25562689859359
H            4.08422974841052        5.26471026493483       -0.37348100652075
H            6.39811934463532       -2.45591695346392        0.12420334430147
H           -4.37500845002008        6.78255419816858       -0.12012311077598
H           -1.98612660177448        6.37875593263897       -0.17951424248576
H            2.24555181571315        5.58812125295549       -0.30398492495613
H            6.47641094202764        4.89796706518291       -0.18886077066298
H            1.96011299090573       -6.23182984740425       -0.52575529283864
H            0.07842243060255       -5.87862543579388       -0.31017363034610
H            4.34475620437953       -6.66958148809537       -0.56020244633399
H           -6.35627513569185       -4.93694464984899        0.44704430674509
H           -2.24876632046683       -5.44469522870607       -0.17112618147739
H           -3.97784605896292       -5.12137772446046        0.46812913691136
H           -6.83956035248961        0.12496714452625        0.14132616832232
H           -6.38623002868270        2.50003728114658        0.07883072145248
H           -5.96633404038297        4.89698987702385       -0.01114452902425
S           -6.63221420005977       -2.60240853382356        0.10098164205909
S            6.14532787797460        0.19805500147078        0.66315556663258
72
 energy: -127.303464189813 gnorm: 0.006011646439 xtb: 6.7.1pre (5071a88)
C            2.62395623475606       -5.37976019071208       -0.40797337259277
C            4.88201846292922       -4.60966182164492       -0.27817082578537
C           -0.23530361882149       -4.83916537139106       -0.22011665981274
C            3.98306534690756       -5.63810934176972       -0.43123072780537
C            2.12440742009306       -4.08681088047579       -0.24500777333695
C            4.42219791305826       -3.29914252239702       -0.12057933015660
C           -5.71437009646523       -4.05073146683320        0.31052192954024
C           -1.57153894725093       -4.59053378463078       -0.12599071597926
C            0.23380858931973        4.97551873343970       -0.23114023495734
C           -3.47026948318017       -3.02413775215531        0.12027063008373
C           -5.32608376534973       -1.37337835211318        0.11587325028693
C            3.97999887892413        1.86578376015311        0.09231700239813
C            2.08672244462458        3.42810480963176       -0.14316419165875
C            0.71273711154135       -3.80636022817138       -0.18390647401776
C           -1.13927291101716       -2.21353905522217       -0.02109676929782
C           -2.99871832083670       -0.61915889201366        0.04226141387230
C            6.25334529452034        2.78148595295670        0.14993905925509
C           -4.85405556159661        0.99835686388492        0.06753576565502
C            4.41885032531717        4.24641570165096       -0.20391580474298
C            3.03565782271191       -3.01191117806824       -0.12313419068461
C           -4.41597076989379        3.38019394421908       -0.00928100451266
C            1.18819898239474       -1.39508181839104       -0.03650397182982
C           -0.67536067677640        0.20115353027021       -0.00355378350195
C           -2.53809511536198        1.79050371381277       -0.01314934770898
C            5.32165028030483       -2.23381231690373        0.07716145131020
C           -2.11746719135385        4.21464848732094       -0.10866212527082
C            3.50476660815792       -0.59374438648125        0.11354341431620
C           -3.99955921296798        5.74787640081054       -0.09912616163820
C            1.66419724076455        1.00915271132786        0.01323947047622
C           -0.21888848467850        2.61286129791897       -0.07509076595700
C           -4.37918405583792       -4.12601631960991        0.30020875566955
C            4.88009826659869       -0.95553244157610        0.22407329755829
C           -2.63294890879836        5.50823627375638       -0.13439356767115
C            3.05442977484986        0.75287679372964        0.09793159670108
C            1.17874564177780        2.35281913572292       -0.06295690094812
C           -0.69798438508270        3.93971067702657       -0.13950012669637
C           -2.07028941665129       -3.28251361968742       -0.00007915250246
C           -3.93089532935140       -1.70618903046995        0.09112409259102
C            5.37155194626019        1.72165111810917        0.24674164567122
C           -5.76021716573139       -0.09012654491321        0.11292623543921
C            3.50743140549205        3.18588680406338       -0.09690371344957
C            1.57825668080670        4.72753934663248       -0.23804854897703
C            0.25659346723764       -2.47899496597527       -0.08383458124053
C           -1.60389697652428       -0.87565939799014        0.01454401524269
C           -3.45413155444908        0.71779363919699        0.03237193695960
C            5.77388538953054        4.05372771514184       -0.09639702129310
C           -5.30648775513581        2.29857528755308        0.05039614751078
C            2.58138058796860       -1.66489038921467       -0.01710984126866
C           -4.88531030566828        4.70285004807996       -0.03796554046650
C            0.73107913819769       -0.06424637798252       -0.00140075276665
C           -1.14197833356060        1.52699432489153       -0.02406884539826
C           -3.01764137968622        3.12595965951048       -0.04271255363124
H            5.94498045653430       -4.79944157016680       -0.27713217408633
H           -0.09262355771207        6.00000928826675       -0.29834933031609
H            7.31084815135825        2.60043473856975        0.26712977223628
H            4.06762829884815        5.24890266882797       -0.37627258096953
H            6.37909941654430       -2.44458293751629        0.13953709503558
H           -4.36079706226205        6.76599852452733       -0.11979799019272
H           -1.97753686962036        6.36226772785576       -0.17933912048528
H            2.24118759537608        5.57333427558042       -0.30521452565347
H            6.45769713427534        4.88334516687665       -0.19209151873394
H            1.95316691767726       -6.21475818282289       -0.52432521836393
H            0.08318408878676       -5.86392502565205       -0.31509260247477
H            4.33288425282452       -6.65202849870547       -0.56013301910658
H           -6.34285107818086       -4.91514320543603        0.44969667774092
H           -2.24257935576817       -5.43209421822799       -0.17459748891180
H           -3.96122615651617       -5.10484229367192        0.46893872000882
H           -6.81941454628125        0.12056406918947        0.13270266321093
H           -6.36868752005024        2.49497680681823        0.07867991593350
H           -5.95009071611548        4.88252141863200       -0.01138046855864
S           -6.61090600952296       -2.59115204744588        0.10483023734310
S            6.13506602678736        0.19672101048277        0.63679522336384
72
 energy: -127.303536540166 gnorm: 0.003143746246 xtb: 6.7.1pre (5071a88)
C            2.62232528652874       -5.37855129010011       -0.41013149069441
C            4.88075265357195       -4.60879408858511       -0.27662869256553
C           -0.23519620592414       -4.83890760831526       -0.22439239848909
C            3.98171221870358       -5.63713071044804       -0.43267961562385
C            2.12314500246627       -4.08568330309376       -0.24674037080799
C            4.42068721696850       -3.29850156931312       -0.11720365314789
C           -5.71213722090731       -4.04853814641611        0.31557921698029
C           -1.57130778432908       -4.59051742333632       -0.12909227159135
C            0.23342924203857        4.97516512232200       -0.23138344170341
C           -3.46821889558384       -3.02384545787323        0.12186888623336
C           -5.32393854210483       -1.37341136579612        0.11511584467826
C            3.97779744597166        1.86452269296998        0.09183382633586
C            2.08550585959731        3.42758672725166       -0.14425647002062
C            0.71216305439849       -3.80565829188325       -0.18633617627589
C           -1.13865010036748       -2.21311340536786       -0.02082924821334
C           -2.99735525109893       -0.61902389158427        0.04299452066317
C            6.25023210996588        2.78162086258431        0.15357162797719
C           -4.85243043661471        0.99798150556812        0.06608553080386
C            4.41617688610508        4.24534697554719       -0.20662147555180
C            3.03430885436679       -3.01084581629474       -0.12285279945095
C           -4.41420411617895        3.37932216726211       -0.00884104191585
C            1.18761286407972       -1.39493076124744       -0.03674733809912
C           -0.67497501010463        0.20069957337758       -0.00285594772710
C           -2.53680149819033        1.78993168762703       -0.01232337923111
C            5.31977988105962       -2.23410897540077        0.08330697028959
C           -2.11594458329583        4.21347343755727       -0.10781040417385
C            3.50380481137855       -0.59337640092036        0.11287645177486
C           -3.99723867154329        5.74741060644850       -0.09854246950955
C            1.66292358121851        1.00887409010932        0.01236419132103
C           -0.21885822682361        2.61193214192587       -0.07476036351548
C           -4.37651423379120       -4.12464948810652        0.30471280957537
C            4.87835754767743       -0.95462924746811        0.22498339525606
C           -2.63048479320971        5.50734517558304       -0.13370045722152
C            3.05276944205895        0.75261326439551        0.09626730486543
C            1.17802699806670        2.35204359047199       -0.06334870517116
C           -0.69749388453705        3.93879438802278       -0.13910364216501
C           -2.06908606449798       -3.28239611012569       -0.00022218162239
C           -3.92931596544503       -1.70556272199459        0.09197384217094
C            5.36884004160261        1.72042301313731        0.24726371603003
C           -5.75871275148191       -0.08965081937590        0.10963704732774
C            3.50541991664631        3.18513443645422       -0.09786661580328
C            1.57759528738591        4.72720483339737       -0.23911858133137
C            0.25648424118254       -2.47825355169989       -0.08450990938363
C           -1.60300428206731       -0.87564549020955        0.01554609142715
C           -3.45283448262284        0.71745761462543        0.03253526363707
C            5.77143153034664        4.05348706803689       -0.09590886618141
C           -5.30521896318661        2.29834243011608        0.04979617871028
C            2.58035982545144       -1.66462253524343       -0.01716375151415
C           -4.88335740961982        4.70217359691757       -0.03748050978435
C            0.73046084983741       -0.06438735378231       -0.00129934988050
C           -1.14135449577725        1.52647715039339       -0.02318454460472
C           -3.01614733249815        3.12488903412880       -0.04187248840642
H            5.94393395453333       -4.79657124913763       -0.27462325125486
H           -0.09344155898323        5.99925771357222       -0.29838439310296
H            7.30662756189385        2.59777559116968        0.27513638239883
H            4.06443939069194        5.24691168521823       -0.38222880428408
H            6.37712681164980       -2.44312535500673        0.14935312144616
H           -4.35765065570831        6.76560134525851       -0.11964702268108
H           -1.97424775327049        6.36061862635476       -0.17884453924699
H            2.24016716975039        5.57285330018289       -0.30665012955500
H            6.45448026920888        4.88346916638836       -0.19050423627903
H            1.95117618730480       -6.21291616594475       -0.52776281705607
H            0.08370016294582       -5.86308037787033       -0.32152597946396
H            4.33091644008815       -6.65080051119401       -0.56347389843505
H           -6.34068116769867       -4.91269224651971        0.45478583453975
H           -2.24212751011107       -5.43183222777108       -0.18015718695304
H           -3.95790960114501       -5.10279655322793        0.47527161693831
H           -6.81791117287449        0.11981207629244        0.12725482019065
H           -6.36730296069104        2.49413048774043        0.07754855397178
H           -5.94825438400064        4.88025708379874       -0.01113684919652
S           -6.60788277603240       -2.59042649688619        0.10684242014511
S            6.13566114557507        0.19661274533268        0.62764229319860
72
 energy: -127.303590574180 gnorm: 0.001624619638 xtb: 6.7.1pre (5071a88)
C            2.62156983881927       -5.37830978509448       -0.41507665615230
C            4.88016360476902       -4.60950211479705       -0.27257392191213
C           -0.23603811762173       -4.83915086670282       -0.23314804459873
C            3.98129726640994       -5.63722560512058       -0.43538996365435
C            2.12218567154631       -4.08560313312167       -0.24983797279573
C            4.41976537679429       -3.29931323577380       -0.11026304381020
C           -5.71025136954136       -4.04717847197792        0.32420702797837
C           -1.57212107960909       -4.59082077294983       -0.13566887453495
C            0.23344183638593        4.97549634443850       -0.23203959229543
C           -3.46682972439810       -3.02390269841388        0.12517423873706
C           -5.32314029798579       -1.37387417896866        0.11487927398924
C            3.97679285731341        1.86365636971547        0.08992342685296
C            2.08494415823766        3.42746763377076       -0.14682402739843
C            0.71142556075241       -3.80580125425695       -0.19092070434668
C           -1.13830058875779       -2.21297826881172       -0.02086480474664
C           -2.99668202716580       -0.61890258447218        0.04383528378576
C            6.24797612406922        2.78362841130321        0.16032559480996
C           -4.85192763320098        0.99765452588030        0.06319922444969
C            4.41465429207820        4.24502635364146       -0.21089535172279
C            3.03339396969953       -3.01084114933691       -0.12146918678850
C           -4.41338430025543        3.37911522648644       -0.00838747371396
C            1.18739391660583       -1.39521784942980       -0.03719768745305
C           -0.67468635986147        0.20030641050737       -0.00202927418428
C           -2.53607246416340        1.78977485575219       -0.01136940118922
C            5.31840299486169       -2.23594528845417        0.09392397923036
C           -2.11500738479808        4.21317674457898       -0.10647706501526
C            3.50380039923494       -0.59351669965925        0.11227490223001
C           -3.99600910772098        5.74791751106480       -0.09728344986047
C            1.66230834200753        1.00864007967443        0.01075636169780
C           -0.21879818375374        2.61150201674571       -0.07458193361762
C           -4.37412987055659       -4.12409276445239        0.31299572916099
C            4.87780511486356       -0.95425797150821        0.22687704437310
C           -2.62908674399413        5.50747766384159       -0.13225487956915
C            3.05206885738545        0.75231622734810        0.09382213461903
C            1.17778960540106        2.35161657485466       -0.06467996079936
C           -0.69710193364394        3.93865238251376       -0.13863676141688
C           -2.06850144399469       -3.28252987079287       -0.00080033225717
C           -3.92861203594543       -1.70509786394990        0.09384098348153
C            5.36748036569369        1.71978953792822        0.24741612656685
C           -5.75840969863106       -0.08934624604394        0.10464093584950
C            3.50444384627359        3.18493156750400       -0.10066759205461
C            1.57743402121254        4.72744675342903       -0.24111721532297
C            0.25642564289052       -2.47808130109564       -0.08585102223413
C           -1.60247312446062       -0.87573645680131        0.01682186181509
C           -3.45234150382949        0.71731249697393        0.03236543128774
C            5.77001676474780        4.05475915159763       -0.09297022203352
C           -5.30497841606401        2.29851882808443        0.04799496236135
C            2.57993634484557       -1.66506940407593       -0.01675389236389
C           -4.88232338997635        4.70244857202277       -0.03661732844000
C            0.73016047125878       -0.06466100989225       -0.00159052099244
C           -1.14098157233625        1.52631314862403       -0.02209923384145
C           -3.01534095764568        3.12447421617012       -0.04076591761657
H            5.94373892294802       -4.79493265227958       -0.26826797770707
H           -0.09345458725062        5.99936884833533       -0.29888640034017
H            7.30313935971006        2.59664705627365        0.28782795898179
H            4.06242578942413        5.24514250181401       -0.39323599709810
H            6.37570952268661       -2.44305969845119        0.16542529160738
H           -4.35544959553359        6.76637464840724       -0.11856542993948
H           -1.97220092195944        6.36015157732504       -0.17724054971691
H            2.23952953079525        5.57319115464261       -0.30909757415174
H            6.45210193393558        4.88543490642854       -0.18668934398495
H            1.95033109730918       -6.21200784532297       -0.53608577694127
H            0.08271330760561       -5.86274142743476       -0.33505161183514
H            4.32981550310637       -6.65061648380321       -0.56960126035727
H           -6.33816416497836       -4.91112247867837        0.46788056479202
H           -2.24321918591115       -5.43157301554236       -0.19081827535847
H           -3.95436782005324       -5.10089118474191        0.48850917104007
H           -6.81780827618066        0.11873540240363        0.11846917817942
H           -6.36713494526143        2.49342832438354        0.07469936502132
H           -5.94749539874405        4.87864315689389       -0.01058316372432
S           -6.60545871479733       -2.59089437102637        0.10990358125139
S            6.13784172890327        0.19683482187551        0.61463703573794
72
 energy: -127.303629342018 gnorm: 0.003339829805 xtb: 6.7.1pre (5071a88)
C            2.62155618516237       -5.37849607910723       -0.42343479687995
C            4.87989613816205       -4.61195061729046       -0.26428323675360
C           -0.23772596946346       -4.83891195044304       -0.24830481566132
C            3.98150260627305       -5.63808793823609       -0.43850031987777
C            2.12163638976883       -4.08629048858138       -0.25461946326579
C            4.41925078260771       -3.30171017277406       -0.09917417434749
C           -5.70830353153744       -4.04657590884459        0.34008070952956
C           -1.57377162723734       -4.59049396361218       -0.14720374991603
C            0.23364194167821        4.97590809612930       -0.23323471502275
C           -3.46621843235385       -3.02389888241135        0.12992779555358
C           -5.32350471285603       -1.37468169236015        0.11501543054072
C            3.97733710823701        1.86346563404660        0.08667949714847
C            2.08521588128259        3.42741556792498       -0.15130652673978
C            0.71067938085590       -3.80627195773636       -0.19868612185930
C           -1.13819771746793       -2.21294336873800       -0.02182240730626
C           -2.99677335985619       -0.61881869193439        0.04440747110034
C            6.24702027816912        2.78707441594273        0.16947575691255
C           -4.85252828072003        0.99727620836239        0.05867234966113