      -----------------------------------------------------------      
     |                   =====================                   |     
     |                           x T B                           |     
     |                   =====================                   |     
     |                         S. Grimme                         |     
     |          Mulliken Center for Theoretical Chemistry        |     
     |                    University of Bonn                     |     
      -----------------------------------------------------------      

   * xtb version 6.7.1pre (5071a88) compiled by 'Marcel@Raven' on 2024-07-23

   xtb is free software: you can redistribute it and/or modify it under
   the terms of the GNU Lesser General Public License as published by
   the Free Software Foundation, either version 3 of the License, or
   (at your option) any later version.
   
   xtb is distributed in the hope that it will be useful,
   but WITHOUT ANY WARRANTY; without even the implied warranty of
   MERCHANTABILITY or FITNESS FOR A PARTICULAR PURPOSE.  See the
   GNU Lesser General Public License for more details.
   
   Cite this work as:
   * C. Bannwarth, E. Caldeweyher, S. Ehlert, A. Hansen, P. Pracht,
     J. Seibert, S. Spicher, S. Grimme, WIREs Comput. Mol. Sci., 2020, 11,
     e01493. DOI: 10.1002/wcms.1493
   
   for GFN2-xTB:
   * C. Bannwarth, S. Ehlert and S. Grimme., J. Chem. Theory Comput., 2019,
     15, 1652-1671. DOI: 10.1021/acs.jctc.8b01176
   for GFN1-xTB:
   * S. Grimme, C. Bannwarth, P. Shushkov, J. Chem. Theory Comput., 2017,
     13, 1989-2009. DOI: 10.1021/acs.jctc.7b00118
   for GFN0-xTB:
   * P. Pracht, E. Caldeweyher, S. Ehlert, S. Grimme, ChemRxiv, 2019, preprint.
     DOI: 10.26434/chemrxiv.8326202.v1
   for GFN-FF:
   * S. Spicher and S. Grimme, Angew. Chem. Int. Ed., 2020, 59, 15665-15673.
     DOI: 10.1002/anie.202004239
   
   for ALPB and GBSA implicit solvation:
   * S. Ehlert, M. Stahn, S. Spicher, S. Grimme, J. Chem. Theory Comput.,
     2021, 17, 4250-4261. DOI: 10.1021/acs.jctc.1c00471
   
   for ddCOSMO and CPCM-X implicit solvation:
   * M. Stahn, S. Ehlert, S. Grimme, J. Phys. Chem. A,
     2023, XX, XXXX-XXXX. DOI: 10.1021/acs.jpca.3c04382
   
   for DFT-D4:
   * E. Caldeweyher, C. Bannwarth and S. Grimme, J. Chem. Phys., 2017,
     147, 034112. DOI: 10.1063/1.4993215
   * E. Caldeweyher, S. Ehlert, A. Hansen, H. Neugebauer, S. Spicher,
     C. Bannwarth and S. Grimme, J. Chem. Phys., 2019, 150, 154122.
     DOI: 10.1063/1.5090222
   * E. Caldeweyher, J.-M. Mewes, S. Ehlert and S. Grimme, Phys. Chem. Chem. Phys.
     2020, 22, 8499-8512. DOI: 10.1039/D0CP00502A
   
   for sTDA-xTB:
   * S. Grimme and C. Bannwarth, J. Chem. Phys., 2016, 145, 054103.
     DOI: 10.1063/1.4959605
   
   in the mass-spec context:
   * V. Asgeirsson, C. Bauer and S. Grimme, Chem. Sci., 2017, 8, 4879.
     DOI: 10.1039/c7sc00601b
   * J. Koopman and S. Grimme, ACS Omega 2019, 4, 12, 15120-15133.
     DOI: 10.1021/acsomega.9b02011
   
   for metadynamics refer to:
   * S. Grimme, J. Chem. Theory Comput., 2019, 155, 2847-2862
     DOI: 10.1021/acs.jctc.9b00143
   
   for SPH calculations refer to:
   * S. Spicher and S. Grimme, J. Chem. Theory Comput., 2021, 17, 1701-1714
     DOI: 10.1021/acs.jctc.0c01306
   
   for ONIOM refer to:
   * C. Plett, A. Katbashev, S. Ehlert, S. Grimme, M. Bursch,
     Phys. Chem. Chem. Phys., 2023, 25, 17860-17868. DOI: 10.1039/D3CP02178E
   
   for DIPRO refer to:
   * J. Kohn, N. Gildemeister, S. Grimme, D. Fazzi, A. Hansen,
     J. Chem. Phys., 2023, just accepted.
   
   for PTB refer to:
   * S. Grimme, M. Mueller, A. Hansen, J. Chem. Phys., 2023, 158, 124111.
     DOI: 10.1063/5.0137838
   
   with help from (in alphabetical order)
   P. Atkinson, C. Bannwarth, F. Bohle, G. Brandenburg, E. Caldeweyher
   M. Checinski, S. Dohm, S. Ehlert, S. Ehrlich, I. Gerasimov, C. Hölzer
   A. Katbashev, J. Kohn, J. Koopman, C. Lavigne, S. Lehtola, F. März, M. Müller,
   F. Musil, H. Neugebauer, J. Pisarek, C. Plett, P. Pracht, F. Pultar,
   J. Seibert, P. Shushkov, S. Spicher, M. Stahn, M. Steiner, T. Strunk,
   J. Stückrath, T. Rose, and J. Unsleber
   
 * started run on 2025/12/08 at 00:52:12.555     
   ID    Z sym.   atoms
    1    6 C      1-161
    2    1 H      162-196
    3   15 P      197-205

           -------------------------------------------------
          |                Calculation Setup                |
           -------------------------------------------------

          program call               : xtb "C:\Users\LENOVO GAMING\Documents\GitHub\molecular-conductivity-sim\dataset\2nm-9Pdoped-5percent.xyz" --opt --parallel 4
          coordinate file            : C:\Users\LENOVO GAMING\Documents\GitHub\molecular-conductivity-sim\dataset\2nm-9Pdoped-5percent.xyz
          omp threads                :                     4


           -------------------------------------------------
          |                 G F N 2 - x T B                 |
           -------------------------------------------------

        Reference                      10.1021/acs.jctc.8b01176
      * Hamiltonian:
        H0-scaling (s, p, d)           1.850000    2.230000    2.230000
        zeta-weighting                 0.500000
      * Dispersion:
        s8                             2.700000
        a1                             0.520000
        a2                             5.000000
        s9                             5.000000
      * Repulsion:
        kExp                           1.500000    1.000000
        rExp                           1.000000
      * Coulomb:
        alpha                          2.000000
        third order                    shell-resolved
        anisotropic                    true
        a3                             3.000000
        a5                             4.000000
        cn-shift                       1.200000
        cn-exp                         4.000000
        max-rad                        5.000000


          ...................................................
          :                      SETUP                      :
          :.................................................:
          :  # basis functions                 769          :
          :  # atomic orbitals                 760          :
          :  # shells                          384          :
          :  # electrons                       724          :
          :  max. iterations                   250          :
          :  Hamiltonian                  GFN2-xTB          :
          :  restarted?                      false          :
          :  GBSA solvation                  false          :
          :  PC potential                    false          :
          :  electronic temp.          300.0000000     K    :
          :  accuracy                    1.0000000          :
          :  -> integral cutoff          0.2500000E+02      :
          :  -> integral neglect         0.1000000E-07      :
          :  -> SCF convergence          0.1000000E-05 Eh   :
          :  -> wf. convergence          0.1000000E-03 e    :
          :  Broyden damping             0.4000000          :
          :  net charge                          0          :
          :  unpaired electrons                  0          :
          ...................................................

 iter      E             dE          RMSdq      gap      omega  full diag
   1   -392.9099489 -0.392910E+03  0.502E+00    0.44       0.0  T
   2   -392.7984871  0.111462E+00  0.320E+00    0.13       1.0  T
   3   -387.8704682  0.492802E+01  0.318E+00    0.10       1.0  T
   4   -386.5521196  0.131835E+01  0.281E+00    0.18       1.0  T
   5   -392.8670463 -0.631493E+01  0.684E-01    0.32       1.0  T
   6   -393.0207945 -0.153748E+00  0.597E-01    0.47       1.0  T
   7   -393.0282329 -0.743837E-02  0.468E-01    0.41       1.0  T
   8   -393.0159536  0.122793E-01  0.343E-01    0.33       1.0  T
   9   -393.0091107  0.684289E-02  0.312E-01    0.29       1.0  T
  10   -393.0310688 -0.219581E-01  0.156E-01    0.36       1.0  T
  11   -393.0354378 -0.436900E-02  0.105E-01    0.39       1.0  T
  12   -393.0385395 -0.310171E-02  0.859E-02    0.40       1.0  T
  13   -393.0395223 -0.982782E-03  0.691E-02    0.41       1.0  T
  14   -393.0404148 -0.892557E-03  0.491E-02    0.41       1.0  T
  15   -393.0414160 -0.100121E-02  0.259E-02    0.41       1.0  T
  16   -393.0416743 -0.258255E-03  0.131E-02    0.41       1.0  T
  17   -393.0417349 -0.605672E-04  0.701E-03    0.39       1.0  T
  18   -393.0417432 -0.831572E-05  0.347E-03    0.39       2.0  T
  19   -393.0417440 -0.787548E-06  0.168E-03    0.38       4.2  T
  20   -393.0417441 -0.128797E-06  0.103E-03    0.38       6.8  T
  21   -393.0417445 -0.435806E-06  0.363E-04    0.38      19.2  T
  22   -393.0417446 -0.557343E-07  0.128E-04    0.38      54.7  T

   *** convergence criteria satisfied after 22 iterations ***

         #    Occupation            Energy/Eh            Energy/eV
      -------------------------------------------------------------
         1        2.0000           -0.7168229             -19.5057
       ...           ...                  ...                  ...
       356        2.0000           -0.3703203             -10.0769
       357        2.0000           -0.3639703              -9.9041
       358        2.0000           -0.3621711              -9.8552
       359        2.0000           -0.3494462              -9.5089
       360        2.0000           -0.3389068              -9.2221
       361        1.9995           -0.3354829              -9.1290
       362        1.9990           -0.3347672              -9.1095 (HOMO)
       363        0.0015           -0.3206797              -8.7261 (LUMO)
       364        0.0000           -0.3165465              -8.6137
       365                         -0.3105880              -8.4515
       366                         -0.3072121              -8.3597
       367                         -0.2965929              -8.0707
       ...                                ...                  ...
       760                          1.0553191              28.7167
      -------------------------------------------------------------
                  HL-Gap            0.0140875 Eh            0.3833 eV
             Fermi-level           -0.3275420 Eh           -8.9129 eV

 SCC (total)                   0 d,  0 h,  0 min,  5.079 sec
 SCC setup                      ...        0 min,  0.004 sec (  0.079%)
 Dispersion                     ...        0 min,  0.017 sec (  0.335%)
 classical contributions        ...        0 min,  0.001 sec (  0.020%)
 integral evaluation            ...        0 min,  0.104 sec (  2.048%)
 iterations                     ...        0 min,  4.478 sec ( 88.167%)
 molecular gradient             ...        0 min,  0.457 sec (  8.998%)
 printout                       ...        0 min,  0.018 sec (  0.354%)

         :::::::::::::::::::::::::::::::::::::::::::::::::::::
         ::                     SUMMARY                     ::
         :::::::::::::::::::::::::::::::::::::::::::::::::::::
         :: total energy            -386.286638062568 Eh    ::
         :: gradient norm              0.073245210027 Eh/a0 ::
         :: HOMO-LUMO gap              0.383340973907 eV    ::
         ::.................................................::
         :: SCC energy              -393.055700253705 Eh    ::
         :: -> isotropic ES            0.007188781571 Eh    ::
         :: -> anisotropic ES          0.010429731385 Eh    ::
         :: -> anisotropic XC          0.140247596393 Eh    ::
         :: -> dispersion             -0.515817023520 Eh    ::
         :: repulsion energy           6.769062191137 Eh    ::
         :: add. restraining           0.000000000000 Eh    ::
         :: total charge               0.000000000021 e     ::
         :::::::::::::::::::::::::::::::::::::::::::::::::::::

      ----------------------------------------------------------- 
     |                   =====================                   |
     |                        A N C O P T                        |
     |                   =====================                   |
     |               Approximate Normal Coordinate               |
     |                Rational Function Optimizer                |
      ----------------------------------------------------------- 
      ----------------------------------------------------------- 
     |                   =====================                   |
     |                        A N C O P T                        |
     |                   =====================                   |
     |               Approximate Normal Coordinate               |
     |                Rational Function Optimizer                |
      ----------------------------------------------------------- 

          ...................................................
          :                      SETUP                      :
          :.................................................:
          :   optimization level            normal          :
          :   max. optcycles                   615          :
          :   ANC micro-cycles                  20          :
          :   degrees of freedom               609          :
          :.................................................:
          :   RF solver                   davidson          :
          :   write xtbopt.log                true          :
          :   linear?                        false          :
          :   energy convergence         0.5000000E-05 Eh   :
          :   grad. convergence          0.1000000E-02 Eh/α :
          :   maxmium RF displ.          1.0000000          :
          :   Hlow (freq-cutoff)         0.1000000E-01      :
          :   Hmax (freq-cutoff)         5.0000000          :
          :   S6 in model hess.         20.0000000          :
          ...................................................

generating ANC from exact Hessian ...
Using Lindh-Hessian (1995)
 Shifting diagonal of input Hessian by   9.942909978706720E-003
 Lowest  eigenvalues of input Hessian
    0.000000    0.000000    0.000000    0.000000    0.000000    0.000000
    0.010000    0.010069    0.010177    0.010189    0.010202    0.010617
    0.010651    0.010736    0.010784    0.010912    0.011553    0.011622
 Highest eigenvalues
    2.064285    2.070901    2.076254    2.087501    2.131739    2.133429
 

........................................................................
.............................. CYCLE    1 ..............................
........................................................................

 iter      E             dE          RMSdq      gap      omega  full diag
   1   -393.0417446 -0.393042E+03  0.690E-05    0.38       0.0  T
   2   -393.0417446  0.116864E-08  0.876E-05    0.38      79.7  T
   3   -393.0417446 -0.129711E-08  0.451E-05    0.38     154.8  T
     SCC iter.                  ...        0 min,  0.636 sec
     gradient                   ...        0 min,  0.470 sec
 * total energy  :  -386.2866381 Eh     change       -0.3899800E-08 Eh
   gradient norm :     0.0732454 Eh/α   predicted     0.0000000E+00 (-100.00%)
   displ. norm   :     0.5844407 α      lambda       -0.2533164E-01
   maximum displ.:     0.1451029 α      in ANC's #46, #63, #45, ...

........................................................................
.............................. CYCLE    2 ..............................
........................................................................

 iter      E             dE          RMSdq      gap      omega  full diag
   1   -393.2066082 -0.393207E+03  0.163E-01    0.33       0.0  T
   2   -393.2064218  0.186380E-03  0.926E-02    0.36       1.0  T
   3   -393.2008939  0.552786E-02  0.149E-01    0.30       1.0  T
   4   -393.2062078 -0.531388E-02  0.459E-02    0.36       1.0  T
   5   -393.2066478 -0.439963E-03  0.257E-02    0.34       1.0  T
   6   -393.2067287 -0.809205E-04  0.168E-02    0.34       1.0  T
   7   -393.2067723 -0.436189E-04  0.106E-02    0.35       1.0  T
   8   -393.2068027 -0.303968E-04  0.243E-03    0.35       2.9  T
   9   -393.2068032 -0.543216E-06  0.139E-03    0.35       5.0  T
  10   -393.2068036 -0.321150E-06  0.787E-04    0.35       8.9  T
  11   -393.2068037 -0.144007E-06  0.278E-04    0.35      25.1  T
     SCC iter.                  ...        0 min,  2.230 sec
     gradient                   ...        0 min,  0.469 sec
 * total energy  :  -386.3061608 Eh     change       -0.1952271E-01 Eh
   gradient norm :     0.0390298 Eh/α   predicted    -0.1699326E-01 ( -12.96%)
   displ. norm   :     0.6494345 α      lambda       -0.1546179E-01
   maximum displ.:     0.2040231 α      in ANC's #46, #45, #51, ...

........................................................................
.............................. CYCLE    3 ..............................
........................................................................

 iter      E             dE          RMSdq      gap      omega  full diag
   1   -393.3703532 -0.393370E+03  0.164E-01    0.26       0.0  T
   2   -393.3679114  0.244180E-02  0.116E-01    0.33       1.0  T
   3   -393.3523689  0.155424E-01  0.271E-01    0.20       1.0  T
   4   -393.3699530 -0.175841E-01  0.616E-02    0.31       1.0  T
   5   -393.3706603 -0.707267E-03  0.352E-02    0.30       1.0  T
   6   -393.3706811 -0.208730E-04  0.275E-02    0.30       1.0  T
   7   -393.3707028 -0.216889E-04  0.237E-02    0.30       1.0  T
   8   -393.3708101 -0.107324E-03  0.114E-02    0.29       1.0  T
   9   -393.3708315 -0.213469E-04  0.564E-03    0.29       1.2  T
  10   -393.3708355 -0.399304E-05  0.369E-03    0.29       1.9  T
  11   -393.3708371 -0.157933E-05  0.134E-03    0.29       5.2  T
  12   -393.3708372 -0.154789E-06  0.343E-04    0.29      20.3  T
  13   -393.3708372 -0.288670E-07  0.197E-04    0.29      35.5  T
     SCC iter.                  ...        0 min,  2.627 sec
     gradient                   ...        0 min,  0.464 sec
 * total energy  :  -386.3174239 Eh     change       -0.1126318E-01 Eh
   gradient norm :     0.0187465 Eh/α   predicted    -0.1099152E-01 (  -2.41%)
   displ. norm   :     0.5645964 α      lambda       -0.6816677E-02
   maximum displ.:     0.1843691 α      in ANC's #46, #45, #51, ...

........................................................................
.............................. CYCLE    4 ..............................
........................................................................

 iter      E             dE          RMSdq      gap      omega  full diag
   1   -393.4704478 -0.393470E+03  0.163E-01    0.20       0.0  T
   2   -393.4631731  0.727471E-02  0.158E-01    0.30       1.0  T
   3   -393.4476014  0.155717E-01  0.309E-01    0.16       1.0  T
   4   -393.4703484 -0.227470E-01  0.778E-02    0.25       1.0  T
   5   -393.4708388 -0.490340E-03  0.556E-02    0.24       1.0  T
   6   -393.4709421 -0.103293E-03  0.432E-02    0.24       1.0  T
   7   -393.4710384 -0.963506E-04  0.347E-02    0.24       1.0  T
   8   -393.4712451 -0.206620E-03  0.173E-02    0.24       1.0  T
   9   -393.4712812 -0.361113E-04  0.742E-03    0.23       1.0  T
  10   -393.4712811  0.689731E-07  0.666E-03    0.23       1.0  T
  11   -393.4712868 -0.566291E-05  0.265E-03    0.23       2.6  T
  12   -393.4712874 -0.644733E-06  0.588E-04    0.23      11.9  T
  13   -393.4712875 -0.808973E-07  0.321E-04    0.23      21.7  T
     SCC iter.                  ...        0 min,  2.680 sec
     gradient                   ...        0 min,  0.484 sec
 * total energy  :  -386.3222913 Eh     change       -0.4867340E-02 Eh
   gradient norm :     0.0138574 Eh/α   predicted    -0.4494828E-02 (  -7.65%)
   displ. norm   :     0.4380430 α      lambda       -0.2765052E-02
   maximum displ.:     0.1414571 α      in ANC's #46, #45, #20, ...

........................................................................
.............................. CYCLE    5 ..............................
........................................................................

 iter      E             dE          RMSdq      gap      omega  full diag
   1   -393.5281303 -0.393528E+03  0.159E-01    0.16       0.0  T
   2   -393.5135622  0.145681E-01  0.212E-01    0.28       1.0  T
   3   -393.5071046  0.645757E-02  0.295E-01    0.15       1.0  T
   4   -393.5286890 -0.215844E-01  0.752E-02    0.19       1.0  T
   5   -393.5288400 -0.150993E-03  0.642E-02    0.19       1.0  T
   6   -393.5289973 -0.157347E-03  0.488E-02    0.19       1.0  T
   7   -393.5291880 -0.190644E-03  0.357E-02    0.19       1.0  T
   8   -393.5294615 -0.273492E-03  0.799E-03    0.18       1.0  T
   9   -393.5294616 -0.179383E-06  0.994E-03    0.18       1.0  T
  10   -393.5294735 -0.118233E-04  0.364E-03    0.18       1.9  T
  11   -393.5294745 -0.105763E-05  0.126E-03    0.18       5.6  T
  12   -393.5294748 -0.244716E-06  0.512E-04    0.18      13.6  T
  13   -393.5294747  0.505241E-07  0.693E-04    0.18      10.1  T
     SCC iter.                  ...        0 min,  2.631 sec
     gradient                   ...        0 min,  0.462 sec
 * total energy  :  -386.3241689 Eh     change       -0.1877641E-02 Eh
   gradient norm :     0.0098729 Eh/α   predicted    -0.1647817E-02 ( -12.24%)
   displ. norm   :     0.3053404 α      lambda       -0.9986587E-03
   maximum displ.:     0.1297231 α      in ANC's #20, #15, #19, ...

........................................................................
.............................. CYCLE    6 ..............................
........................................................................

 iter      E             dE          RMSdq      gap      omega  full diag
   1   -393.5468934 -0.393547E+03  0.135E-01    0.13       0.0  T
   2   -393.5301732  0.167203E-01  0.226E-01    0.26       1.0  T
   3   -393.5293414  0.831764E-03  0.266E-01    0.15       1.0  T
   4   -393.5475044 -0.181630E-01  0.551E-02    0.14       1.0  T
   5   -393.5476833 -0.178928E-03  0.553E-02    0.16       1.0  T
   6   -393.5477531 -0.698155E-04  0.434E-02    0.16       1.0  T
   7   -393.5479675 -0.214354E-03  0.278E-02    0.15       1.0  T
   8   -393.5481239 -0.156383E-03  0.128E-02    0.15       1.0  T
   9   -393.5481388 -0.149560E-04  0.105E-02    0.15       1.0  T
  10   -393.5481487 -0.990115E-05  0.638E-03    0.15       1.1  T
  11   -393.5481539 -0.515590E-05  0.207E-03    0.15       3.4  T
  12   -393.5481544 -0.497694E-06  0.587E-04    0.15      11.9  T
  13   -393.5481544 -0.229119E-07  0.357E-04    0.15      19.6  T
     SCC iter.                  ...        0 min,  2.663 sec
     gradient                   ...        0 min,  0.465 sec
 * total energy  :  -386.3248697 Eh     change       -0.7007747E-03 Eh
   gradient norm :     0.0061578 Eh/α   predicted    -0.5458837E-03 ( -22.10%)
   displ. norm   :     0.2796695 α      lambda       -0.5802735E-03
   maximum displ.:     0.1464805 α      in ANC's #20, #15, #26, ...

........................................................................
.............................. CYCLE    7 ..............................
........................................................................

 iter      E             dE          RMSdq      gap      omega  full diag
   1   -393.5476729 -0.393548E+03  0.134E-01    0.10       0.0  T
   2   -393.5260585  0.216144E-01  0.259E-01    0.25       1.0  T
   3   -393.5287738 -0.271530E-02  0.273E-01    0.13       1.0  T
   4   -393.5483173 -0.195434E-01  0.601E-02    0.11       1.0  T
   5   -393.5486070 -0.289761E-03  0.615E-02    0.14       1.0  T
   6   -393.5487041 -0.970952E-04  0.489E-02    0.14       1.0  T
   7   -393.5490084 -0.304286E-03  0.286E-02    0.13       1.0  T
   8   -393.5491565 -0.148144E-03  0.144E-02    0.12       1.0  T
   9   -393.5491834 -0.268799E-04  0.961E-03    0.13       1.0  T
  10   -393.5491895 -0.608927E-05  0.764E-03    0.13       1.0  T
  11   -393.5491968 -0.724419E-05  0.301E-03    0.13       2.3  T
  12   -393.5491978 -0.108012E-05  0.687E-04    0.12      10.2  T
  13   -393.5491979 -0.378486E-07  0.379E-04    0.12      18.4  T
  14   -393.5491979 -0.334596E-07  0.286E-04    0.12      24.5  T
     SCC iter.                  ...        0 min,  2.861 sec
     gradient                   ...        0 min,  0.456 sec
 * total energy  :  -386.3252859 Eh     change       -0.4162329E-03 Eh
   gradient norm :     0.0048212 Eh/α   predicted    -0.3128305E-03 ( -24.84%)
   displ. norm   :     0.2691701 α      lambda       -0.3850717E-03
   maximum displ.:     0.1436853 α      in ANC's #20, #15, #26, ...

........................................................................
.............................. CYCLE    8 ..............................
........................................................................

 iter      E             dE          RMSdq      gap      omega  full diag
   1   -393.5392090 -0.393539E+03  0.123E-01    0.09       0.0  T
   2   -393.5159939  0.232151E-01  0.274E-01    0.23       1.0  T
   3   -393.5219529 -0.595894E-02  0.259E-01    0.12       1.0  T
   4   -393.5396254 -0.176726E-01  0.664E-02    0.09       1.0  T
   5   -393.5400526 -0.427131E-03  0.596E-02    0.12       1.0  T
   6   -393.5401378 -0.852594E-04  0.490E-02    0.12       1.0  T
   7   -393.5404554 -0.317598E-03  0.279E-02    0.11       1.0  T
   8   -393.5405847 -0.129247E-03  0.132E-02    0.11       1.0  T
   9   -393.5406145 -0.297981E-04  0.779E-03    0.11       1.0  T
  10   -393.5406195 -0.503414E-05  0.647E-03    0.11       1.1  T
  11   -393.5406245 -0.502136E-05  0.279E-03    0.11       2.5  T
  12   -393.5406255 -0.960736E-06  0.727E-04    0.11       9.6  T
  13   -393.5406255 -0.604272E-07  0.220E-04    0.11      31.8  T
     SCC iter.                  ...        0 min,  2.699 sec
     gradient                   ...        0 min,  0.469 sec
 * total energy  :  -386.3255522 Eh     change       -0.2662296E-03 Eh
   gradient norm :     0.0046570 Eh/α   predicted    -0.2064867E-03 ( -22.44%)
   displ. norm   :     0.2023041 α      lambda       -0.1992480E-03
   maximum displ.:     0.0963129 α      in ANC's #20, #15, #26, ...

........................................................................
.............................. CYCLE    9 ..............................
........................................................................

 iter      E             dE          RMSdq      gap      omega  full diag
   1   -393.5322558 -0.393532E+03  0.701E-02    0.09       0.0  T
   2   -393.5196235  0.126322E-01  0.209E-01    0.17       1.0  T
   3   -393.5259548 -0.633124E-02  0.155E-01    0.10       1.0  T
   4   -393.5321961 -0.624134E-02  0.519E-02    0.08       1.0  T
   5   -393.5325719 -0.375751E-03  0.288E-02    0.10       1.0  T
   6   -393.5325572  0.146717E-04  0.276E-02    0.11       1.0  T
   7   -393.5326517 -0.944699E-04  0.171E-02    0.10       1.0  T
   8   -393.5327056 -0.538881E-04  0.623E-03    0.10       1.1  T
   9   -393.5327122 -0.659335E-05  0.330E-03    0.10       2.1  T
  10   -393.5327142 -0.200742E-05  0.196E-03    0.10       3.6  T
  11   -393.5327146 -0.446098E-06  0.988E-04    0.10       7.1  T
  12   -393.5327147 -0.992922E-07  0.404E-04    0.10      17.3  T
     SCC iter.                  ...        0 min,  2.431 sec
     gradient                   ...        0 min,  0.453 sec
 * total energy  :  -386.3256895 Eh     change       -0.1373543E-03 Eh
   gradient norm :     0.0033187 Eh/α   predicted    -0.1037035E-03 ( -24.50%)
   displ. norm   :     0.1504988 α      lambda       -0.1050272E-03
   maximum displ.:     0.0530105 α      in ANC's #20, #15, #26, ...

........................................................................
.............................. CYCLE   10 ..............................
........................................................................

 iter      E             dE          RMSdq      gap      omega  full diag
   1   -393.5295048 -0.393530E+03  0.324E-02    0.09       0.0  T
   2   -393.5263366  0.316821E-02  0.108E-01    0.12       1.0  T
   3   -393.5284490 -0.211246E-02  0.641E-02    0.09       1.0  T
   4   -393.5294216 -0.972594E-03  0.262E-02    0.09       1.0  T
   5   -393.5295392 -0.117576E-03  0.133E-02    0.10       1.0  T
   6   -393.5295534 -0.141524E-04  0.105E-02    0.10       1.0  T
   7   -393.5295715 -0.181716E-04  0.527E-03    0.10       1.3  T
   8   -393.5295767 -0.511922E-05  0.204E-03    0.10       3.4  T
   9   -393.5295771 -0.478211E-06  0.110E-03    0.10       6.4  T
  10   -393.5295774 -0.282187E-06  0.300E-04    0.10      23.3  T
  11   -393.5295774 -0.556810E-08  0.165E-04    0.10      42.2  T
     SCC iter.                  ...        0 min,  2.228 sec
     gradient                   ...        0 min,  0.484 sec
 * total energy  :  -386.3257632 Eh     change       -0.7370234E-04 Eh
   gradient norm :     0.0019768 Eh/α   predicted    -0.5371770E-04 ( -27.12%)
   displ. norm   :     0.2079748 α      lambda       -0.6801401E-04
   maximum displ.:     0.0622588 α      in ANC's #4, #8, #12, ...

........................................................................
.............................. CYCLE   11 ..............................
........................................................................

 iter      E             dE          RMSdq      gap      omega  full diag
   1   -393.5304906 -0.393530E+03  0.339E-02    0.09       0.0  T
   2   -393.5283218  0.216880E-02  0.909E-02    0.11       1.0  T
   3   -393.5297073 -0.138556E-02  0.560E-02    0.09       1.0  T
   4   -393.5299322 -0.224867E-03  0.411E-02    0.09       1.0  T
   5   -393.5304756 -0.543452E-03  0.152E-02    0.10       1.0  T
   6   -393.5305177 -0.420378E-04  0.866E-03    0.10       1.0  T
   7   -393.5305289 -0.111980E-04  0.461E-03    0.10       1.5  T
   8   -393.5305332 -0.435614E-05  0.223E-03    0.10       3.1  T
   9   -393.5305338 -0.576468E-06  0.115E-03    0.10       6.1  T
  10   -393.5305341 -0.275039E-06  0.446E-04    0.10      15.6  T
  11   -393.5305341 -0.398523E-07  0.147E-04    0.10      47.4  T
     SCC iter.                  ...        0 min,  2.244 sec
     gradient                   ...        0 min,  0.467 sec
 * total energy  :  -386.3258242 Eh     change       -0.6098900E-04 Eh
   gradient norm :     0.0026685 Eh/α   predicted    -0.3466861E-04 ( -43.16%)
   displ. norm   :     0.0896126 α      lambda       -0.4131535E-04
   maximum displ.:     0.0334929 α      in ANC's #4, #8, #3, ...

........................................................................
.............................. CYCLE   12 ..............................
........................................................................

 iter      E             dE          RMSdq      gap      omega  full diag
   1   -393.5330504 -0.393533E+03  0.126E-02    0.10       0.0  T
   2   -393.5330316  0.188528E-04  0.105E-02    0.09       1.0  T
   3   -393.5327550  0.276564E-03  0.320E-02    0.10       1.0  T
   4   -393.5329571 -0.202116E-03  0.201E-02    0.10       1.0  T
   5   -393.5330475 -0.903710E-04  0.391E-03    0.10       1.8  T
   6   -393.5330514 -0.384380E-05  0.182E-03    0.10       3.8  T
   7   -393.5330519 -0.510218E-06  0.106E-03    0.10       6.6  T
   8   -393.5330522 -0.292960E-06  0.496E-04    0.10      14.1  T
   9   -393.5330523 -0.986534E-07  0.237E-04    0.10      29.4  T
     SCC iter.                  ...        0 min,  1.789 sec
     gradient                   ...        0 min,  0.454 sec
 * total energy  :  -386.3258605 Eh     change       -0.3628904E-04 Eh
   gradient norm :     0.0023882 Eh/α   predicted    -0.2083497E-04 ( -42.59%)
   displ. norm   :     0.2756001 α      lambda       -0.1116597E-03
   maximum displ.:     0.1069330 α      in ANC's #4, #8, #3, ...

........................................................................
.............................. CYCLE   13 ..............................
........................................................................

 iter      E             dE          RMSdq      gap      omega  full diag
   1   -393.5382376 -0.393538E+03  0.377E-02    0.10       0.0  T
   2   -393.5381459  0.916812E-04  0.275E-02    0.09       1.0  T
   3   -393.5374998  0.646099E-03  0.524E-02    0.11       1.0  T
   4   -393.5364593  0.104053E-02  0.808E-02    0.11       1.0  T
   5   -393.5382237 -0.176438E-02  0.102E-02    0.10       1.0  T
   6   -393.5382436 -0.199109E-04  0.599E-03    0.10       1.2  T
   7   -393.5382506 -0.702471E-05  0.315E-03    0.10       2.2  T
   8   -393.5382524 -0.183496E-05  0.198E-03    0.10       3.5  T
   9   -393.5382534 -0.971362E-06  0.123E-03    0.10       5.7  T
  10   -393.5382536 -0.212266E-06  0.621E-04    0.10      11.2  T
  11   -393.5382537 -0.104108E-06  0.187E-04    0.10      37.4  T
     SCC iter.                  ...        0 min,  2.228 sec
     gradient                   ...        0 min,  0.480 sec
 * total energy  :  -386.3259370 Eh     change       -0.7648522E-04 Eh
   gradient norm :     0.0021752 Eh/α   predicted    -0.6007766E-04 ( -21.45%)
   displ. norm   :     0.2074659 α      lambda       -0.5288386E-04
   maximum displ.:     0.0871551 α      in ANC's #4, #8, #3, ...

........................................................................
.............................. CYCLE   14 ..............................
........................................................................

 iter      E             dE          RMSdq      gap      omega  full diag
   1   -393.5395479 -0.393540E+03  0.262E-02    0.10       0.0  T
   2   -393.5389458  0.602080E-03  0.482E-02    0.10       1.0  T
   3   -393.5388282  0.117650E-03  0.533E-02    0.09       1.0  T
   4   -393.5393881 -0.559912E-03  0.231E-02    0.10       1.0  T
   5   -393.5395490 -0.160956E-03  0.614E-03    0.10       1.1  T
   6   -393.5395575 -0.841593E-05  0.394E-03    0.10       1.8  T
   7   -393.5395607 -0.324664E-05  0.199E-03    0.10       3.5  T
   8   -393.5395608 -0.532224E-07  0.174E-03    0.10       4.0  T
   9   -393.5395615 -0.782600E-06  0.987E-04    0.10       7.1  T
  10   -393.5395616 -0.994366E-07  0.590E-04    0.10      11.8  T
     SCC iter.                  ...        0 min,  2.040 sec
     gradient                   ...        0 min,  0.460 sec
 * total energy  :  -386.3259774 Eh     change       -0.4044598E-04 Eh
   gradient norm :     0.0023731 Eh/α   predicted    -0.2758452E-04 ( -31.80%)
   displ. norm   :     0.2267544 α      lambda       -0.6226036E-04
   maximum displ.:     0.1019201 α      in ANC's #4, #8, #3, ...

........................................................................
.............................. CYCLE   15 ..............................
........................................................................

 iter      E             dE          RMSdq      gap      omega  full diag
   1   -393.5389466 -0.393539E+03  0.276E-02    0.10       0.0  T
   2   -393.5380491  0.897512E-03  0.586E-02    0.11       1.0  T
   3   -393.5382762 -0.227068E-03  0.520E-02    0.10       1.0  T
   4   -393.5387471 -0.470936E-03  0.227E-02    0.10       1.0  T
   5   -393.5389538 -0.206722E-03  0.591E-03    0.10       1.2  T
   6   -393.5389612 -0.740804E-05  0.412E-03    0.10       1.7  T
   7   -393.5389644 -0.312285E-05  0.237E-03    0.10       2.9  T
   8   -393.5389653 -0.904485E-06  0.177E-03    0.10       3.9  T
   9   -393.5389655 -0.239088E-06  0.132E-03    0.10       5.3  T
  10   -393.5389660 -0.446845E-06  0.494E-04    0.10      14.1  T
  11   -393.5389660 -0.411522E-07  0.118E-04    0.10      59.0  T
     SCC iter.                  ...        0 min,  2.197 sec
     gradient                   ...        0 min,  0.487 sec
 * total energy  :  -386.3260266 Eh     change       -0.4914133E-04 Eh
   gradient norm :     0.0022107 Eh/α   predicted    -0.3273376E-04 ( -33.39%)
   displ. norm   :     0.2544870 α      lambda       -0.6784791E-04
   maximum displ.:     0.1215418 α      in ANC's #4, #8, #3, ...

........................................................................
.............................. CYCLE   16 ..............................
........................................................................

 iter      E             dE          RMSdq      gap      omega  full diag
   1   -393.5363070 -0.393536E+03  0.343E-02    0.10       0.0  T
   2   -393.5332997  0.300730E-02  0.105E-01    0.12       1.0  T
   3   -393.5354418 -0.214205E-02  0.599E-02    0.10       1.0  T
   4   -393.5359308 -0.488955E-03  0.336E-02    0.09       1.0  T
   5   -393.5363513 -0.420560E-03  0.896E-03    0.10       1.0  T
   6   -393.5363604 -0.908953E-05  0.600E-03    0.10       1.2  T
   7   -393.5363632 -0.281658E-05  0.470E-03    0.10       1.5  T
   8   -393.5363655 -0.226508E-05  0.360E-03    0.10       1.9  T
   9   -393.5363672 -0.172562E-05  0.200E-03    0.10       3.5  T
  10   -393.5363681 -0.911824E-06  0.625E-04    0.10      11.2  T
  11   -393.5363682 -0.801338E-07  0.154E-04    0.10      45.3  T
     SCC iter.                  ...        0 min,  2.233 sec
     gradient                   ...        0 min,  0.464 sec
 * total energy  :  -386.3260767 Eh     change       -0.5016501E-04 Eh
   gradient norm :     0.0019916 Eh/α   predicted    -0.3612299E-04 ( -27.99%)
   displ. norm   :     0.3121580 α      lambda       -0.4658354E-04
   maximum displ.:     0.1596273 α      in ANC's #4, #8, #3, ...

........................................................................
.............................. CYCLE   17 ..............................
........................................................................

 iter      E             dE          RMSdq      gap      omega  full diag
   1   -393.5325886 -0.393533E+03  0.409E-02    0.10       0.0  T
   2   -393.5283605  0.422804E-02  0.125E-01    0.12       1.0  T
   3   -393.5312999 -0.293938E-02  0.727E-02    0.10       1.0  T
   4   -393.5320603 -0.760369E-03  0.418E-02    0.09       1.0  T
   5   -393.5326384 -0.578143E-03  0.131E-02    0.10       1.0  T
   6   -393.5326618 -0.233907E-04  0.913E-03    0.10       1.0  T
   7   -393.5326688 -0.699538E-05  0.663E-03    0.10       1.1  T
   8   -393.5326729 -0.405602E-05  0.492E-03    0.10       1.4  T
   9   -393.5326767 -0.381819E-05  0.225E-03    0.10       3.1  T
  10   -393.5326779 -0.119677E-05  0.629E-04    0.10      11.1  T
  11   -393.5326779 -0.732025E-07  0.205E-04    0.10      34.0  T
  12   -393.5326780 -0.664949E-08  0.931E-05    0.10      75.0  T
     SCC iter.                  ...        0 min,  2.420 sec
     gradient                   ...        0 min,  0.476 sec
 * total energy  :  -386.3261215 Eh     change       -0.4478052E-04 Eh
   gradient norm :     0.0020130 Eh/α   predicted    -0.2430504E-04 ( -45.72%)
   displ. norm   :     0.1101288 α      lambda       -0.2808929E-04
   maximum displ.:     0.0618539 α      in ANC's #4, #3, #8, ...

........................................................................
.............................. CYCLE   18 ..............................
........................................................................

 iter      E             dE          RMSdq      gap      omega  full diag
   1   -393.5323803 -0.393532E+03  0.131E-02    0.10       0.0  T
   2   -393.5319333  0.447040E-03  0.414E-02    0.10       1.0  T
   3   -393.5322638 -0.330565E-03  0.220E-02    0.10       1.0  T
   4   -393.5323141 -0.502240E-04  0.152E-02    0.10       1.0  T
   5   -393.5323826 -0.685479E-04  0.454E-03    0.10       1.5  T
   6   -393.5323875 -0.486503E-05  0.202E-03    0.10       3.5  T
   7   -393.5323882 -0.734528E-06  0.809E-04    0.10       8.6  T
   8   -393.5323883 -0.113266E-06  0.394E-04    0.10      17.7  T
     SCC iter.                  ...        0 min,  1.599 sec
     gradient                   ...        0 min,  0.469 sec
 * total energy  :  -386.3261466 Eh     change       -0.2508107E-04 Eh
   gradient norm :     0.0016008 Eh/α   predicted    -0.1421575E-04 ( -43.32%)
   displ. norm   :     0.3302100 α      lambda       -0.6608512E-04
   maximum displ.:     0.1823368 α      in ANC's #4, #11, #3, ...

........................................................................
.............................. CYCLE   19 ..............................
........................................................................

 iter      E             dE          RMSdq      gap      omega  full diag
   1   -393.5333234 -0.393533E+03  0.356E-02    0.10       0.0  T
   2   -393.5322881  0.103527E-02  0.658E-02    0.11       1.0  T
   3   -393.5320692  0.218917E-03  0.706E-02    0.09       1.0  T
   4   -393.5325454 -0.476201E-03  0.499E-02    0.09       1.0  T
   5   -393.5333089 -0.763470E-03  0.119E-02    0.10       1.0  T
   6   -393.5333382 -0.293013E-04  0.631E-03    0.10       1.1  T
   7   -393.5333411 -0.287214E-05  0.439E-03    0.10       1.6  T
   8   -393.5333449 -0.377463E-05  0.231E-03    0.10       3.0  T
   9   -393.5333454 -0.550124E-06  0.131E-03    0.10       5.3  T
  10   -393.5333457 -0.329943E-06  0.409E-04    0.10      17.1  T
  11   -393.5333458 -0.281710E-07  0.138E-04    0.10      50.5  T
     SCC iter.                  ...        0 min,  2.261 sec
     gradient                   ...        0 min,  0.475 sec
 * total energy  :  -386.3262074 Eh     change       -0.6075274E-04 Eh
   gradient norm :     0.0024068 Eh/α   predicted    -0.3464323E-04 ( -42.98%)
   displ. norm   :     0.1607188 α      lambda       -0.2926451E-04
   maximum displ.:     0.0939143 α      in ANC's #4, #3, #8, ...

........................................................................
.............................. CYCLE   20 ..............................
........................................................................

 iter      E             dE          RMSdq      gap      omega  full diag
   1   -393.5331833 -0.393533E+03  0.168E-02    0.10       0.0  T
   2   -393.5327120  0.471292E-03  0.419E-02    0.10       1.0  T
   3   -393.5329567 -0.244645E-03  0.308E-02    0.09       1.0  T
   4   -393.5331429 -0.186234E-03  0.122E-02    0.10       1.0  T
   5   -393.5331887 -0.458193E-04  0.290E-03    0.10       2.4  T
   6   -393.5331901 -0.130973E-05  0.202E-03    0.10       3.5  T
   7   -393.5331907 -0.614338E-06  0.996E-04    0.10       7.0  T
   8   -393.5331909 -0.209430E-06  0.579E-04    0.10      12.1  T
     SCC iter.                  ...        0 min,  1.632 sec
     gradient                   ...        0 min,  0.483 sec
 * total energy  :  -386.3262298 Eh     change       -0.2241567E-04 Eh
   gradient norm :     0.0021173 Eh/α   predicted    -0.1501070E-04 ( -33.03%)
   displ. norm   :     0.1416469 α      lambda       -0.3194992E-04
   maximum displ.:     0.0867600 α      in ANC's #4, #5, #3, ...
 * RMSD in coord.:     0.2571524 α      energy gain  -0.3959171E-01 Eh

generating ANC from exact Hessian ...
Using Lindh-Hessian (1995)
 Shifting diagonal of input Hessian by   9.935016120764540E-003
 Lowest  eigenvalues of input Hessian
    0.000000    0.000000    0.000000    0.000000    0.000000    0.000000
    0.010000    0.010075    0.010183    0.010215    0.010225    0.010704
    0.010724    0.010809    0.010856    0.011011    0.011753    0.011810
 Highest eigenvalues
    2.150906    2.161612    2.161661    2.176730    2.221498    2.224369
 

........................................................................
.............................. CYCLE   21 ..............................
........................................................................

 iter      E             dE          RMSdq      gap      omega  full diag
   1   -393.5340768 -0.393534E+03  0.136E-02    0.10       0.0  T
   2   -393.5340563  0.204592E-04  0.120E-02    0.10       1.0  T
   3   -393.5337160  0.340271E-03  0.376E-02    0.10       1.0  T
   4   -393.5339782 -0.262140E-03  0.185E-02    0.10       1.0  T
   5   -393.5340761 -0.979601E-04  0.250E-03    0.10       2.8  T
   6   -393.5340772 -0.106242E-05  0.149E-03    0.10       4.7  T
   7   -393.5340777 -0.513133E-06  0.928E-04    0.10       7.5  T
   8   -393.5340779 -0.212610E-06  0.415E-04    0.10      16.8  T
     SCC iter.                  ...        0 min,  1.582 sec
     gradient                   ...        0 min,  0.460 sec
 * total energy  :  -386.3262568 Eh     change       -0.2707136E-04 Eh
   gradient norm :     0.0015223 Eh/α   predicted     0.0000000E+00 (-100.00%)
   displ. norm   :     0.0417727 α      lambda       -0.1077924E-04
   maximum displ.:     0.0284066 α      in ANC's #4, #18, #20, ...

........................................................................
.............................. CYCLE   22 ..............................
........................................................................

 iter      E             dE          RMSdq      gap      omega  full diag
   1   -393.5343162 -0.393534E+03  0.635E-03    0.10       0.0  T
   2   -393.5342851  0.310417E-04  0.116E-02    0.10       1.0  T
   3   -393.5342719  0.132562E-04  0.132E-02    0.10       1.0  T
   4   -393.5342886 -0.167064E-04  0.938E-03    0.10       1.0  T
   5   -393.5343157 -0.271733E-04  0.205E-03    0.10       3.4  T
   6   -393.5343166 -0.846726E-06  0.108E-03    0.10       6.5  T
   7   -393.5343168 -0.253353E-06  0.493E-04    0.10      14.2  T
   8   -393.5343169 -0.430301E-07  0.257E-04    0.10      27.2  T
     SCC iter.                  ...        0 min,  1.582 sec
     gradient                   ...        0 min,  0.470 sec
 * total energy  :  -386.3262716 Eh     change       -0.1479652E-04 Eh
   gradient norm :     0.0007597 Eh/α   predicted    -0.6200608E-05 ( -58.09%)
   displ. norm   :     0.1060913 α      lambda       -0.2172234E-04
   maximum displ.:     0.0691434 α      in ANC's #4, #18, #10, ...

........................................................................
.............................. CYCLE   23 ..............................
........................................................................

 iter      E             dE          RMSdq      gap      omega  full diag
   1   -393.5345020 -0.393535E+03  0.142E-02    0.10       0.0  T
   2   -393.5342895  0.212427E-03  0.295E-02    0.09       1.0  T
   3   -393.5342832  0.637422E-05  0.294E-02    0.10       1.0  T
   4   -393.5343799 -0.967265E-04  0.201E-02    0.10       1.0  T
   5   -393.5344986 -0.118700E-03  0.504E-03    0.10       1.4  T
   6   -393.5345054 -0.681137E-05  0.159E-03    0.10       4.4  T
   7   -393.5345059 -0.519355E-06  0.824E-04    0.10       8.5  T
   8   -393.5345060 -0.452839E-07  0.648E-04    0.10      10.8  T
     SCC iter.                  ...        0 min,  1.610 sec
     gradient                   ...        0 min,  0.478 sec
 * total energy  :  -386.3262944 Eh     change       -0.2271620E-04 Eh
   gradient norm :     0.0012162 Eh/α   predicted    -0.1091627E-04 ( -51.94%)
   displ. norm   :     0.1046040 α      lambda       -0.1434240E-04
   maximum displ.:     0.0712088 α      in ANC's #4, #10, #18, ...

........................................................................
.............................. CYCLE   24 ..............................
........................................................................

 iter      E             dE          RMSdq      gap      omega  full diag
   1   -393.5347128 -0.393535E+03  0.137E-02    0.10       0.0  T
   2   -393.5342666  0.446261E-03  0.413E-02    0.09       1.0  T
   3   -393.5345317 -0.265192E-03  0.271E-02    0.10       1.0  T
   4   -393.5346447 -0.112945E-03  0.156E-02    0.10       1.0  T
   5   -393.5347155 -0.708120E-04  0.379E-03    0.10       1.8  T
   6   -393.5347192 -0.370548E-05  0.147E-03    0.10       4.7  T
   7   -393.5347196 -0.362437E-06  0.103E-03    0.10       6.8  T
   8   -393.5347198 -0.195558E-06  0.469E-04    0.10      14.9  T
   9   -393.5347198 -0.398786E-07  0.234E-04    0.10      29.8  T
     SCC iter.                  ...        0 min,  1.797 sec
     gradient                   ...        0 min,  0.495 sec
 * total energy  :  -386.3263112 Eh     change       -0.1688716E-04 Eh
   gradient norm :     0.0014226 Eh/α   predicted    -0.7213634E-05 ( -57.28%)
   displ. norm   :     0.1048826 α      lambda       -0.1345765E-04
   maximum displ.:     0.0728416 α      in ANC's #4, #10, #13, ...

........................................................................
.............................. CYCLE   25 ..............................
........................................................................

 iter      E             dE          RMSdq      gap      omega  full diag
   1   -393.5350595 -0.393535E+03  0.128E-02    0.10       0.0  T
   2   -393.5346728  0.386631E-03  0.382E-02    0.09       1.0  T
   3   -393.5349206 -0.247825E-03  0.239E-02    0.10       1.0  T
   4   -393.5350149 -0.942761E-04  0.118E-02    0.10       1.0  T
   5   -393.5350645 -0.495896E-04  0.173E-03    0.10       4.0  T
   6   -393.5350643  0.222135E-06  0.196E-03    0.10       3.6  T
   7   -393.5350650 -0.705854E-06  0.117E-03    0.10       6.0  T
   8   -393.5350653 -0.262987E-06  0.512E-04    0.10      13.7  T
   9   -393.5350653 -0.668348E-07  0.204E-04    0.10      34.3  T
     SCC iter.                  ...        0 min,  1.821 sec
     gradient                   ...        0 min,  0.483 sec
 * total energy  :  -386.3263283 Eh     change       -0.1704139E-04 Eh
   gradient norm :     0.0010554 Eh/α   predicted    -0.6763267E-05 ( -60.31%)
   displ. norm   :     0.1160912 α      lambda       -0.1462058E-04
   maximum displ.:     0.0827608 α      in ANC's #4, #2, #10, ...

........................................................................
.............................. CYCLE   26 ..............................
........................................................................

 iter      E             dE          RMSdq      gap      omega  full diag
   1   -393.5352385 -0.393535E+03  0.131E-02    0.10       0.0  T
   2   -393.5349784  0.260137E-03  0.315E-02    0.10       1.0  T
   3   -393.5351012 -0.122843E-03  0.237E-02    0.10       1.0  T
   4   -393.5352069 -0.105650E-03  0.102E-02    0.10       1.0  T
   5   -393.5352408 -0.338637E-04  0.258E-03    0.10       2.7  T
   6   -393.5352418 -0.103804E-05  0.160E-03    0.10       4.4  T
   7   -393.5352425 -0.663882E-06  0.882E-04    0.10       7.9  T
   8   -393.5352426 -0.113698E-06  0.522E-04    0.10      13.4  T
     SCC iter.                  ...        0 min,  1.592 sec
     gradient                   ...        0 min,  0.467 sec
 * total energy  :  -386.3263460 Eh     change       -0.1772208E-04 Eh
   gradient norm :     0.0005586 Eh/α   predicted    -0.7355414E-05 ( -58.50%)
   displ. norm   :     0.1101870 α      lambda       -0.1173432E-04
   maximum displ.:     0.0805598 α      in ANC's #4, #2, #17, ...

........................................................................
.............................. CYCLE   27 ..............................
........................................................................

 iter      E             dE          RMSdq      gap      omega  full diag
   1   -393.5350243 -0.393535E+03  0.116E-02    0.10       0.0  T
   2   -393.5349309  0.934320E-04  0.194E-02    0.10       1.0  T
   3   -393.5348737  0.572344E-04  0.242E-02    0.10       1.0  T
   4   -393.5349991 -0.125391E-03  0.971E-03    0.10       1.0  T
   5   -393.5350235 -0.244415E-04  0.302E-03    0.10       2.3  T
   6   -393.5350255 -0.203081E-05  0.135E-03    0.10       5.2  T
   7   -393.5350259 -0.337764E-06  0.846E-04    0.10       8.3  T
   8   -393.5350261 -0.246660E-06  0.278E-04    0.10      25.2  T
     SCC iter.                  ...        0 min,  1.615 sec
     gradient                   ...        0 min,  0.458 sec
 * total energy  :  -386.3263605 Eh     change       -0.1450239E-04 Eh
   gradient norm :     0.0006685 Eh/α   predicted    -0.5899403E-05 ( -59.32%)
   displ. norm   :     0.0907291 α      lambda       -0.8836796E-05
   maximum displ.:     0.0680276 α      in ANC's #4, #2, #3, ...

........................................................................
.............................. CYCLE   28 ..............................
........................................................................

 iter      E             dE          RMSdq      gap      omega  full diag
   1   -393.5350008 -0.393535E+03  0.900E-03    0.10       0.0  T
   2   -393.5349987  0.208161E-05  0.596E-03    0.10       1.2  T
   3   -393.5348981  0.100625E-03  0.208E-02    0.09       1.0  T
   4   -393.5349390 -0.409153E-04  0.145E-02    0.10       1.0  T
   5   -393.5349995 -0.604792E-04  0.225E-03    0.10       3.1  T
   6   -393.5350008 -0.134018E-05  0.963E-04    0.10       7.3  T
   7   -393.5350009 -0.129306E-06  0.658E-04    0.10      10.6  T
   8   -393.5350011 -0.134097E-06  0.216E-04    0.10      32.4  T
     SCC iter.                  ...        0 min,  1.612 sec
     gradient                   ...        0 min,  0.472 sec
 * total energy  :  -386.3263723 Eh     change       -0.1179363E-04 Eh
   gradient norm :     0.0006885 Eh/α   predicted    -0.4437340E-05 ( -62.38%)
   displ. norm   :     0.0837641 α      lambda       -0.8602965E-05
   maximum displ.:     0.0627031 α      in ANC's #4, #3, #2, ...

........................................................................
.............................. CYCLE   29 ..............................
........................................................................

 iter      E             dE          RMSdq      gap      omega  full diag
   1   -393.5349809 -0.393535E+03  0.865E-03    0.10       0.0  T
   2   -393.5349184  0.625031E-04  0.160E-02    0.10       1.0  T
   3   -393.5348952  0.231744E-04  0.183E-02    0.10       1.0  T
   4   -393.5349544 -0.592014E-04  0.975E-03    0.10       1.0  T
   5   -393.5349818 -0.273405E-04  0.115E-03    0.10       6.1  T
   6   -393.5349818 -0.510826E-07  0.100E-03    0.10       7.0  T
   7   -393.5349820 -0.168115E-06  0.593E-04    0.10      11.8  T
   8   -393.5349821 -0.909755E-07  0.197E-04    0.10      35.5  T
     SCC iter.                  ...        0 min,  1.621 sec
     gradient                   ...        0 min,  0.477 sec
 * total energy  :  -386.3263840 Eh     change       -0.1171491E-04 Eh
   gradient norm :     0.0005347 Eh/α   predicted    -0.4317567E-05 ( -63.14%)
   displ. norm   :     0.0954388 α      lambda       -0.9834416E-05
   maximum displ.:     0.0702791 α      in ANC's #4, #3, #2, ...

........................................................................
.............................. CYCLE   30 ..............................
........................................................................

 iter      E             dE          RMSdq      gap      omega  full diag
   1   -393.5349664 -0.393535E+03  0.981E-03    0.10       0.0  T
   2   -393.5348418  0.124514E-03  0.219E-02    0.10       1.0  T
   3   -393.5348815 -0.396191E-04  0.185E-02    0.10       1.0  T
   4   -393.5349443 -0.628005E-04  0.881E-03    0.10       1.0  T
   5   -393.5349682 -0.239546E-04  0.947E-04    0.10       7.4  T
   6   -393.5349683 -0.995358E-07  0.551E-04    0.10      12.7  T
   7   -393.5349684 -0.450573E-07  0.306E-04    0.10      22.8  T
     SCC iter.                  ...        0 min,  1.402 sec
     gradient                   ...        0 min,  0.472 sec
 * total energy  :  -386.3263975 Eh     change       -0.1344671E-04 Eh
   gradient norm :     0.0003976 Eh/α   predicted    -0.4939983E-05 ( -63.26%)
   displ. norm   :     0.1119044 α      lambda       -0.1097848E-04
   maximum displ.:     0.0809538 α      in ANC's #4, #3, #2, ...

........................................................................
.............................. CYCLE   31 ..............................
........................................................................

 iter      E             dE          RMSdq      gap      omega  full diag
   1   -393.5349918 -0.393535E+03  0.111E-02    0.10       0.0  T
   2   -393.5348309  0.160896E-03  0.248E-02    0.10       1.0  T
   3   -393.5348945 -0.636672E-04  0.199E-02    0.10       1.0  T
   4   -393.5349745 -0.799464E-04  0.713E-03    0.10       1.0  T
   5   -393.5349940 -0.195666E-04  0.119E-03    0.10       5.9  T
   6   -393.5349942 -0.119087E-06  0.709E-04    0.10       9.9  T
   7   -393.5349942 -0.242323E-07  0.655E-04    0.10      10.7  T
     SCC iter.                  ...        0 min,  1.428 sec
     gradient                   ...        0 min,  0.477 sec
 * total energy  :  -386.3264123 Eh     change       -0.1485311E-04 Eh
   gradient norm :     0.0004391 Eh/α   predicted    -0.5524046E-05 ( -62.81%)
   displ. norm   :     0.1301074 α      lambda       -0.1227866E-04
   maximum displ.:     0.0927292 α      in ANC's #4, #3, #2, ...

........................................................................
.............................. CYCLE   32 ..............................
........................................................................

 iter      E             dE          RMSdq      gap      omega  full diag
   1   -393.5349420 -0.393535E+03  0.123E-02    0.10       0.0  T
   2   -393.5348200  0.122055E-03  0.218E-02    0.10       1.0  T
   3   -393.5347886  0.314066E-04  0.246E-02    0.10       1.0  T
   4   -393.5349277 -0.139109E-03  0.732E-03    0.10       1.0  T
   5   -393.5349434 -0.157428E-04  0.137E-03    0.10       5.1  T
   6   -393.5349438 -0.350677E-06  0.105E-03    0.10       6.6  T
   7   -393.5349440 -0.216113E-06  0.624E-04    0.10      11.2  T
   8   -393.5349440 -0.531836E-07  0.390E-04    0.10      17.9  T
     SCC iter.                  ...        0 min,  1.635 sec
     gradient                   ...        0 min,  0.454 sec
 * total energy  :  -386.3264296 Eh     change       -0.1727180E-04 Eh
   gradient norm :     0.0005535 Eh/α   predicted    -0.6189279E-05 ( -64.17%)
   displ. norm   :     0.1513857 α      lambda       -0.1406794E-04
   maximum displ.:     0.1069522 α      in ANC's #4, #3, #2, ...

........................................................................
.............................. CYCLE   33 ..............................
........................................................................

 iter      E             dE          RMSdq      gap      omega  full diag
   1   -393.5348721 -0.393535E+03  0.140E-02    0.10       0.0  T
   2   -393.5347693  0.102797E-03  0.204E-02    0.10       1.0  T
   3   -393.5345926  0.176781E-03  0.327E-02    0.10       1.0  T
   4   -393.5348407 -0.248097E-03  0.118E-02    0.10       1.0  T
   5   -393.5348720 -0.313925E-04  0.254E-03    0.10       2.8  T
   6   -393.5348736 -0.151682E-05  0.138E-03    0.10       5.1  T
   7   -393.5348740 -0.389715E-06  0.865E-04    0.10       8.1  T
   8   -393.5348741 -0.166294E-06  0.468E-04    0.10      14.9  T
     SCC iter.                  ...        0 min,  1.627 sec
     gradient                   ...        0 min,  0.453 sec
 * total energy  :  -386.3264491 Eh     change       -0.1955073E-04 Eh
   gradient norm :     0.0005767 Eh/α   predicted    -0.7107144E-05 ( -63.65%)
   displ. norm   :     0.1727250 α      lambda       -0.1554687E-04
   maximum displ.:     0.1219980 α      in ANC's #4, #3, #2, ...

........................................................................
.............................. CYCLE   34 ..............................
........................................................................

 iter      E             dE          RMSdq      gap      omega  full diag
   1   -393.5348125 -0.393535E+03  0.159E-02    0.10       0.0  T
   2   -393.5347505  0.620253E-04  0.170E-02    0.10       1.0  T
   3   -393.5341985  0.551998E-03  0.474E-02    0.10       1.0  T
   4   -393.5347639 -0.565368E-03  0.151E-02    0.10       1.0  T
   5   -393.5348121 -0.481933E-04  0.252E-03    0.10       2.8  T
   6   -393.5348136 -0.150879E-05  0.145E-03    0.10       4.8  T
   7   -393.5348140 -0.383941E-06  0.107E-03    0.10       6.5  T
   8   -393.5348143 -0.275123E-06  0.545E-04    0.10      12.8  T
   9   -393.5348143 -0.626424E-07  0.342E-04    0.10      20.4  T
     SCC iter.                  ...        0 min,  1.834 sec
     gradient                   ...        0 min,  0.471 sec
 * total energy  :  -386.3264705 Eh     change       -0.2132114E-04 Eh
   gradient norm :     0.0005094 Eh/α   predicted    -0.7876868E-05 ( -63.06%)
   displ. norm   :     0.1809473 α      lambda       -0.1513886E-04
   maximum displ.:     0.1289501 α      in ANC's #4, #3, #2, ...

........................................................................
.............................. CYCLE   35 ..............................
........................................................................

 iter      E             dE          RMSdq      gap      omega  full diag
   1   -393.5347136 -0.393535E+03  0.164E-02    0.10       0.0  T
   2   -393.5346632  0.504818E-04  0.161E-02    0.10       1.0  T
   3   -393.5339786  0.684539E-03  0.517E-02    0.10       1.0  T
   4   -393.5346643 -0.685649E-03  0.150E-02    0.10       1.0  T
   5   -393.5347134 -0.491166E-04  0.230E-03    0.10       3.0  T
   6   -393.5347146 -0.123526E-05  0.141E-03    0.10       4.9  T
   7   -393.5347150 -0.391406E-06  0.100E-03    0.10       7.0  T
   8   -393.5347152 -0.162320E-06  0.567E-04    0.10      12.3  T
   9   -393.5347153 -0.848772E-07  0.327E-04    0.10      21.4  T
     SCC iter.                  ...        0 min,  1.802 sec
     gradient                   ...        0 min,  0.479 sec
 * total energy  :  -386.3264910 Eh     change       -0.2053737E-04 Eh
   gradient norm :     0.0003940 Eh/α   predicted    -0.7680652E-05 ( -62.60%)
   displ. norm   :     0.1659117 α      lambda       -0.1290567E-04
   maximum displ.:     0.1196840 α      in ANC's #4, #3, #2, ...

........................................................................
.............................. CYCLE   36 ..............................
........................................................................

 iter      E             dE          RMSdq      gap      omega  full diag
   1   -393.5348107 -0.393535E+03  0.148E-02    0.10       0.0  T
   2   -393.5347692  0.415239E-04  0.147E-02    0.10       1.0  T
   3   -393.5342182  0.551020E-03  0.466E-02    0.10       1.0  T
   4   -393.5347781 -0.559859E-03  0.118E-02    0.10       1.0  T
   5   -393.5348106 -0.325560E-04  0.194E-03    0.10       3.6  T
   6   -393.5348113 -0.653353E-06  0.148E-03    0.10       4.7  T
   7   -393.5348117 -0.454198E-06  0.822E-04    0.10       8.5  T
   8   -393.5348118 -0.106590E-06  0.472E-04    0.10      14.8  T
     SCC iter.                  ...        0 min,  1.631 sec
     gradient                   ...        0 min,  0.494 sec
 * total energy  :  -386.3265085 Eh     change       -0.1748793E-04 Eh
   gradient norm :     0.0003223 Eh/α   predicted    -0.6533327E-05 ( -62.64%)
   displ. norm   :     0.1442303 α      lambda       -0.1084575E-04
   maximum displ.:     0.1051565 α      in ANC's #4, #3, #2, ...

........................................................................
.............................. CYCLE   37 ..............................
........................................................................

 iter      E             dE          RMSdq      gap      omega  full diag
   1   -393.5348631 -0.393535E+03  0.127E-02    0.10       0.0  T
   2   -393.5348222  0.409545E-04  0.142E-02    0.10       1.0  T
   3   -393.5345215  0.300663E-03  0.357E-02    0.10       1.0  T
   4   -393.5348483 -0.326780E-03  0.749E-03    0.10       1.0  T
   5   -393.5348626 -0.142751E-04  0.216E-03    0.10       3.2  T
   6   -393.5348636 -0.104033E-05  0.116E-03    0.10       6.0  T
   7   -393.5348639 -0.304042E-06  0.527E-04    0.10      13.2  T
   8   -393.5348640 -0.469481E-07  0.297E-04    0.10      23.5  T
     SCC iter.                  ...        0 min,  1.630 sec
     gradient                   ...        0 min,  0.460 sec
 * total energy  :  -386.3265235 Eh     change       -0.1501504E-04 Eh
   gradient norm :     0.0003087 Eh/α   predicted    -0.5476890E-05 ( -63.52%)
   displ. norm   :     0.1305319 α      lambda       -0.9813511E-05
   maximum displ.:     0.0956622 α      in ANC's #4, #3, #2, ...

........................................................................
.............................. CYCLE   38 ..............................
........................................................................

 iter      E             dE          RMSdq      gap      omega  full diag
   1   -393.5350137 -0.393535E+03  0.115E-02    0.10       0.0  T
   2   -393.5349424  0.712968E-04  0.174E-02    0.10       1.0  T
   3   -393.5348487  0.936565E-04  0.253E-02    0.10       1.0  T
   4   -393.5350007 -0.151983E-03  0.663E-03    0.10       1.1  T
   5   -393.5350141 -0.134478E-04  0.170E-03    0.10       4.1  T
   6   -393.5350146 -0.462436E-06  0.111E-03    0.10       6.3  T
   7   -393.5350148 -0.184057E-06  0.642E-04    0.10      10.9  T
   8   -393.5350149 -0.113187E-06  0.249E-04    0.10      28.0  T
     SCC iter.                  ...        0 min,  1.643 sec
     gradient                   ...        0 min,  0.487 sec
 * total energy  :  -386.3265372 Eh     change       -0.1374952E-04 Eh
   gradient norm :     0.0003100 Eh/α   predicted    -0.4944062E-05 ( -64.04%)
   displ. norm   :     0.1249586 α      lambda       -0.9396877E-05
   maximum displ.:     0.0916506 α      in ANC's #4, #3, #2, ...

........................................................................
.............................. CYCLE   39 ..............................
........................................................................

 iter      E             dE          RMSdq      gap      omega  full diag
   1   -393.5351399 -0.393535E+03  0.112E-02    0.10       0.0  T
   2   -393.5350556  0.842688E-04  0.188E-02    0.10       1.0  T
   3   -393.5350006  0.550276E-04  0.234E-02    0.10       1.0  T
   4   -393.5351083 -0.107734E-03  0.104E-02    0.10       1.0  T
   5   -393.5351409 -0.325776E-04  0.153E-03    0.10       4.6  T
   6   -393.5351411 -0.149327E-06  0.122E-03    0.10       5.7  T
   7   -393.5351413 -0.194093E-06  0.788E-04    0.10       8.9  T
   8   -393.5351414 -0.161656E-06  0.253E-04    0.10      27.6  T
     SCC iter.                  ...        0 min,  1.645 sec
     gradient                   ...        0 min,  0.490 sec
 * total energy  :  -386.3265504 Eh     change       -0.1319111E-04 Eh
   gradient norm :     0.0003177 Eh/α   predicted    -0.4735120E-05 ( -64.10%)
   displ. norm   :     0.1248926 α      lambda       -0.9138665E-05
   maximum displ.:     0.0917708 α      in ANC's #4, #3, #2, ...

........................................................................
.............................. CYCLE   40 ..............................
........................................................................

 iter      E             dE          RMSdq      gap      omega  full diag
   1   -393.5352324 -0.393535E+03  0.113E-02    0.10       0.0  T
   2   -393.5351210  0.111379E-03  0.214E-02    0.10       1.0  T
   3   -393.5351047  0.162997E-04  0.225E-02    0.10       1.0  T
   4   -393.5351900 -0.853086E-04  0.122E-02    0.10       1.0  T
   5   -393.5352336 -0.436595E-04  0.184E-03    0.10       3.8  T
   6   -393.5352340 -0.346362E-06  0.137E-03    0.10       5.1  T
   7   -393.5352342 -0.216752E-06  0.929E-04    0.10       7.5  T
   8   -393.5352344 -0.228265E-06  0.284E-04    0.10      24.6  T
     SCC iter.                  ...        0 min,  1.623 sec
     gradient                   ...        0 min,  0.486 sec
 * total energy  :  -386.3265631 Eh     change       -0.1270779E-04 Eh
   gradient norm :     0.0002897 Eh/α   predicted    -0.4602769E-05 ( -63.78%)
   displ. norm   :     0.1188510 α      lambda       -0.8167283E-05
   maximum displ.:     0.0878582 α      in ANC's #4, #3, #5, ...

........................................................................
.............................. CYCLE   41 ..............................
........................................................................

 iter      E             dE          RMSdq      gap      omega  full diag
   1   -393.5353205 -0.393535E+03  0.107E-02    0.10       0.0  T
   2   -393.5352375  0.829241E-04  0.186E-02    0.10       1.0  T
   3   -393.5351919  0.456623E-04  0.225E-02    0.10       1.0  T
   4   -393.5352860 -0.941684E-04  0.112E-02    0.10       1.0  T
   5   -393.5353215 -0.354414E-04  0.151E-03    0.10       4.6  T
   6   -393.5353217 -0.239342E-06  0.114E-03    0.10       6.1  T
   7   -393.5353219 -0.141721E-06  0.813E-04    0.10       8.6  T
   8   -393.5353220 -0.170301E-06  0.284E-04    0.10      24.6  T
     SCC iter.                  ...        0 min,  1.598 sec
     gradient                   ...        0 min,  0.474 sec
 * total energy  :  -386.3265744 Eh     change       -0.1130147E-04 Eh
   gradient norm :     0.0002632 Eh/α   predicted    -0.4113292E-05 ( -63.60%)
   displ. norm   :     0.1061941 α      lambda       -0.6852136E-05
   maximum displ.:     0.0793690 α      in ANC's #4, #3, #7, ...

........................................................................
.............................. CYCLE   42 ..............................
........................................................................

 iter      E             dE          RMSdq      gap      omega  full diag
   1   -393.5353950 -0.393535E+03  0.917E-03    0.10       0.0  T
   2   -393.5353392  0.557669E-04  0.154E-02    0.10       1.0  T
   3   -393.5353020  0.372136E-04  0.191E-02    0.10       1.0  T
   4   -393.5353710 -0.689409E-04  0.924E-03    0.10       1.0  T
   5   -393.5353957 -0.247333E-04  0.118E-03    0.10       5.9  T
   6   -393.5353959 -0.167648E-06  0.858E-04    0.10       8.1  T
   7   -393.5353960 -0.746080E-07  0.621E-04    0.10      11.3  T
     SCC iter.                  ...        0 min,  1.430 sec
     gradient                   ...        0 min,  0.476 sec
 * total energy  :  -386.3265839 Eh     change       -0.9440832E-05 Eh
   gradient norm :     0.0002340 Eh/α   predicted    -0.3444970E-05 ( -63.51%)
   displ. norm   :     0.0898411 α      lambda       -0.5591374E-05
   maximum displ.:     0.0679058 α      in ANC's #4, #3, #7, ...
 * RMSD in coord.:     0.1641767 α      energy gain  -0.3541202E-03 Eh

generating ANC from exact Hessian ...
Using Lindh-Hessian (1995)
 Shifting diagonal of input Hessian by   9.934644672625125E-003
 Lowest  eigenvalues of input Hessian
    0.000000    0.000000    0.000000    0.000000    0.000000    0.000000
    0.010000    0.010075    0.010176    0.010218    0.010232    0.010708
    0.010722    0.010800    0.010855    0.011012    0.011770    0.011800
 Highest eigenvalues
    2.151570    2.161731    2.162083    2.176825    2.221499    2.224336
 

........................................................................
.............................. CYCLE   43 ..............................
........................................................................

 iter      E             dE          RMSdq      gap      omega  full diag
   1   -393.5354128 -0.393535E+03  0.745E-03    0.10       0.0  T
   2   -393.5354004  0.124592E-04  0.802E-03    0.10       1.0  T
   3   -393.5352893  0.111040E-03  0.215E-02    0.10       1.0  T
   4   -393.5354059 -0.116599E-03  0.542E-03    0.10       1.3  T
   5   -393.5354128 -0.687008E-05  0.101E-03    0.10       6.9  T
   6   -393.5354130 -0.225267E-06  0.509E-04    0.10      13.7  T
   7   -393.5354130  0.722957E-08  0.452E-04    0.10      15.4  T
     SCC iter.                  ...        0 min,  1.413 sec
     gradient                   ...        0 min,  0.450 sec
 * total energy  :  -386.3265918 Eh     change       -0.7908060E-05 Eh
   gradient norm :     0.0002060 Eh/α   predicted     0.0000000E+00 (-100.00%)
   displ. norm   :     0.0194419 α      lambda       -0.5389725E-07
   maximum displ.:     0.0148067 α      in ANC's #4, #5, #16, ...

........................................................................
.............................. CYCLE   44 ..............................
........................................................................

 iter      E             dE          RMSdq      gap      omega  full diag
   1   -393.5353871 -0.393535E+03  0.210E-03    0.10       0.0  T
   2   -393.5353829  0.414268E-05  0.418E-03    0.10       1.7  T
   3   -393.5353808  0.211769E-05  0.494E-03    0.10       1.4  T
   4   -393.5353858 -0.496312E-05  0.234E-03    0.10       3.0  T
   5   -393.5353871 -0.134963E-05  0.410E-04    0.10      17.0  T
   6   -393.5353871 -0.269354E-07  0.314E-04    0.10      22.2  T
   7   -393.5353872 -0.164678E-07  0.156E-04    0.10      44.9  T
     SCC iter.                  ...        0 min,  1.439 sec
     gradient                   ...        0 min,  0.484 sec
 * total energy  :  -386.3265945 Eh     change       -0.2720536E-05 Eh
   gradient norm :     0.0001616 Eh/α   predicted    -0.9187905E-06 ( -66.23%)
   displ. norm   :     0.0569239 α      lambda       -0.5030593E-05
   maximum displ.:     0.0373740 α      in ANC's #4, #5, #16, ...

   *** GEOMETRY OPTIMIZATION CONVERGED AFTER 44 ITERATIONS ***

------------------------------------------------------------------------
 total energy gain   :        -0.0399565 Eh      -25.0731 kcal/mol
 total RMSD          :         0.3693414 a0        0.1954 Å
 total power (kW/mol):        -2.3842195 (step)   -0.9494 (real)
------------------------------------------------------------------------

 ANCopt (total)                0 d,  0 h,  1 min, 50.495 sec
 optimizer setup                ...        0 min,  0.003 sec (  0.003%)
 model hessian                  ...        0 min,  0.630 sec (  0.570%)
 ANC generation                 ...        0 min,  0.275 sec (  0.249%)
 coordinate transformation      ...        0 min,  0.021 sec (  0.019%)
 single point calculation       ...        1 min, 49.416 sec ( 99.023%)
 optimization log               ...        0 min,  0.099 sec (  0.090%)
 hessian update                 ...        0 min,  0.015 sec (  0.014%)
 rational function              ...        0 min,  0.031 sec (  0.028%)

================
 final structure:
================
205
 xtb: 6.7.1pre (5071a88)
C           11.34791574517275       -6.52133401595740        0.26441846650930
C           10.82179653949447       -7.78705396964040        0.05001984349966
C            9.48161624664990       -7.99692540654389        0.26034332568557
C            8.62446189033136       -6.94674007224104        0.62144504075697
C           10.51555261977611       -5.45651526582165        0.55101054729596
C            9.11693503821076       -5.61711421207910        0.65474351625380
C            8.19888862104828       -4.50076554730693        0.69472454716841
C           10.38767675843740       -1.54379126726752        0.03201934348784
C            9.99874942271839       -2.79907426826901        0.39006294966893
C            8.61962028735674       -3.17094290149665        0.43978534164847
C            7.65700227206162       -2.17057381944876        0.17022084265267
C            9.94270129718633        0.74248080505742       -0.57281466777601
C            9.47115363795679       -0.54648925337236       -0.36155862802716
C            8.06788860913756       -0.89329130355361       -0.30787815480649
C            7.09876548223875        0.04364204298083       -0.64993895193420
C            9.42478811993297        3.15011339280077       -0.88401462283605
C            9.12718451053009        1.81737624245194       -0.94748665049373
C            6.54401046678243        2.69545102003046       -0.98390257225916
C            8.47693384389172        4.20154246694528       -1.05530026212230
C            7.04257033649290        3.99975117174355       -0.96595940115437
C            6.11941292280513        5.07561587806030       -0.77405073407256
C            8.16312534550538        8.13012936585655       -1.50974511760059
C            7.83813022000871        6.82155941058979       -1.23290075332842
C            6.49887432602538        6.44115156149227       -0.91249981414001
C            5.54134675900663        7.47561583681248       -0.77680630454132
C            7.54951594854163       10.47690656480296       -1.79207512067916
C            7.21329585676861        9.15706901440592       -1.45603233128373
C            5.90133662548058        8.82906363126114       -1.03185862026881
C            4.95795747649364        9.87272493752086       -0.89629805386414
C            6.59782948705027       11.46350870961552       -1.72605243274335
C            5.31931691383866       11.16453050063571       -1.28026160561009
C            7.26865503927227       -7.17802832986584        1.03471786258254
C            6.76259695717846       -8.50762488089383        1.23070920550681
C            5.44484873079087       -8.84690004320299        1.27726330327798
C            4.39686284658886       -7.89176203518979        1.33772633560619
C            6.81839071633046       -4.75195974014425        0.87772479065025
C            6.44799714339321       -6.08158216083430        1.21428472990632
C            3.87862849578764       -5.25332013923225        1.08652274000956
C            6.26254838898083       -2.44397628641562        0.29131547766527
C            5.83167671091655       -3.73069152213403        0.69270591379214
C            4.41282005456718       -4.00208958229400        0.72976370340415
C            3.48609739400918       -2.99629151402695        0.36505689439364
C            5.73101618427822       -0.11995910738779       -0.37404158100099
C            5.31359909536807       -1.40675480701569        0.04031272272539
C            3.92998889976316       -1.67528350406076        0.11329763326247
C            3.00212223934659       -0.62690284935771       -0.05747233482184
C            5.22054784951421        2.34660517061467       -0.65109036229030
C            4.80995879982789        0.97700296038314       -0.46976044405105
C            3.44791246079667        0.71092194396031       -0.24297605144351
C            2.50506499903887        1.77459271870531       -0.18528743224403
C            4.75519603736127        4.76151745636652       -0.52378085115406
C            4.31071378781466        3.41092207400889       -0.44029926882770
C            2.93950964589931        3.11651515241993       -0.21707303181483
C            2.00712926699706        4.16580382917929       -0.01675788628688
C            4.20146350224144        7.16390127202445       -0.41407207482256
C            3.81509370679043        5.81316361855762       -0.32019960517496
C            2.46083912869132        5.50813140628803       -0.01305296545230
C            1.56801122774455        6.53574715549499        0.36726689562432
C            3.65673026926167        9.56474881077212       -0.36493243092363
C            3.26463425775949        8.21784781931830       -0.15485816917607
C            1.95857814129371        7.92235391920514        0.31846066848888
C            1.06166458023953        9.01038338795505        0.59434330444462
C            2.77293341523406       10.59412707263008       -0.03122089359715
C            1.51595154481093       10.32460483527409        0.42474637810133
C            3.04882699499971       -8.08803800525415        1.05598588434221
C            2.58410101034365       -9.39242567807911        0.74727537076320
C            1.26717883430862       -9.67022142870440        0.63989233546314
C            0.27643017118102       -8.67212494016851        0.82340731005309
C            2.54320279416660       -5.63058688367475        0.88520588311427
[...]
    12   6 C       17   6 C                                       1.4003026
    16   6 C       17   6 C                                       1.3670352
    16   6 C       19   6 C                                       1.4259278
    18   6 C       20   6 C                                       1.3964538
    20   6 C       21   6 C                                       1.4305711
    22   6 C       23   6 C                                       1.3764521
    21   6 C       24   6 C                                       1.4240250
    23   6 C       24   6 C                                       1.4286265
    24   6 C       25   6 C                                       1.4161174
    22   6 C       27   6 C                                       1.3998809
    26   6 C       27   6 C                                       1.4028329
    25   6 C       28   6 C                                       1.4235398
    27   6 C       28   6 C                                       1.4173032
    28   6 C       29   6 C                                       1.4133542
    26   6 C       30   6 C                                       1.3723885
    29   6 C       31   6 C                                       1.3952672
    30   6 C       31   6 C                                       1.3866190
     4   6 C       32   6 C                                       1.4361411
    32   6 C       33   6 C                                       1.4360831
    33   6 C       34   6 C                                       1.3615196
    34   6 C       35   6 C                                       1.4192319
     7   6 C       36   6 C                                       1.4150486
    32   6 C       37   6 C                                       1.3812741
    36   6 C       37   6 C                                       1.4206900
    11   6 C       39   6 C                                       1.4261539
    36   6 C       40   6 C                                       1.4320704
    39   6 C       40   6 C                                       1.4150622
    38   6 C       41   6 C                                       1.4064906
    41   6 C       42   6 C                                       1.4154349
    15   6 C       43   6 C                                       1.4048570
    39   6 C       44   6 C                                       1.4280532
    43   6 C       44   6 C                                       1.4148392
    42   6 C       45   6 C                                       1.4161514
    44   6 C       45   6 C                                       1.4113157
    45   6 C       46   6 C                                       1.4103905
    18   6 C       47   6 C                                       1.4085493
    43   6 C       48   6 C                                       1.4355609
    47   6 C       48   6 C                                       1.4412753
    46   6 C       49   6 C                                       1.4222926
    48   6 C       49   6 C                                       1.4062009
    49   6 C       50   6 C                                       1.4225629
    21   6 C       51   6 C                                       1.4221044
    47   6 C       52   6 C                                       1.4159808
    51   6 C       52   6 C                                       1.4243040
    50   6 C       53   6 C                                       1.4108539
    52   6 C       53   6 C                                       1.4201079
    53   6 C       54   6 C                                       1.4179092
    25   6 C       55   6 C                                       1.4226839
    51   6 C       56   6 C                                       1.4252009
    55   6 C       56   6 C                                       1.4080434
    54   6 C       57   6 C                                       1.4169369
    56   6 C       57   6 C                                       1.4217558
    57   6 C       58   6 C                                       1.4134282
    55   6 C       60   6 C                                       1.4337519
    59   6 C       60   6 C                                       1.4184545
    58   6 C       61   6 C                                       1.4413894
    60   6 C       61   6 C                                       1.4202571
    61   6 C       62   6 C                                       1.4367928
    59   6 C       63   6 C                                       1.3971687
    62   6 C       64   6 C                                       1.4008277
    63   6 C       64   6 C                                       1.3640206
    35   6 C       65   6 C                                       1.3910798
    65   6 C       66   6 C                                       1.4186966
    66   6 C       67   6 C                                       1.3501800
    67   6 C       68   6 C                                       1.4182587
    38   6 C       69   6 C                                       1.4022200
    70   6 C       71   6 C                                       1.3969288
    42   6 C       73   6 C                                       1.4143421
    69   6 C       74   6 C                                       1.4122151
    73   6 C       74   6 C                                       1.4143256
    72   6 C       75   6 C                                       1.4122883
    74   6 C       75   6 C                                       1.4164582
    75   6 C       76   6 C                                       1.4137312
    46   6 C       77   6 C                                       1.4135294
    73   6 C       78   6 C                                       1.4173212
    77   6 C       78   6 C                                       1.4118281
    76   6 C       79   6 C                                       1.4170088
    78   6 C       79   6 C                                       1.4121348
    79   6 C       80   6 C                                       1.4111353
    50   6 C       81   6 C                                       1.4149202
    77   6 C       82   6 C                                       1.4132526
    81   6 C       82   6 C                                       1.4124532
    80   6 C       83   6 C                                       1.4112193
    82   6 C       83   6 C                                       1.4094332
    83   6 C       84   6 C                                       1.4165233
    54   6 C       85   6 C                                       1.4169037
    81   6 C       86   6 C                                       1.4113575
    85   6 C       86   6 C                                       1.4101127
    84   6 C       87   6 C                                       1.4083026
    86   6 C       87   6 C                                       1.4150522
    87   6 C       88   6 C                                       1.4224279
    58   6 C       89   6 C                                       1.4074565
    85   6 C       90   6 C                                       1.4163209
    89   6 C       90   6 C                                       1.4033921
    88   6 C       91   6 C                                       1.4095096
    90   6 C       91   6 C                                       1.4387393
    91   6 C       92   6 C                                       1.4368264
    62   6 C       93   6 C                                       1.4252215
    92   6 C       94   6 C                                       1.3986730
    94   6 C       95   6 C                                       1.4048953
    93   6 C       96   6 C                                       1.4048847
    95   6 C       97   6 C                                       1.4331744
    96   6 C       97   6 C                                       1.3735454
    68   6 C       98   6 C                                       1.3938274
    98   6 C       99   6 C                                       1.4157267
    99   6 C      100   6 C                                       1.3659755
   100   6 C      101   6 C                                       1.4325232
    72   6 C      102   6 C                                       1.4018883
   101   6 C      103   6 C                                       1.3869897
   103   6 C      104   6 C                                       1.4149439
    76   6 C      105   6 C                                       1.4128795
   102   6 C      106   6 C                                       1.4038101
   105   6 C      106   6 C                                       1.4110156
   104   6 C      107   6 C                                       1.4207365
   107   6 C      108   6 C                                       1.4176278
    80   6 C      109   6 C                                       1.4138635
   105   6 C      110   6 C                                       1.4151233
   109   6 C      110   6 C                                       1.4086704
   108   6 C      111   6 C                                       1.4274980
   110   6 C      111   6 C                                       1.4100840
   111   6 C      112   6 C                                       1.4078584
    84   6 C      113   6 C                                       1.4134266
   109   6 C      114   6 C                                       1.4128665
   113   6 C      114   6 C                                       1.4126454
   112   6 C      115   6 C                                       1.4141155
   114   6 C      115   6 C                                       1.4099635
   115   6 C      116   6 C                                       1.4182887
    88   6 C      117   6 C                                       1.4228861
   113   6 C      118   6 C                                       1.4142843
   117   6 C      118   6 C                                       1.4131847
   116   6 C      119   6 C                                       1.4105198
   118   6 C      119   6 C                                       1.4196946
   119   6 C      120   6 C                                       1.4204533
    92   6 C      121   6 C                                       1.4208522
   117   6 C      122   6 C                                       1.4191350
   121   6 C      122   6 C                                       1.4143704
   120   6 C      123   6 C                                       1.4219245
   122   6 C      123   6 C                                       1.4156116
   123   6 C      124   6 C                                       1.4161969
    95   6 C      125   6 C                                       1.4037345
   121   6 C      126   6 C                                       1.4327345
   125   6 C      126   6 C                                       1.4137882
   124   6 C      127   6 C                                       1.4059881
   126   6 C      127   6 C                                       1.4257261
   128   6 C      129   6 C                                       1.3567727
   101   6 C      130   6 C                                       1.4391525
   130   6 C      131   6 C                                       1.3958341
   131   6 C      132   6 C                                       1.3835784
   132   6 C      133   6 C                                       1.3755948
   104   6 C      134   6 C                                       1.4218737
   130   6 C      135   6 C                                       1.4213511
   134   6 C      135   6 C                                       1.4261898
   133   6 C      136   6 C                                       1.3982080
   135   6 C      136   6 C                                       1.4173710
   136   6 C      137   6 C                                       1.4096735
   108   6 C      138   6 C                                       1.4197461
   134   6 C      139   6 C                                       1.4189147
   138   6 C      139   6 C                                       1.4238825
   137   6 C      140   6 C                                       1.3626798
   139   6 C      140   6 C                                       1.4272407
   112   6 C      141   6 C                                       1.4168521
   141   6 C      142   6 C                                       1.4154214
   142   6 C      143   6 C                                       1.4172199
   143   6 C      144   6 C                                       1.3721495
   116   6 C      145   6 C                                       1.4161955
   141   6 C      146   6 C                                       1.4181585
   145   6 C      146   6 C                                       1.4214786
   144   6 C      147   6 C                                       1.3983036
   146   6 C      147   6 C                                       1.4099733
   147   6 C      148   6 C                                       1.4043418
   120   6 C      149   6 C                                       1.4161551
   145   6 C      150   6 C                                       1.4183086
   149   6 C      150   6 C                                       1.4265211
   148   6 C      151   6 C                                       1.3660978
   150   6 C      151   6 C                                       1.4237048
   124   6 C      152   6 C                                       1.4327844
   149   6 C      153   6 C                                       1.4336067
   152   6 C      153   6 C                                       1.4038021
   153   6 C      154   6 C                                       1.4279680
   154   6 C      155   6 C                                       1.3641005
   152   6 C      157   6 C                                       1.4211496
   156   6 C      157   6 C                                       1.4081078
   155   6 C      158   6 C                                       1.4100158
   157   6 C      158   6 C                                       1.4134363
   158   6 C      159   6 C                                       1.4019289
   156   6 C      160   6 C                                       1.3860274
   159   6 C      161   6 C                                       1.3728782
   160   6 C      161   6 C                                       1.3919119
     1   6 C      162   1 H                                       1.0816017
     2   6 C      163   1 H                                       1.0797169
     3   6 C      164   1 H                                       1.0778419
     8   6 C      166   1 H                                       1.0828515
    12   6 C      167   1 H                                       1.0831419
    16   6 C      168   1 H                                       1.0852202
    22   6 C      169   1 H                                       1.0821797
    26   6 C      170   1 H                                       1.0797270
    33   6 C      171   1 H                                       1.0788597
    34   6 C      172   1 H                                       1.0813224
    66   6 C      173   1 H                                       1.0777008
    67   6 C      174   1 H                                       1.0777124
    99   6 C      175   1 H                                       1.0813790
   100   6 C      176   1 H                                       1.0787444
   131   6 C      177   1 H                                       1.0777517
   132   6 C      178   1 H                                       1.0800532
   133   6 C      179   1 H                                       1.0799645
   137   6 C      180   1 H                                       1.0828861
   144   6 C      182   1 H                                       1.0823342
   148   6 C      183   1 H                                       1.0819712
   155   6 C      185   1 H                                       1.0816071
   159   6 C      186   1 H                                       1.0799648
   161   6 C      187   1 H                                       1.0799799
    30   6 C      188   1 H                                       1.0800984
    31   6 C      189   1 H                                       1.0774651
    63   6 C      190   1 H                                       1.0768932 (min)
    64   6 C      191   1 H                                       1.0781277
    96   6 C      192   1 H                                       1.0817374
    97   6 C      193   1 H                                       1.0838235
   129   6 C      195   1 H                                       1.0826509
   160   6 C      196   1 H                                       1.0795176
   129   6 C      197  15 P                                       1.7733598
   194   1 H      197  15 P                                       1.4138533
   151   6 C      198  15 P                                       1.8149774 (max)
   154   6 C      198  15 P                                       1.8120886
   184   1 H      198  15 P                                       1.4118281
    19   6 C      199  15 P                                       1.7244831
    23   6 C      199  15 P                                       1.7769500
    15   6 C      200  15 P                                       1.7839847
    17   6 C      200  15 P                                       1.7950759
    18   6 C      200  15 P                                       1.7919476
    89   6 C      201  15 P                                       1.7546249
    93   6 C      201  15 P                                       1.7576250
    94   6 C      201  15 P                                       1.7582936
    35   6 C      202  15 P                                       1.7884035
    37   6 C      202  15 P                                       1.7897271
    38   6 C      202  15 P                                       1.7806684
     5   6 C      203  15 P                                       1.8051730
     9   6 C      203  15 P                                       1.8072096
   165   1 H      203  15 P                                       1.4009944
   140   6 C      204  15 P                                       1.8074554
   143   6 C      204  15 P                                       1.8038114
   181   1 H      204  15 P                                       1.4010693
    98   6 C      205  15 P                                       1.7893661
   102   6 C      205  15 P                                       1.7784760
   103   6 C      205  15 P                                       1.7925213

 * 4 distinct bonds (by element types)

   Z      Z             #   av. dist./Å        max./Å        min./Å
   1 H    6 C          31     1.0804783     1.0852202     1.0768932
   6 C    6 C         202     1.4104280     1.4413894     1.3501800
   1 H   15 P           4     1.4069363     1.4138533     1.4009944
   6 C   15 P          21     1.7850582     1.8149774     1.7244831


optimized geometry written to: xtbopt.xyz


           -------------------------------------------------
          | TOTAL ENERGY             -386.326594523690 Eh   |
          | GRADIENT NORM               0.000163147523 Eh/α |
          | HOMO-LUMO GAP               0.097737834373 eV   |
           -------------------------------------------------

------------------------------------------------------------------------
 * finished run on 2025/12/08 at 00:54:09.557     
------------------------------------------------------------------------
 total:
 * wall-time:     0 d,  0 h,  1 min, 57.000 sec
 *  cpu-time:     0 d,  0 h,  7 min, 39.906 sec
 * ratio c/w:     3.931 speedup
 SCF:
 * wall-time:     0 d,  0 h,  0 min,  5.084 sec
 *  cpu-time:     0 d,  0 h,  0 min, 19.938 sec
 * ratio c/w:     3.922 speedup
 ANC optimizer:
 * wall-time:     0 d,  0 h,  1 min, 51.722 sec
 *  cpu-time:     0 d,  0 h,  7 min, 19.266 sec
 * ratio c/w:     3.932 speedup

normal termination of xtb
