      -----------------------------------------------------------      
     |                   =====================                   |     
     |                           x T B                           |     
     |                   =====================                   |     
     |                         S. Grimme                         |     
     |          Mulliken Center for Theoretical Chemistry        |     
     |                    University of Bonn                     |     
      -----------------------------------------------------------      

   * xtb version 6.7.1pre (5071a88) compiled by 'Marcel@Raven' on 2024-07-23

   xtb is free software: you can redistribute it and/or modify it under
   the terms of the GNU Lesser General Public License as published by
   the Free Software Foundation, either version 3 of the License, or
   (at your option) any later version.
   
   xtb is distributed in the hope that it will be useful,
   but WITHOUT ANY WARRANTY; without even the implied warranty of
   MERCHANTABILITY or FITNESS FOR A PARTICULAR PURPOSE.  See the
   GNU Lesser General Public License for more details.
   
   Cite this work as:
   * C. Bannwarth, E. Caldeweyher, S. Ehlert, A. Hansen, P. Pracht,
     J. Seibert, S. Spicher, S. Grimme, WIREs Comput. Mol. Sci., 2020, 11,
     e01493. DOI: 10.1002/wcms.1493
   
   for GFN2-xTB:
   * C. Bannwarth, S. Ehlert and S. Grimme., J. Chem. Theory Comput., 2019,
     15, 1652-1671. DOI: 10.1021/acs.jctc.8b01176
   for GFN1-xTB:
   * S. Grimme, C. Bannwarth, P. Shushkov, J. Chem. Theory Comput., 2017,
     13, 1989-2009. DOI: 10.1021/acs.jctc.7b00118
   for GFN0-xTB:
   * P. Pracht, E. Caldeweyher, S. Ehlert, S. Grimme, ChemRxiv, 2019, preprint.
     DOI: 10.26434/chemrxiv.8326202.v1
   for GFN-FF:
   * S. Spicher and S. Grimme, Angew. Chem. Int. Ed., 2020, 59, 15665-15673.
     DOI: 10.1002/anie.202004239
   
   for ALPB and GBSA implicit solvation:
   * S. Ehlert, M. Stahn, S. Spicher, S. Grimme, J. Chem. Theory Comput.,
     2021, 17, 4250-4261. DOI: 10.1021/acs.jctc.1c00471
   
   for ddCOSMO and CPCM-X implicit solvation:
   * M. Stahn, S. Ehlert, S. Grimme, J. Phys. Chem. A,
     2023, XX, XXXX-XXXX. DOI: 10.1021/acs.jpca.3c04382
   
   for DFT-D4:
   * E. Caldeweyher, C. Bannwarth and S. Grimme, J. Chem. Phys., 2017,
     147, 034112. DOI: 10.1063/1.4993215
   * E. Caldeweyher, S. Ehlert, A. Hansen, H. Neugebauer, S. Spicher,
     C. Bannwarth and S. Grimme, J. Chem. Phys., 2019, 150, 154122.
     DOI: 10.1063/1.5090222
   * E. Caldeweyher, J.-M. Mewes, S. Ehlert and S. Grimme, Phys. Chem. Chem. Phys.
     2020, 22, 8499-8512. DOI: 10.1039/D0CP00502A
   
   for sTDA-xTB:
   * S. Grimme and C. Bannwarth, J. Chem. Phys., 2016, 145, 054103.
     DOI: 10.1063/1.4959605
   
   in the mass-spec context:
   * V. Asgeirsson, C. Bauer and S. Grimme, Chem. Sci., 2017, 8, 4879.
     DOI: 10.1039/c7sc00601b
   * J. Koopman and S. Grimme, ACS Omega 2019, 4, 12, 15120-15133.
     DOI: 10.1021/acsomega.9b02011
   
   for metadynamics refer to:
   * S. Grimme, J. Chem. Theory Comput., 2019, 155, 2847-2862
     DOI: 10.1021/acs.jctc.9b00143
   
   for SPH calculations refer to:
   * S. Spicher and S. Grimme, J. Chem. Theory Comput., 2021, 17, 1701-1714
     DOI: 10.1021/acs.jctc.0c01306
   
   for ONIOM refer to:
   * C. Plett, A. Katbashev, S. Ehlert, S. Grimme, M. Bursch,
     Phys. Chem. Chem. Phys., 2023, 25, 17860-17868. DOI: 10.1039/D3CP02178E
   
   for DIPRO refer to:
   * J. Kohn, N. Gildemeister, S. Grimme, D. Fazzi, A. Hansen,
     J. Chem. Phys., 2023, just accepted.
   
   for PTB refer to:
   * S. Grimme, M. Mueller, A. Hansen, J. Chem. Phys., 2023, 158, 124111.
     DOI: 10.1063/5.0137838
   
   with help from (in alphabetical order)
   P. Atkinson, C. Bannwarth, F. Bohle, G. Brandenburg, E. Caldeweyher
   M. Checinski, S. Dohm, S. Ehlert, S. Ehrlich, I. Gerasimov, C. Hölzer
   A. Katbashev, J. Kohn, J. Koopman, C. Lavigne, S. Lehtola, F. März, M. Müller,
   F. Musil, H. Neugebauer, J. Pisarek, C. Plett, P. Pracht, F. Pultar,
   J. Seibert, P. Shushkov, S. Spicher, M. Stahn, M. Steiner, T. Strunk,
   J. Stückrath, T. Rose, and J. Unsleber
   
 * started run on 2025/12/08 at 00:54:09.595     
   ID    Z sym.   atoms
    1    6 C      1-161
    2    1 H      162-196
    3   15 P      197-205

           -------------------------------------------------
          |                Calculation Setup                |
           -------------------------------------------------

          program call               : xtb "C:\Users\LENOVO GAMING\Documents\GitHub\molecular-conductivity-sim\results\2nm-9Pdoped-5percent\xtbopt.xyz" --sp
          coordinate file            : C:\Users\LENOVO GAMING\Documents\GitHub\molecular-conductivity-sim\results\2nm-9Pdoped-5percent\xtbopt.xyz
          omp threads                :                    16


           -------------------------------------------------
          |                 G F N 2 - x T B                 |
           -------------------------------------------------

        Reference                      10.1021/acs.jctc.8b01176
      * Hamiltonian:
        H0-scaling (s, p, d)           1.850000    2.230000    2.230000
        zeta-weighting                 0.500000
      * Dispersion:
        s8                             2.700000
        a1                             0.520000
        a2                             5.000000
        s9                             5.000000
      * Repulsion:
        kExp                           1.500000    1.000000
        rExp                           1.000000
      * Coulomb:
        alpha                          2.000000
        third order                    shell-resolved
        anisotropic                    true
        a3                             3.000000
        a5                             4.000000
        cn-shift                       1.200000
        cn-exp                         4.000000
        max-rad                        5.000000

q/qsh data taken from xtbrestart
CAMM data taken from xtbrestart

          ...................................................
          :                      SETUP                      :
          :.................................................:
          :  # basis functions                 769          :
          :  # atomic orbitals                 760          :
          :  # shells                          384          :
          :  # electrons                       724          :
          :  max. iterations                   250          :
          :  Hamiltonian                  GFN2-xTB          :
          :  restarted?                       true          :
          :  GBSA solvation                  false          :
          :  PC potential                    false          :
          :  electronic temp.          300.0000000     K    :
          :  accuracy                    1.0000000          :
          :  -> integral cutoff          0.2500000E+02      :
          :  -> integral neglect         0.1000000E-07      :
          :  -> SCF convergence          0.1000000E-05 Eh   :
          :  -> wf. convergence          0.1000000E-03 e    :
          :  Broyden damping             0.4000000          :
          :  net charge                          0          :
          :  unpaired electrons                  0          :
          ...................................................

 iter      E             dE          RMSdq      gap      omega  full diag
   1   -393.5353872 -0.393535E+03  0.233E-05    0.10       0.0  T
   2   -393.5353872  0.347961E-08  0.117E-04    0.10      59.9  T
   3   -393.5353872 -0.308478E-08  0.423E-05    0.10     165.2  T

   *** convergence criteria satisfied after 3 iterations ***

         #    Occupation            Energy/Eh            Energy/eV
      -------------------------------------------------------------
         1        2.0000           -0.7014133             -19.0864
       ...           ...                  ...                  ...
       356        2.0000           -0.3709498             -10.0941
       357        2.0000           -0.3644835              -9.9181
       358        2.0000           -0.3626541              -9.8683
       359        2.0000           -0.3493809              -9.5071
       360        1.9998           -0.3392871              -9.2325
       361        1.9916           -0.3358070              -9.1378
       362        1.7418           -0.3324216              -9.0457 (HOMO)
       363        0.2668           -0.3288303              -8.9479 (LUMO)
       364        0.0000           -0.3174163              -8.6373
       365                         -0.3130149              -8.5176
       366                         -0.3085153              -8.3951
       367                         -0.2956809              -8.0459
       ...                                ...                  ...
       760                          1.0594673              28.8296
      -------------------------------------------------------------
                  HL-Gap            0.0035913 Eh            0.0977 eV
             Fermi-level           -0.3306081 Eh           -8.9963 eV

 SCC (total)                   0 d,  0 h,  0 min,  0.613 sec
 SCC setup                      ...        0 min,  0.002 sec (  0.326%)
 Dispersion                     ...        0 min,  0.019 sec (  3.099%)
 classical contributions        ...        0 min,  0.000 sec (  0.000%)
 integral evaluation            ...        0 min,  0.051 sec (  8.320%)
 iterations                     ...        0 min,  0.378 sec ( 61.664%)
 molecular gradient             ...        0 min,  0.153 sec ( 24.959%)
 printout                       ...        0 min,  0.010 sec (  1.631%)

         :::::::::::::::::::::::::::::::::::::::::::::::::::::
         ::                     SUMMARY                     ::
         :::::::::::::::::::::::::::::::::::::::::::::::::::::
         :: total energy            -386.326594526375 Eh    ::
         :: gradient norm              0.000161971694 Eh/a0 ::
         :: HOMO-LUMO gap              0.097724109619 eV    ::
         ::.................................................::
         :: SCC energy              -393.549381907020 Eh    ::
         :: -> isotropic ES            0.006354607352 Eh    ::
         :: -> anisotropic ES          0.009362402109 Eh    ::
         :: -> anisotropic XC          0.130547696553 Eh    ::
         :: -> dispersion             -0.523963810292 Eh    ::
         :: repulsion energy           7.222787380646 Eh    ::
         :: add. restraining           0.000000000000 Eh    ::
         :: total charge              -0.000000000000 e     ::
         :::::::::::::::::::::::::::::::::::::::::::::::::::::

           -------------------------------------------------
          |                Property Printout                |
           -------------------------------------------------

    * Orbital Energies and Occupations

         #    Occupation            Energy/Eh            Energy/eV
      -------------------------------------------------------------
         1        2.0000           -0.7014133             -19.0864
       ...           ...                  ...                  ...
       350        2.0000           -0.3847328             -10.4691
       351        2.0000           -0.3833344             -10.4311
       352        2.0000           -0.3823289             -10.4037
       353        2.0000           -0.3771774             -10.2635
       354        2.0000           -0.3757913             -10.2258
       355        2.0000           -0.3739559             -10.1759
       356        2.0000           -0.3709498             -10.0941
       357        2.0000           -0.3644835              -9.9181
       358        2.0000           -0.3626541              -9.8683
       359        2.0000           -0.3493809              -9.5071
       360        1.9998           -0.3392871              -9.2325
       361        1.9916           -0.3358070              -9.1378
       362        1.7418           -0.3324216              -9.0457 (HOMO)
       363        0.2668           -0.3288303              -8.9479 (LUMO)
       364        0.0000           -0.3174163              -8.6373
       365                         -0.3130149              -8.5176
       366                         -0.3085153              -8.3951
       367                         -0.2956809              -8.0459
       368                         -0.2928557              -7.9690
       369                         -0.2910344              -7.9195
       370                         -0.2835351              -7.7154
       371                         -0.2783766              -7.5750
       372                         -0.2763909              -7.5210
       373                         -0.2721568              -7.4058
       ...                                ...                  ...
       760                          1.0594673              28.8296
      -------------------------------------------------------------
                  HL-Gap            0.0035913 Eh            0.0977 eV
             Fermi-level           -0.3306081 Eh           -8.9963 eV

     #   Z          covCN         q      C6AA      α(0)
     1   6 C        3.033    -0.034    28.820     8.806
     2   6 C        2.915    -0.029    28.732     8.790
     3   6 C        2.923    -0.037    28.911     8.818
     4   6 C        2.989     0.006    27.871     8.660
     5   6 C        2.921     0.006    27.882     8.659
     6   6 C        3.050     0.003    27.899     8.663
     7   6 C        2.979     0.002    27.978     8.676
     8   6 C        3.062    -0.041    28.948     8.823
     9   6 C        2.912     0.003    27.949     8.669
    10   6 C        3.033     0.005    27.881     8.661
    11   6 C        2.988     0.001    27.988     8.678
    12   6 C        3.033    -0.041    28.978     8.830
    13   6 C        2.975     0.013    27.726     8.637
    14   6 C        3.087     0.002    27.882     8.656
    15   6 C        2.928     0.003    27.963     8.672
    16   6 C        3.295    -0.042    27.279     8.373
    17   6 C        2.901     0.012    27.745     8.637
    18   6 C        2.927     0.002    27.986     8.676
    19   6 C        2.912     0.000    28.020     8.680
    20   6 C        3.126     0.004    27.734     8.623
    21   6 C        2.977     0.002    27.965     8.674
    22   6 C        3.127    -0.041    28.820     8.790
    23   6 C        2.914    -0.003    28.089     8.691
    24   6 C        3.019     0.001    27.982     8.677
    25   6 C        2.985     0.001    27.992     8.679
    26   6 C        2.923    -0.037    28.916     8.818
    27   6 C        2.985     0.012    27.743     8.640
    28   6 C        2.996     0.003    27.948     8.672
    29   6 C        2.980     0.006    27.873     8.660
    30   6 C        2.913    -0.029    28.718     8.787
    31   6 C        2.923    -0.038    28.944     8.823
    32   6 C        3.091     0.005    27.795     8.641
    33   6 C        2.919    -0.036    28.896     8.815
    34   6 C        3.052    -0.029    28.685     8.784
    35   6 C        2.912     0.003    27.965     8.672
    36   6 C        3.069     0.003    27.891     8.660
    37   6 C        2.928     0.005    27.920     8.665
    38   6 C        2.927     0.003    27.954     8.671
    39   6 C        2.982    -0.000    28.034     8.685
    40   6 C        2.974     0.003    27.958     8.673
    41   6 C        3.087     0.003    27.857     8.652
    42   6 C        2.994     0.000    28.014     8.682
    43   6 C        3.099     0.003    27.836     8.646
    44   6 C        2.992     0.000    28.013     8.682
    45   6 C        2.992     0.001    27.990     8.679
    46   6 C        2.990     0.000    28.015     8.682
    47   6 C        3.091     0.002    27.871     8.653
    48   6 C        2.980     0.002    27.984     8.677
    49   6 C        2.989     0.001    27.989     8.678
    50   6 C        2.988     0.000    28.012     8.682
    51   6 C        2.982    -0.002    28.075     8.691
    52   6 C        2.988     0.000    28.014     8.682
    53   6 C        2.988     0.001    28.000     8.680
    54   6 C        2.987    -0.001    28.040     8.686
    55   6 C        2.983    -0.001    28.044     8.687
    56   6 C        2.984     0.001    28.001     8.680
    57   6 C        2.992    -0.002    28.078     8.692
    58   6 C        3.106     0.002    27.843     8.646
    59   6 C        2.982     0.002    27.966     8.675
    60   6 C        2.984     0.004    27.935     8.670
    61   6 C        2.979     0.005    27.910     8.666
    62   6 C        3.108     0.007    27.709     8.624
    63   6 C        2.919    -0.035    28.870     8.811
    64   6 C        2.923    -0.040    28.990     8.830
    65   6 C        3.077     0.007    27.786     8.642
    66   6 C        2.919    -0.036    28.898     8.815
    67   6 C        2.919    -0.036    28.892     8.814
    68   6 C        3.075     0.007    27.789     8.643
    69   6 C        3.095     0.003    27.850     8.649
    70   6 C        2.977     0.002    27.973     8.676
    71   6 C        2.977     0.002    27.965     8.674
    72   6 C        3.088     0.003    27.861     8.652
    73   6 C        2.990    -0.002    28.059     8.689
    74   6 C        2.994     0.001    27.996     8.680
    75   6 C        2.994     0.001    28.002     8.680
    76   6 C        2.991    -0.002    28.063     8.690
    77   6 C        2.992     0.000    28.012     8.682
    78   6 C        2.992     0.001    28.003     8.681
    79   6 C        2.992     0.000    28.014     8.682
    80   6 C        2.994     0.000    28.010     8.682
    81   6 C        2.992    -0.001    28.036     8.686
    82   6 C        2.994     0.001    28.005     8.681
    83   6 C        2.993    -0.000    28.026     8.684
    84   6 C        2.992     0.001    28.002     8.680
    85   6 C        2.998    -0.000    28.024     8.684
    86   6 C        2.993     0.001    27.996     8.679
    87   6 C        2.990     0.000    28.009     8.681
    88   6 C        2.987     0.002    27.971     8.675
    89   6 C        2.931     0.001    28.008     8.679
    90   6 C        3.123     0.002    27.792     8.633
    91   6 C        2.979     0.003    27.960     8.674
    92   6 C        3.089     0.002    27.871     8.654
    93   6 C        2.912    -0.003    28.091     8.691
    94   6 C        2.933     0.007    27.860     8.656
    95   6 C        3.230     0.008    27.031     8.443
    96   6 C        3.067    -0.029    28.643     8.776
    97   6 C        2.936    -0.037    28.929     8.821
    98   6 C        2.911     0.004    27.940     8.667
    99   6 C        3.056    -0.029    28.681     8.783
   100   6 C        2.921    -0.036    28.898     8.815
   101   6 C        3.097     0.006    27.763     8.635
   102   6 C        2.928     0.002    27.981     8.675
   103   6 C        2.926     0.004    27.934     8.667
   104   6 C        3.066     0.004    27.867     8.656
   105   6 C        2.998     0.000    28.013     8.682
   106   6 C        3.102     0.003    27.822     8.643
   107   6 C        2.978     0.002    27.980     8.677
   108   6 C        2.986     0.001    28.006     8.681
   109   6 C        2.994     0.000    28.013     8.682
   110   6 C        2.994     0.001    27.994     8.679
   111   6 C        2.990     0.000    28.013     8.682
   112   6 C        2.993     0.001    28.003     8.680
   113   6 C        2.991     0.001    28.004     8.681
   114   6 C        2.994     0.000    28.011     8.682
   115   6 C        2.991     0.000    28.014     8.682
   116   6 C        2.990     0.001    28.003     8.681
   117   6 C        2.986     0.002    27.974     8.676
   118   6 C        2.989     0.000    28.015     8.682
   119   6 C        2.988     0.000    28.016     8.682
   120   6 C        2.985     0.000    28.015     8.682
   121   6 C        2.992    -0.002    28.058     8.689
   122   6 C        2.986     0.001    27.994     8.679
   123   6 C        2.987    -0.004    28.115     8.698
   124   6 C        2.985     0.001    27.997     8.679
   125   6 C        2.919    -0.014    28.364     8.734
   126   6 C        3.012     0.007    27.841     8.655
   127   6 C        2.977    -0.002    28.064     8.690
   128   6 C        3.037     0.013    27.685     8.630
   129   6 C        2.855    -0.037    28.925     8.815
   130   6 C        2.981     0.007    27.862     8.658
   131   6 C        2.922    -0.036    28.895     8.815
   132   6 C        2.913    -0.029    28.717     8.787
   133   6 C        2.923    -0.036    28.903     8.816
   134   6 C        2.988     0.001    28.007     8.681
   135   6 C        2.992     0.001    28.003     8.680
   136   6 C        2.985     0.013    27.722     8.637
   137   6 C        3.069    -0.041    28.950     8.823
   138   6 C        2.973     0.002    27.966     8.674
   139   6 C        3.025     0.005    27.894     8.663
   140   6 C        2.914     0.004    27.941     8.668
   141   6 C        2.993     0.001    27.984     8.678
   142   6 C        3.037     0.004    27.908     8.665
   143   6 C        2.917     0.004    27.932     8.667
   144   6 C        3.055    -0.041    28.955     8.825
   145   6 C        2.990     0.000    28.009     8.681
   146   6 C        2.995     0.000    28.016     8.683
   147   6 C        2.985     0.011    27.773     8.645
   148   6 C        3.080    -0.038    28.847     8.805
   149   6 C        2.974     0.001    27.992     8.678
   150   6 C        3.014     0.004    27.911     8.666
   151   6 C        2.915     0.005    27.913     8.664
   152   6 C        2.990    -0.000    28.020     8.683
   153   6 C        3.026     0.005    27.894     8.663
   154   6 C        2.917     0.004    27.940     8.668
   155   6 C        3.061    -0.038    28.888     8.814
   156   6 C        2.991     0.005    27.903     8.665
   157   6 C        3.002     0.003    27.942     8.671
   158   6 C        2.987     0.011    27.764     8.643
   159   6 C        2.920    -0.035    28.869     8.811
   160   6 C        2.923    -0.036    28.889     8.814
   161   6 C        2.915    -0.029    28.714     8.787
   162   1 H        0.925     0.037     2.495     2.470
   163   1 H        0.926     0.034     2.527     2.486
   164   1 H        0.926     0.037     2.487     2.466
   165   1 H        0.977     0.050     2.310     2.375
   166   1 H        0.925     0.037     2.494     2.470
   167   1 H        0.925     0.036     2.498     2.471
   168   1 H        0.925     0.042     2.428     2.436
   169   1 H        0.925     0.042     2.425     2.435
   170   1 H        0.926     0.034     2.529     2.487
   171   1 H        0.926     0.036     2.502     2.474
   172   1 H        0.925     0.035     2.521     2.483
   173   1 H        0.926     0.034     2.533     2.489
   174   1 H        0.926     0.034     2.535     2.490
   175   1 H        0.925     0.034     2.529     2.487
   176   1 H        0.926     0.036     2.509     2.477
   177   1 H        0.926     0.035     2.517     2.481
   178   1 H        0.926     0.032     2.553     2.498
   179   1 H        0.926     0.034     2.534     2.489
   180   1 H        0.925     0.037     2.486     2.466
   181   1 H        0.977     0.052     2.292     2.366
   182   1 H        0.925     0.039     2.467     2.456
   183   1 H        0.925     0.043     2.407     2.426
   184   1 H        0.976     0.045     2.372     2.407
   185   1 H        0.925     0.044     2.399     2.422
   186   1 H        0.926     0.036     2.509     2.477
   187   1 H        0.926     0.034     2.536     2.490
   188   1 H        0.926     0.031     2.566     2.505
   189   1 H        0.926     0.034     2.535     2.490
   190   1 H        0.926     0.038     2.475     2.460
   191   1 H        0.926     0.035     2.522     2.483
   192   1 H        0.925     0.040     2.444     2.445
   193   1 H        0.927     0.064     2.147     2.292
   194   1 H        0.976     0.049     2.321     2.381
   195   1 H        0.927     0.043     2.405     2.425
   196   1 H        0.926     0.035     2.511     2.478
   197  15 P        3.085    -0.133   166.283    23.165
   198  15 P        3.225    -0.112   165.290    23.095
   199  15 P        2.415    -0.041   173.010    24.354
   200  15 P        3.543    -0.044   162.170    22.876
   201  15 P        3.678     0.028   158.978    22.649
   202  15 P        3.534    -0.045   162.256    22.882
   203  15 P        3.217    -0.080   163.843    22.994
   204  15 P        3.232    -0.084   164.029    23.007
   205  15 P        3.547    -0.047   162.322    22.886

 Mol. C6AA /au·bohr⁶  :    1046427.405562
 Mol. C8AA /au·bohr⁸  :   31738061.339789
 Mol. α(0) /au        :       1693.449572


Wiberg/Mayer (AO) data.
largest (>0.10) Wiberg bond orders for each atom

 ---------------------------------------------------------------------------
     #   Z sym  total        # sym  WBO       # sym  WBO       # sym  WBO
 ---------------------------------------------------------------------------
     1   6 C    3.978 --     5 C    1.445     2 C    1.381   162 H    0.962
     2   6 C    3.974 --     3 C    1.490     1 C    1.381   163 H    0.969
     3   6 C    3.982 --     2 C    1.490     4 C    1.331   164 H    0.961
     4   6 C    3.972 --     3 C    1.331     6 C    1.278    32 C    1.156
     5   6 C    3.968 --     1 C    1.445     6 C    1.288   203 P    1.039
     6   6 C    3.981 --     5 C    1.288     4 C    1.278     7 C    1.171
     7   6 C    3.935 --    36 C    1.285    10 C    1.255     6 C    1.171
     8   6 C    3.957 --     9 C    1.543    13 C    1.240   166 H    0.957
     9   6 C    3.926 --     8 C    1.543    10 C    1.185   203 P    1.038
    10   6 C    3.947 --    11 C    1.277     7 C    1.255     9 C    1.185
    11   6 C    3.963 --    10 C    1.277    39 C    1.229    14 C    1.229
    12   6 C    3.877 --    13 C    1.402    17 C    1.287   167 H    0.958
    13   6 C    3.938 --    12 C    1.402     8 C    1.240    14 C    1.138
    14   6 C    3.956 --    15 C    1.360    11 C    1.229    13 C    1.138
    15   6 C    3.914 --    14 C    1.360    43 C    1.262   200 P    1.045
    16   6 C    3.878 --    17 C    1.463    19 C    1.246   168 H    0.949
    17   6 C    3.957 --    16 C    1.463    12 C    1.287   200 P    1.013
    18   6 C    3.929 --    20 C    1.359    47 C    1.272   200 P    1.037
    19   6 C    3.964 --   199 P    1.445    16 C    1.246    20 C    1.144
    20   6 C    3.950 --    18 C    1.359    21 C    1.222    19 C    1.144
    21   6 C    3.961 --    51 C    1.266    24 C    1.246    20 C    1.222
    22   6 C    3.889 --    23 C    1.468    27 C    1.273   169 H    0.958
    23   6 C    3.980 --    22 C    1.468    24 C    1.200   199 P    1.149
    24   6 C    3.941 --    25 C    1.283    21 C    1.246    23 C    1.200
    25   6 C    3.974 --    24 C    1.283    28 C    1.234    55 C    1.231
    26   6 C    3.918 --    30 C    1.483    27 C    1.300   170 H    0.968
    27   6 C    3.985 --    26 C    1.300    22 C    1.273    28 C    1.241
    28   6 C    3.958 --    29 C    1.262    27 C    1.241    25 C    1.234
    29   6 C    3.978 --    31 C    1.378    28 C    1.262    59 C    1.146
    30   6 C    3.982 --    26 C    1.483    31 C    1.405   188 H    0.970
    31   6 C    3.918 --    30 C    1.405    29 C    1.378   189 H    0.962
    32   6 C    3.964 --    37 C    1.421    33 C    1.173     4 C    1.156
    33   6 C    3.872 --    34 C    1.604    32 C    1.173   171 H    0.962
    34   6 C    3.965 --    33 C    1.604    35 C    1.231   172 H    0.953
    35   6 C    3.834 --    65 C    1.367    34 C    1.231   202 P    1.044
    36   6 C    3.961 --     7 C    1.285    40 C    1.229    37 C    1.214
    37   6 C    3.920 --    32 C    1.421    36 C    1.214   202 P    1.031
    38   6 C    3.896 --    69 C    1.320    41 C    1.299   202 P    1.039
    39   6 C    3.975 --    40 C    1.295    11 C    1.229    44 C    1.224
    40   6 C    3.926 --    39 C    1.295    36 C    1.229    41 C    1.178
    41   6 C    3.954 --    38 C    1.299    42 C    1.253    40 C    1.178
    42   6 C    3.962 --    73 C    1.258    41 C    1.253    45 C    1.228
    43   6 C    3.950 --    15 C    1.262    44 C    1.261    48 C    1.204
    44   6 C    3.955 --    43 C    1.261    45 C    1.247    39 C    1.224
    45   6 C    3.957 --    46 C    1.265    44 C    1.247    42 C    1.228
    46   6 C    3.948 --    45 C    1.265    77 C    1.246    49 C    1.224
    47   6 C    3.947 --    18 C    1.272    52 C    1.262    48 C    1.190
    48   6 C    3.923 --    49 C    1.309    43 C    1.204    47 C    1.190
    49   6 C    3.968 --    48 C    1.309    46 C    1.224    50 C    1.219
    50   6 C    3.954 --    53 C    1.274    81 C    1.246    49 C    1.219
    51   6 C    3.974 --    21 C    1.266    52 C    1.247    56 C    1.230
    52   6 C    3.956 --    47 C    1.262    51 C    1.247    53 C    1.229
    53   6 C    3.954 --    50 C    1.274    54 C    1.237    52 C    1.229
    54   6 C    3.968 --    85 C    1.256    57 C    1.251    53 C    1.237
    55   6 C    3.946 --    56 C    1.298    25 C    1.231    60 C    1.201
    56   6 C    3.967 --    55 C    1.298    51 C    1.230    57 C    1.217
    57   6 C    3.952 --    58 C    1.264    54 C    1.251    56 C    1.217
    58   6 C    3.961 --    89 C    1.281    57 C    1.264    61 C    1.186
    59   6 C    3.918 --    63 C    1.330    60 C    1.266    29 C    1.146
    60   6 C    3.980 --    61 C    1.289    59 C    1.266    55 C    1.201
    61   6 C    3.930 --    60 C    1.289    62 C    1.229    58 C    1.186
    62   6 C    3.960 --    64 C    1.309    61 C    1.229    93 C    1.204
    63   6 C    3.967 --    64 C    1.503    59 C    1.330   190 H    0.959
    64   6 C    3.929 --    63 C    1.503    62 C    1.309   191 H    0.963
    65   6 C    3.964 --    35 C    1.367    66 C    1.219    70 C    1.150
    66   6 C    3.950 --    67 C    1.610    65 C    1.219   173 H    0.960
    67   6 C    3.954 --    66 C    1.610    68 C    1.222   174 H    0.960
    68   6 C    3.962 --    98 C    1.358    67 C    1.222    71 C    1.149
    69   6 C    3.958 --    38 C    1.320    74 C    1.257    70 C    1.153
    70   6 C    3.954 --    71 C    1.424    69 C    1.153    65 C    1.150
    71   6 C    3.955 --    70 C    1.424    72 C    1.155    68 C    1.149
    72   6 C    3.957 --   102 C    1.316    75 C    1.259    71 C    1.155
    73   6 C    3.973 --    42 C    1.258    74 C    1.255    78 C    1.232
    74   6 C    3.956 --    69 C    1.257    73 C    1.255    75 C    1.223
    75   6 C    3.958 --    72 C    1.259    76 C    1.254    74 C    1.223
    76   6 C    3.972 --   105 C    1.259    75 C    1.254    79 C    1.231
    77   6 C    3.954 --    78 C    1.257    46 C    1.246    82 C    1.240
    78   6 C    3.957 --    77 C    1.257    79 C    1.254    73 C    1.232
    79   6 C    3.954 --    80 C    1.256    78 C    1.254    76 C    1.231
    80   6 C    3.956 --    79 C    1.256    83 C    1.251   109 C    1.236
    81   6 C    3.951 --    86 C    1.252    50 C    1.246    82 C    1.242
    82   6 C    3.955 --    83 C    1.261    81 C    1.242    77 C    1.240
    83   6 C    3.958 --    82 C    1.261    80 C    1.251    84 C    1.232
    84   6 C    3.958 --    87 C    1.269   113 C    1.243    83 C    1.232
    85   6 C    3.960 --    54 C    1.256    86 C    1.245    90 C    1.236
    86   6 C    3.961 --    81 C    1.252    85 C    1.245    87 C    1.245
    87   6 C    3.950 --    84 C    1.269    86 C    1.245    88 C    1.221
    88   6 C    3.968 --    91 C    1.298   117 C    1.232    87 C    1.221
    89   6 C    3.896 --    90 C    1.292    58 C    1.281   201 P    1.069
    90   6 C    3.963 --    89 C    1.292    85 C    1.236    91 C    1.202
    91   6 C    3.924 --    88 C    1.298    90 C    1.202    92 C    1.194
    92   6 C    3.973 --    94 C    1.302   121 C    1.243    91 C    1.194
    93   6 C    3.784 --    96 C    1.304    62 C    1.204   201 P    1.083
    94   6 C    3.894 --    92 C    1.302    95 C    1.262   201 P    1.077
    95   6 C    3.973 --   125 C    1.311    94 C    1.262    97 C    1.190
    96   6 C    3.972 --    97 C    1.526    93 C    1.304   192 H    0.956
    97   6 C    3.839 --    96 C    1.526    95 C    1.190   193 H    0.933
    98   6 C    3.841 --    68 C    1.358    99 C    1.250   205 P    1.039
    99   6 C    3.959 --   100 C    1.577    98 C    1.250   175 H    0.954
   100   6 C    3.872 --    99 C    1.577   101 C    1.195   176 H    0.960
   101   6 C    3.955 --   103 C    1.395   100 C    1.195   130 C    1.151
   102   6 C    3.900 --    72 C    1.316   106 C    1.301   205 P    1.044
   103   6 C    3.917 --   101 C    1.395   104 C    1.241   205 P    1.030
   104   6 C    3.956 --   107 C    1.257   103 C    1.241   134 C    1.229
   105   6 C    3.960 --    76 C    1.259   106 C    1.258   110 C    1.221
   106   6 C    3.957 --   102 C    1.301   105 C    1.258   107 C    1.170
   107   6 C    3.929 --   108 C    1.276   104 C    1.257   106 C    1.170
   108   6 C    3.972 --   107 C    1.276   138 C    1.269   111 C    1.205
   109   6 C    3.957 --   110 C    1.262   114 C    1.243    80 C    1.236
   110   6 C    3.956 --   109 C    1.262   111 C    1.257   105 C    1.221
   111   6 C    3.951 --   112 C    1.273   110 C    1.257   108 C    1.205
   112   6 C    3.955 --   111 C    1.273   115 C    1.252   141 C    1.216
   113   6 C    3.946 --   118 C    1.248   114 C    1.247    84 C    1.243
   114   6 C    3.963 --   115 C    1.257   113 C    1.247   109 C    1.243
   115   6 C    3.955 --   114 C    1.257   112 C    1.252   116 C    1.231
   116   6 C    3.959 --   119 C    1.274   145 C    1.236   115 C    1.231
   117   6 C    3.935 --   118 C    1.263   122 C    1.236    88 C    1.232
   118   6 C    3.959 --   117 C    1.263   113 C    1.248   119 C    1.234
   119   6 C    3.961 --   116 C    1.274   120 C    1.234   118 C    1.234
   120   6 C    3.969 --   149 C    1.279   123 C    1.234   119 C    1.234
   121   6 C    3.953 --   122 C    1.257    92 C    1.243   126 C    1.220
   122   6 C    3.969 --   121 C    1.257   123 C    1.251   117 C    1.236
   123   6 C    3.941 --   122 C    1.251   124 C    1.246   120 C    1.234
   124   6 C    3.975 --   127 C    1.322   123 C    1.246   152 C    1.178
   125   6 C    3.881 --    95 C    1.311   126 C    1.298   197 P    1.044
   126   6 C    3.973 --   125 C    1.298   127 C    1.233   121 C    1.220
   127   6 C    3.896 --   124 C    1.322   126 C    1.233   128 C    1.135
   128   6 C    3.981 --   129 C    1.599   127 C    1.135   156 C    1.083
   129   6 C    3.882 --   128 C    1.599   197 P    1.125   195 H    0.944
   130   6 C    3.978 --   131 C    1.371   135 C    1.255   101 C    1.151
   131   6 C    3.937 --   132 C    1.423   130 C    1.371   177 H    0.961
   132   6 C    3.980 --   133 C    1.462   131 C    1.423   178 H    0.970
   133   6 C    3.939 --   132 C    1.462   136 C    1.327   179 H    0.968
   134   6 C    3.969 --   139 C    1.268   135 C    1.242   104 C    1.229
   135   6 C    3.986 --   130 C    1.255   136 C    1.250   134 C    1.242
   136   6 C    3.985 --   133 C    1.327   135 C    1.250   137 C    1.234
   137   6 C    3.963 --   140 C    1.550   136 C    1.234   180 H    0.957
   138   6 C    3.932 --   108 C    1.269   139 C    1.254   142 C    1.192
   139   6 C    3.953 --   134 C    1.268   138 C    1.254   140 C    1.202
   140   6 C    3.976 --   137 C    1.550   139 C    1.202   204 P    1.036
   141   6 C    3.969 --   142 C    1.282   146 C    1.249   112 C    1.216
   142   6 C    3.951 --   141 C    1.282   143 C    1.247   138 C    1.192
   143   6 C    3.954 --   144 C    1.486   142 C    1.247   204 P    1.040
   144   6 C    3.952 --   143 C    1.486   147 C    1.289   182 H    0.958
   145   6 C    3.967 --   150 C    1.269   146 C    1.240   116 C    1.236
   146   6 C    3.981 --   147 C    1.253   141 C    1.249   145 C    1.240
   147   6 C    3.964 --   144 C    1.289   146 C    1.253   148 C    1.252
   148   6 C    3.958 --   151 C    1.533   147 C    1.252   183 H    0.958
   149   6 C    3.924 --   120 C    1.279   150 C    1.237   153 C    1.198
   150   6 C    3.948 --   145 C    1.269   149 C    1.237   151 C    1.220
   151   6 C    3.959 --   148 C    1.533   150 C    1.220   198 P    1.033
   152   6 C    3.960 --   153 C    1.332   157 C    1.225   124 C    1.178
   153   6 C    3.956 --   152 C    1.332   154 C    1.200   149 C    1.198
   154   6 C    3.976 --   155 C    1.556   153 C    1.200   198 P    1.036
   155   6 C    3.970 --   154 C    1.556   158 C    1.238   185 H    0.958
   156   6 C    3.980 --   160 C    1.426   157 C    1.267   128 C    1.083
   157   6 C    3.986 --   156 C    1.267   158 C    1.255   152 C    1.225
   158   6 C    3.979 --   159 C    1.310   157 C    1.255   155 C    1.238
   159   6 C    3.971 --   161 C    1.498   158 C    1.310   186 H    0.968
   160   6 C    3.978 --   156 C    1.426   161 C    1.382   196 H    0.964
   161   6 C    3.979 --   159 C    1.498   160 C    1.382   187 H    0.970
   162   1 H    0.998 --     1 C    0.962
   163   1 H    0.997 --     2 C    0.969
   164   1 H    0.998 --     3 C    0.961
   165   1 H    0.991 --   203 P    0.940
   166   1 H    0.997 --     8 C    0.957
   167   1 H    0.997 --    12 C    0.958
   168   1 H    0.996 --    16 C    0.949
   169   1 H    0.997 --    22 C    0.958
   170   1 H    0.998 --    26 C    0.968
   171   1 H    0.998 --    33 C    0.962
   172   1 H    0.996 --    34 C    0.953
   173   1 H    0.997 --    66 C    0.960
   174   1 H    0.997 --    67 C    0.960
   175   1 H    0.996 --    99 C    0.954
   176   1 H    0.998 --   100 C    0.960
   177   1 H    0.998 --   131 C    0.961
   178   1 H    0.997 --   132 C    0.970
   179   1 H    0.998 --   133 C    0.968
   180   1 H    0.997 --   137 C    0.957
   181   1 H    0.991 --   204 P    0.939
   182   1 H    0.997 --   144 C    0.958
   183   1 H    0.997 --   148 C    0.958
   184   1 H    0.988 --   198 P    0.932
   185   1 H    0.997 --   155 C    0.958
   186   1 H    0.998 --   159 C    0.968
   187   1 H    0.998 --   161 C    0.970
   188   1 H    0.998 --    30 C    0.970
   189   1 H    0.998 --    31 C    0.962
   190   1 H    0.997 --    63 C    0.959
   191   1 H    0.998 --    64 C    0.963
   192   1 H    0.996 --    96 C    0.956
   193   1 H    0.995 --    97 C    0.933
   194   1 H    0.964 --   197 P    0.903
   195   1 H    0.996 --   129 C    0.944
   196   1 H    0.998 --   160 C    0.964
   197  15 P    3.373 --   129 C    1.125   125 C    1.044   194 H    0.903
   198  15 P    3.245 --   154 C    1.036   151 C    1.033   184 H    0.932
   199  15 P    2.970 --    19 C    1.445    23 C    1.149
   200  15 P    3.533 --    15 C    1.045    18 C    1.037    17 C    1.013
   201  15 P    3.634 --    93 C    1.083    94 C    1.077    89 C    1.069
   202  15 P    3.507 --    35 C    1.044    38 C    1.039    37 C    1.031
   203  15 P    3.300 --     5 C    1.039     9 C    1.038   165 H    0.940
   204  15 P    3.296 --   143 C    1.040   140 C    1.036   181 H    0.939
   205  15 P    3.510 --   102 C    1.044    98 C    1.039   103 C    1.030
 ---------------------------------------------------------------------------

Topologies differ in total number of bonds
Writing topology from bond orders to xtbtopo.mol

molecular dipole:
                 x           y           z       tot (Debye)
 q only:       -0.011       0.091      -0.130
   full:       -0.184      -0.258      -0.467       1.435
molecular quadrupole (traceless):
                xx          xy          yy          xz          yz          zz
 q only:      -10.782      -1.123      48.661      -5.441       6.476     -37.879
  q+dip:        0.652      -9.241      96.116     -12.766      11.775     -96.769
   full:      -24.120     -10.911      71.139     -13.338       9.379     -47.019


           -------------------------------------------------
          | TOTAL ENERGY             -386.326594526375 Eh   |
          | GRADIENT NORM               0.000161971694 Eh/α |
          | HOMO-LUMO GAP               0.097724109619 eV   |
           -------------------------------------------------

------------------------------------------------------------------------
 * finished run on 2025/12/08 at 00:54:10.343     
------------------------------------------------------------------------
 total:
 * wall-time:     0 d,  0 h,  0 min,  0.745 sec
 *  cpu-time:     0 d,  0 h,  0 min, 10.000 sec
 * ratio c/w:    13.423 speedup
 SCF:
 * wall-time:     0 d,  0 h,  0 min,  0.619 sec
 *  cpu-time:     0 d,  0 h,  0 min,  8.391 sec
 * ratio c/w:    13.555 speedup

normal termination of xtb
