205
 energy: -386.326594523690 gnorm: 0.000163147523 xtb: 6.7.1pre (5071a88)
C           11.34791574517275       -6.52133401595740        0.26441846650930
C           10.82179653949447       -7.78705396964040        0.05001984349966
C            9.48161624664990       -7.99692540654389        0.26034332568557
C            8.62446189033136       -6.94674007224104        0.62144504075697
C           10.51555261977611       -5.45651526582165        0.55101054729596
C            9.11693503821076       -5.61711421207910        0.65474351625380
C            8.19888862104828       -4.50076554730693        0.69472454716841
C           10.38767675843740       -1.54379126726752        0.03201934348784
C            9.99874942271839       -2.79907426826901        0.39006294966893
C            8.61962028735674       -3.17094290149665        0.43978534164847
C            7.65700227206162       -2.17057381944876        0.17022084265267
C            9.94270129718633        0.74248080505742       -0.57281466777601
C            9.47115363795679       -0.54648925337236       -0.36155862802716
C            8.06788860913756       -0.89329130355361       -0.30787815480649
C            7.09876548223875        0.04364204298083       -0.64993895193420
C            9.42478811993297        3.15011339280077       -0.88401462283605
C            9.12718451053009        1.81737624245194       -0.94748665049373
C            6.54401046678243        2.69545102003046       -0.98390257225916
C            8.47693384389172        4.20154246694528       -1.05530026212230
C            7.04257033649290        3.99975117174355       -0.96595940115437
C            6.11941292280513        5.07561587806030       -0.77405073407256
C            8.16312534550538        8.13012936585655       -1.50974511760059
C            7.83813022000871        6.82155941058979       -1.23290075332842
C            6.49887432602538        6.44115156149227       -0.91249981414001
C            5.54134675900663        7.47561583681248       -0.77680630454132
C            7.54951594854163       10.47690656480296       -1.79207512067916
C            7.21329585676861        9.15706901440592       -1.45603233128373
C            5.90133662548058        8.82906363126114       -1.03185862026881
C            4.95795747649364        9.87272493752086       -0.89629805386414
C            6.59782948705027       11.46350870961552       -1.72605243274335
C            5.31931691383866       11.16453050063571       -1.28026160561009
C            7.26865503927227       -7.17802832986584        1.03471786258254
C            6.76259695717846       -8.50762488089383        1.23070920550681
C            5.44484873079087       -8.84690004320299        1.27726330327798
C            4.39686284658886       -7.89176203518979        1.33772633560619
C            6.81839071633046       -4.75195974014425        0.87772479065025
C            6.44799714339321       -6.08158216083430        1.21428472990632
C            3.87862849578764       -5.25332013923225        1.08652274000956
C            6.26254838898083       -2.44397628641562        0.29131547766527
C            5.83167671091655       -3.73069152213403        0.69270591379214
C            4.41282005456718       -4.00208958229400        0.72976370340415
C            3.48609739400918       -2.99629151402695        0.36505689439364
C            5.73101618427822       -0.11995910738779       -0.37404158100099
C            5.31359909536807       -1.40675480701569        0.04031272272539
C            3.92998889976316       -1.67528350406076        0.11329763326247
C            3.00212223934659       -0.62690284935771       -0.05747233482184
C            5.22054784951421        2.34660517061467       -0.65109036229030
C            4.80995879982789        0.97700296038314       -0.46976044405105
C            3.44791246079667        0.71092194396031       -0.24297605144351
C            2.50506499903887        1.77459271870531       -0.18528743224403
C            4.75519603736127        4.76151745636652       -0.52378085115406
C            4.31071378781466        3.41092207400889       -0.44029926882770
C            2.93950964589931        3.11651515241993       -0.21707303181483
C            2.00712926699706        4.16580382917929       -0.01675788628688
C            4.20146350224144        7.16390127202445       -0.41407207482256
C            3.81509370679043        5.81316361855762       -0.32019960517496
C            2.46083912869132        5.50813140628803       -0.01305296545230
C            1.56801122774455        6.53574715549499        0.36726689562432
C            3.65673026926167        9.56474881077212       -0.36493243092363
C            3.26463425775949        8.21784781931830       -0.15485816917607
C            1.95857814129371        7.92235391920514        0.31846066848888
C            1.06166458023953        9.01038338795505        0.59434330444462
C            2.77293341523406       10.59412707263008       -0.03122089359715
C            1.51595154481093       10.32460483527409        0.42474637810133
C            3.04882699499971       -8.08803800525415        1.05598588434221
C            2.58410101034365       -9.39242567807911        0.74727537076320
C            1.26717883430862       -9.67022142870440        0.63989233546314
C            0.27643017118102       -8.67212494016851        0.82340731005309
C            2.54320279416660       -5.63058688367475        0.88520588311427
C            2.08669300961079       -7.00263453989477        0.99761662503052
C            0.72455391508443       -7.29113970005512        0.88469411754760
C           -0.21545052233473       -6.21174703624994        0.66554562525658
C            2.10448761568024       -3.29458089938937        0.31464773024714
C            1.63892463319650       -4.61750247870636        0.49753048260101
C            0.25641132273393       -4.90832235261046        0.39538228134105
C           -0.66813179747736       -3.86963460414158        0.14046388810376
C            1.61877829560163       -0.91336856673818       -0.00887308663587
C            1.17179327975398       -2.24735192565252        0.10924145103267
C           -0.21003741773142       -2.53188444458378        0.04833532130517
C           -1.14287243227796       -1.47862765367457       -0.06016073338780
C            1.12599505735878        1.48178498110436       -0.06516901761680
C            0.67960858795851        0.14178526300131       -0.05238393357127
C           -0.70167739323965       -0.13827619364963       -0.04160260997593
C           -1.64488895060868        0.91704729945399        0.01480863659990
C            0.63626776302089        3.85774793677991        0.16615198653145
C            0.18539996353300        2.52490368526944        0.07308347919678
C           -1.20017702133005        2.24687962295796        0.14554966749415
C           -2.14248307230637        3.29296396783535        0.34820076481551
C            0.26599868878804        6.14836936174566        0.73555396018248
C           -0.28210928079741        4.87304161625407        0.52909387708900
C           -1.69138343534459        4.59947122882833        0.62436177795619
C           -2.68137594360483        5.61525250873642        0.85364994162738
C           -0.29732474548007        8.81807428881954        0.97829778794108
C           -2.30830816307417        6.93010114953515        1.15076844853946
C           -3.19848055064939        8.01646729801646        1.11712030147646
C           -1.36883216944387        9.72571210034484        0.93627406742343
C           -2.68318525316557        9.35325775216885        1.07903340402964
C           -1.06547383348890       -9.04496972843863        0.87849625911449
C           -1.62449049676749      -10.32717182806822        0.66000173633370
C           -2.95588530429554      -10.54739820665494        0.44839583003129
C           -3.93268572171015       -9.53740620598977        0.16929090301543
C           -1.60242685248603       -6.41421813247483        0.64120263725975
C           -3.62183041411880       -8.19937224476231        0.36105671737327
C           -4.38098706398453       -7.11795017273748       -0.14517767777119
C           -2.04617849449665       -4.14779852719833       -0.00039144385828
C           -2.52858658807140       -5.45978680261127        0.19179044558873
C           -3.90194741473052       -5.78064770280872       -0.11998065313548
C           -4.76905109895961       -4.74125971893006       -0.54125487127853
C           -2.52464233846885       -1.75932487352535       -0.16471099579095
C           -2.96831169991414       -3.09546162219816       -0.21212450955171
C           -4.32856205225802       -3.38702343074331       -0.44244412517897
C           -5.24298278786237       -2.32498541155320       -0.57651458386410
C           -3.02846327826190        0.63406333891043       -0.04364355055496
C           -3.46109928411703       -0.70188748299136       -0.19735838742785
C           -4.83011661438093       -0.98724200936299       -0.37724994001711
C           -5.77094877662639        0.07405376453190       -0.37190803107457
C           -3.53443364518167        3.00421728389053        0.28734402934659
C           -3.97297698786958        1.68310619745493        0.04354957738536
C           -5.35466078580732        1.39655503634761       -0.11256178339383
C           -6.32003957556987        2.43104482702687        0.01218581256671
C           -4.07176629118868        5.35214072168933        0.72555882647772
C           -4.49935569303505        4.03059389529715        0.45886718442368
C           -5.88091777614638        3.73680214392964        0.36437720813807
C           -6.82213885755024        4.75039603478722        0.66825810195736
C           -4.56910025184602        7.74218431059539        0.98812124797913
C           -5.02524694946685        6.40671604923814        0.90296555693231
C           -6.40646148801167        6.05945115338037        0.96890587882038
C           -7.40818235167007        7.04671906413016        1.30383656594195
C           -7.21709948642024        8.38466107875301        1.18454553050204
C           -5.20291929826045       -9.85478501272580       -0.42815107871045
C           -5.66900945995885      -11.16484510530797       -0.55003246128406
C           -6.90412029086254      -11.45104979205570       -1.10399721127531
C           -7.70284817104848      -10.43068312742347       -1.56567499350312
C           -5.62469261402223       -7.42065733952817       -0.76428141184753
C           -6.02652417875772       -8.78481514314130       -0.87208571965191
C           -7.27692372605184       -9.10323529087002       -1.45864336345739
C           -8.06128332723651       -8.05076803616902       -1.97271709971851
C           -6.06399633947150       -5.01671174267370       -1.05401359063559
C           -6.45112120170812       -6.37325946183935       -1.24728468216505
C           -7.67206433575488       -6.74784192560429       -1.88446719876226
C           -6.58610572826178       -2.60029138883586       -0.93386174633273
C           -6.95927481059521       -3.91625085141634       -1.29774745383597
C           -8.25363718351471       -4.08796952202564       -1.84879242960110
C           -9.16402646252857       -3.06141996272838       -1.86225765934185
C           -7.13405148637790       -0.19979526946856       -0.64129087279440
C           -7.51183285045180       -1.52704584367149       -0.98230135473532
C           -8.83737822932334       -1.78800155759445       -1.38585539780869
C           -9.76943273187545       -0.73760928068823       -1.37463074268048
C           -7.69283910717041        2.15693329702116       -0.20177505918037
C           -8.08838665753647        0.84898940626835       -0.61139313035355
C           -9.41905238610167        0.52979540273993       -1.00430403983935
C           -8.21397700037187        4.41203049388200        0.63410826304091
C           -8.64427108033531        3.18328180393049        0.10905235029390
C          -10.05371512062656        2.99334301555499       -0.01933347168309
C          -10.94663003870667        3.81355123226800        0.60575151402825
C           -8.74330026862063        6.58369805007432        1.65115083491845
C           -9.15828697994901        5.32376186906621        1.17880128436297
C          -10.52226580345621        4.97051190574235        1.29095309038436
C          -11.40603420959354        5.80055941732615        1.99478454148972
C           -9.62694034093568        7.35678427667931        2.38775767288055
C          -10.94692056065511        6.95688215524281        2.57523831855047
H           12.41428157585157       -6.35348465768270        0.19694673744283
H           11.46614946703466       -8.60385544653136       -0.23882803384672
H            9.08631109520689       -8.99238945301015        0.13981077869197
H           12.15131099342008       -3.78533003609058       -0.07338702129412
H           11.44125364290161       -1.29413371337293        0.04664983430376
H           10.97549217540542        0.94830944524722       -0.31948936804684
H           10.43787372845192        3.45922169316122       -0.64776820150250
H            9.18441030758843        8.37187432335907       -1.77365639051843
H            8.55767842631004       10.69311843496381       -2.11249816677544
H            7.47847541480645       -9.31474988151272        1.22840754362150
H            5.20453148675466       -9.89928724564449        1.21412249216759
H            3.30049033384083      -10.19069423866779        0.64243007994059
H            0.95812146920222      -10.68587232711331        0.45441846992408
H           -0.97256919572763      -11.18717865865075        0.59095659287287
H           -3.25419125654841      -11.57505487224283        0.31192369156736
H           -5.07166128224979      -11.98765788197167       -0.19267707875265
H           -7.23338842172508      -12.47716563882433       -1.17599339557800
H           -8.66120909979439      -10.63826172505047       -2.01819959811571
H           -8.99173905060779       -8.29476305011411       -2.47007079218808
H           -9.89298496424434       -5.83699948152401       -2.13398547241420
H          -10.15090950010562       -3.22939956080911       -2.27370859174420
H          -10.78803604863341       -0.93976553394599       -1.67834364004794
H          -10.25590424171619        2.35139194827911       -2.28524897134182
H          -12.00432598201738        3.59576205551327        0.54475214704246
H          -12.44221896865249        5.50857442218549        2.08074747309263
H          -11.61240562074241        7.57726195725028        3.15714460059208
H            6.83927758440494       12.47696999643614       -2.01102853323339
H            4.59836859269353       11.96465842601721       -1.24928435042907
H            3.08072766834277       11.62308370507143       -0.11002275184015
H            0.86231542976559       11.14109222148459        0.68640905370135
H           -1.17834370534399       10.76162337399082        0.68978343308765
H           -3.42905268391059       10.13690104923658        1.01377846606098
H           -5.68409416778293        9.44243741273646       -0.37621743357362
H           -8.05452209161012        9.05371174529740        1.33695066478480
H           -9.29147678257176        8.27892488656181        2.83773422328805
P           -5.65120503207927        9.19980721938251        1.01627299799424
P          -10.76579368129986        1.74113589436498       -1.11869054111315
P            9.24476171799156        5.73577483719694       -1.22969324502251
P            7.55457348324769        1.40525803019322       -1.70863704156032
P           -0.67485286764486        7.26469286385165        1.70886175012820
P            4.89557539477756       -6.33702603112704        2.06743045013012
P           11.28796862581189       -3.89516083923416        1.02450282626939
P           -8.68817862508371       -5.56158498176021       -2.79397291236251
P           -2.25655904212224       -7.84666723863585        1.46774786018205
