205
 energy: -386.286638066468 gnorm: 0.073245408559 xtb: 6.7.1pre (5071a88)
C           11.45487000000000       -6.59527600000000        0.39473900000000
C           10.93348400000000       -7.89025800000000        0.31864000000000
C            9.58074500000000       -8.08530400000000        0.51690400000000
C            8.70572400000000       -6.99930800000000        0.74752100000000
C           10.61387200000000       -5.50261700000000        0.57456500000000
C            9.20306700000000       -5.65856300000000        0.68190700000000
C            8.26775100000000       -4.52122900000000        0.65956900000000
C           10.44879500000000       -1.58237000000000       -0.23856200000000
C           10.07379300000000       -2.81084300000000        0.21659500000000
C            8.67719800000000       -3.19142800000000        0.33215900000000
C            7.69717000000000       -2.19453500000000        0.06390700000000
C           10.00406500000000        0.69081800000000       -0.93348100000000
C            9.51487600000000       -0.57521700000000       -0.61747800000000
C            8.09450300000000       -0.91125600000000       -0.45744500000000
C            7.11411400000000        0.02266200000000       -0.77061100000000
C            9.48906600000000        3.13074900000000       -1.22276900000000
C            9.17733100000000        1.79851300000000       -1.25162100000000
C            6.55734700000000        2.71082900000000       -1.12266600000000
C            8.52686400000000        4.20564300000000       -1.31591600000000
C            7.07503900000000        4.01246500000000       -1.12517100000000
C            6.16188400000000        5.11121300000000       -0.88462100000000
C            8.25320800000000        8.18490900000000       -1.53153300000000
C            7.90711100000000        6.86207100000000       -1.35210200000000
C            6.55925300000000        6.48976300000000       -0.98454000000000
C            5.61744900000000        7.53561400000000       -0.74958300000000
C            7.71979400000000       10.57967900000000       -1.53366100000000
C            7.33693400000000        9.23703800000000       -1.33154800000000
C            6.01270500000000        8.91002200000000       -0.90560300000000
C            5.10037900000000        9.97279100000000       -0.65748300000000
C            6.80701000000000       11.59651100000000       -1.32437300000000
C            5.51368000000000       11.29496700000000       -0.89179900000000
C            7.32095800000000       -7.21271800000000        1.11506000000000
C            6.79199000000000       -8.55357600000000        1.33806700000000
C            5.46978400000000       -8.89893900000000        1.42358400000000
C            4.40322600000000       -7.93479100000000        1.45759800000000
C            6.87534000000000       -4.77536600000000        0.86811500000000
C            6.50135900000000       -6.10678700000000        1.24294100000000
C            3.88871900000000       -5.26202000000000        1.12774300000000
C            6.29471700000000       -2.46305100000000        0.23479500000000
C            5.86991600000000       -3.75142200000000        0.66980900000000
C            4.42502300000000       -4.01550000000000        0.73788100000000
C            3.48979700000000       -3.00032600000000        0.38174700000000
C            5.74648700000000       -0.12912800000000       -0.44607100000000
C            5.32892900000000       -1.41715000000000       -0.01335800000000
C            3.93674500000000       -1.67656000000000        0.09744800000000
C            3.00354500000000       -0.62160300000000       -0.07364500000000
C            5.23639600000000        2.37020100000000       -0.73817500000000
C            4.82052200000000        0.98466800000000       -0.53250900000000
C            3.45204600000000        0.72323400000000       -0.28716100000000
C            2.50481700000000        1.79963800000000       -0.22690700000000
C            4.79046000000000        4.80432500000000       -0.59081300000000
C            4.32989500000000        3.44296500000000       -0.51332100000000
C            2.94777100000000        3.14980700000000       -0.26791200000000
C            2.01687900000000        4.20927700000000       -0.05869600000000
C            4.26380300000000        7.22559200000000       -0.38399500000000
C            3.85677600000000        5.86880900000000       -0.33843700000000
C            2.48847700000000        5.56191200000000       -0.03632600000000
C            1.58908200000000        6.59914600000000        0.32076300000000
C            3.76757300000000        9.65443600000000       -0.17474800000000
C            3.33686300000000        8.29580500000000       -0.07309200000000
C            1.99158200000000        8.00105800000000        0.33205600000000
C            1.10592600000000        9.11449900000000        0.65312900000000
C            2.89181500000000       10.68592400000000        0.19838800000000
C            1.60554500000000       10.42612000000000        0.59827600000000
C            3.05769200000000       -8.13729300000000        1.18507900000000
C            2.58041200000000       -9.46962900000000        0.94648400000000
C            1.26229100000000       -9.74972700000000        0.84210800000000
C            0.25757900000000       -8.73181000000000        0.96239500000000
C            2.54227200000000       -5.64220400000000        0.94517800000000
C            2.08138000000000       -7.03135400000000        1.09259200000000
C            0.71130300000000       -7.32239500000000        0.98448800000000
C           -0.23881500000000       -6.23144800000000        0.73133600000000
C            2.09700400000000       -3.29674900000000        0.35101100000000
C            1.62778400000000       -4.62471300000000        0.56166900000000
C            0.23496600000000       -4.91874400000000        0.46005400000000
C           -0.69445900000000       -3.87792700000000        0.17964200000000
C            1.60775300000000       -0.90582200000000       -0.01483700000000
C            1.15725900000000       -2.24444800000000        0.12747400000000
C           -0.23351900000000       -2.53187400000000        0.06307100000000
C           -1.17170900000000       -1.47587500000000       -0.06800900000000
C            1.11497000000000        1.50554900000000       -0.10469400000000
C            0.66383500000000        0.15548200000000       -0.07388600000000
C           -0.72672000000000       -0.12642100000000       -0.07228000000000
C           -1.67860200000000        0.93824500000000       -0.03749200000000
C            0.62986600000000        3.89547700000000        0.10567900000000
C            0.17048700000000        2.55600600000000        0.01772100000000
C           -1.23155300000000        2.27852200000000        0.07459300000000
C           -2.18434900000000        3.33346800000000        0.25083900000000
C            0.25805100000000        6.20330500000000        0.62101500000000
C           -0.30366600000000        4.92407200000000        0.41673100000000
C           -1.73303800000000        4.66358200000000        0.48357000000000
C           -2.73683700000000        5.68514500000000        0.70040900000000
C           -0.29102900000000        8.94352800000000        0.96498000000000
C           -2.38612500000000        7.02387800000000        0.97916100000000
C           -3.28012600000000        8.13271100000000        0.95895000000000
C           -1.38731100000000        9.85944400000000        0.98086300000000
C           -2.71699400000000        9.47673500000000        1.00050300000000
C           -1.08046700000000       -9.10038200000000        1.01477500000000
C           -1.65022000000000      -10.41078000000000        0.84103900000000
C           -2.96635200000000      -10.62547200000000        0.52194600000000
C           -3.93279400000000       -9.60349300000000        0.13682000000000
C           -1.63316900000000       -6.43573000000000        0.69120700000000
C           -3.64624300000000       -8.26389700000000        0.34397400000000
C           -4.41109000000000       -7.17609100000000       -0.17929400000000
C           -2.07932100000000       -4.16285000000000        0.02042000000000
C           -2.55577300000000       -5.48605500000000        0.20892900000000
C           -3.94330000000000       -5.82416800000000       -0.13258500000000
C           -4.82185900000000       -4.77948000000000       -0.55870500000000
C           -2.56419700000000       -1.76350900000000       -0.18680500000000
C           -3.00956900000000       -3.10896500000000       -0.21960000000000
C           -4.37793500000000       -3.40900800000000       -0.46232300000000
C           -5.29812000000000       -2.34317700000000       -0.60402200000000
C           -3.07195100000000        0.65034000000000       -0.10094000000000
C           -3.50692500000000       -0.70000700000000       -0.23698900000000
C           -4.88297500000000       -0.99130900000000       -0.41551600000000
C           -5.83634800000000        0.07581000000000       -0.40200000000000
C           -3.58498900000000        3.04009300000000        0.19846100000000
C           -4.02491900000000        1.70310100000000       -0.01984400000000
C           -5.42111500000000        1.41006500000000       -0.15600200000000
C           -6.39879600000000        2.44981600000000       -0.02012300000000
C           -4.13593800000000        5.41072400000000        0.60186200000000
C           -4.56182000000000        4.07418800000000        0.36456600000000
C           -5.95349200000000        3.77552000000000        0.30257900000000
C           -6.89387000000000        4.80314900000000        0.60444000000000
C           -4.64746400000000        7.85002000000000        0.79547800000000
C           -5.09368700000000        6.48719200000000        0.74336500000000
C           -6.47922000000000        6.13685600000000        0.84397600000000
C           -7.48966000000000        7.13794100000000        1.21348200000000
C           -7.31273300000000        8.47765300000000        1.07547800000000
C           -5.17506100000000       -9.94091800000000       -0.53047900000000
C           -5.58615700000000      -11.26885100000000       -0.74093300000000
C           -6.80242600000000      -11.56956400000000       -1.35266800000000
C           -7.63622500000000      -10.54718100000000       -1.77973900000000
C           -5.65449700000000       -7.48818200000000       -0.81449700000000
C           -6.02329700000000       -8.87207100000000       -0.96826900000000
C           -7.25831000000000       -9.20446200000000       -1.59863000000000
C           -8.08104300000000       -8.14700000000000       -2.06843400000000
C           -6.12851500000000       -5.06607700000000       -1.07306300000000
C           -6.50991300000000       -6.43875000000000       -1.27884500000000
C           -7.73928400000000       -6.83095100000000       -1.92689400000000
C           -6.65460700000000       -2.62448300000000       -0.95235900000000
C           -7.04335300000000       -3.95091400000000       -1.30486200000000
C           -8.36078900000000       -4.12796400000000       -1.82806600000000
C           -9.27614000000000       -3.09866700000000       -1.80411100000000
C           -7.21310200000000       -0.20599600000000       -0.64132000000000
C           -7.59272500000000       -1.54650300000000       -0.97884800000000
C           -8.93395400000000       -1.81701100000000       -1.34089200000000
C           -9.88857600000000       -0.77575200000000       -1.27633500000000
C           -7.78632500000000        2.16482800000000       -0.18354800000000
C           -8.18736900000000        0.83818200000000       -0.57821700000000
C           -9.54670200000000        0.50025900000000       -0.91169800000000
C           -8.29384000000000        4.44720000000000        0.65386000000000
C           -8.74202600000000        3.20013500000000        0.17283000000000
C          -10.16829900000000        2.98116300000000        0.13273400000000
C          -11.03233700000000        3.80229700000000        0.80614000000000
C           -8.79522800000000        6.64377400000000        1.68714500000000
C           -9.22381600000000        5.36550900000000        1.25054600000000
C          -10.58193800000000        4.98934400000000        1.44811100000000
C          -11.44559700000000        5.82052200000000        2.19214700000000
C           -9.65702700000000        7.41955800000000        2.46352200000000
C          -10.97162600000000        7.00485200000000        2.72792800000000
H           12.52771100000000       -6.44124000000000        0.31033500000000
H           11.58916100000000       -8.73652600000000        0.13645200000000
H            9.19288200000000       -9.09560000000000        0.49367200000000
H           12.29666000000000       -3.83446100000000       -0.18283100000000
H           11.50497300000000       -1.32824800000000       -0.29492400000000
H           11.07233700000000        0.86136800000000       -0.80697700000000
H           10.52981800000000        3.42272600000000       -1.07995900000000
H            9.27081200000000        8.43754400000000       -1.82217500000000
H            8.73344300000000       10.79457400000000       -1.86012700000000
H            7.49913400000000       -9.37343200000000        1.34880200000000
H            5.23945200000000       -9.96079400000000        1.41824800000000
H            3.29689100000000      -10.27997100000000        0.88420100000000
H            0.95265800000000      -10.77800600000000        0.69780200000000
H           -1.01492800000000      -11.28974400000000        0.90957700000000
H           -3.26883100000000      -11.66107300000000        0.42671500000000
H           -4.95887700000000      -12.09063200000000       -0.41852000000000
H           -7.09076100000000      -12.60705800000000       -1.49388100000000
H           -8.58247200000000      -10.76826700000000       -2.26571300000000
H           -9.00661500000000       -8.41486800000000       -2.57431800000000
H          -10.04377500000000       -5.92523100000000       -2.09124000000000
H          -10.28646300000000       -3.25977500000000       -2.17371500000000
H          -10.92004000000000       -1.00738300000000       -1.53179400000000
H          -10.57799000000000        2.33552300000000       -2.18062100000000
H          -12.09644200000000        3.57748800000000        0.81534000000000
H          -12.47684400000000        5.51300100000000        2.34317300000000
H          -11.61904100000000        7.63064200000000        3.33519500000000
H            7.08741300000000       12.63214200000000       -1.49286100000000
H            4.82394300000000       12.11737700000000       -0.75214600000000
H            3.22426500000000       11.71550300000000        0.18866100000000
H            0.96004600000000       11.24972900000000        0.88161800000000
H           -1.18896600000000       10.92579900000000        0.91431700000000
H           -3.44005800000000       10.28515700000000        0.98890700000000
H           -5.95169700000000        9.15856900000000       -0.89039800000000
H           -8.13568000000000        9.14554500000000        1.31072000000000
H           -9.30977100000000        8.36265700000000        2.87254600000000
P           -5.78819700000000        9.26260500000000        0.53437900000000
P          -10.91074000000000        1.71079700000000       -0.93745600000000
P            9.27637700000000        5.73675400000000       -1.54245100000000
P            7.53681400000000        1.38787100000000       -1.84093900000000
P           -0.75506600000000        7.35962700000000        1.36289300000000
P            4.93421900000000       -6.34332100000000        2.08166100000000
P           11.37526600000000       -3.88456400000000        0.89717700000000
P           -8.82153400000000       -5.62207300000000       -2.75191100000000
P           -2.30748500000000       -7.88363100000000        1.48189100000000
205
 energy: -386.306160771477 gnorm: 0.039029790809 xtb: 6.7.1pre (5071a88)
C           11.43176128477202       -6.57827597264955        0.39581271402842
C           10.91820285296434       -7.86765583897928        0.31959663411279
C            9.57217193717143       -8.06339417063747        0.51585565671670
C            8.69336606768564       -6.98626375968817        0.74252940948412
C           10.58725389049036       -5.49144655249925        0.56377539797559
C            9.18193246676820       -5.64867354018852        0.67711000966881
C            8.25153526245377       -4.51971077029610        0.65035677873777
C           10.42555210840358       -1.58717356120201       -0.23687720925308
C           10.05039835656432       -2.82014533587967        0.20590043500381
C            8.66126152756483       -3.19377021866347        0.32767175975476
C            7.68735262939803       -2.19435519355684        0.06292542859163
C            9.97693818040396        0.68772789812369       -0.91973671883698
C            9.49583511315934       -0.58088122298756       -0.61462862289031
C            8.08437809421603       -0.91553616029980       -0.45589711856649
C            7.10589787989576        0.02642398019259       -0.75714814627703
C            9.46029643840002        3.12588728238068       -1.21656117987777
C            9.15120211959701        1.79279289374406       -1.23351641170569
C            6.54796679064547        2.70724064263712       -1.10387142734971
C            8.50112351922726        4.19475310167149       -1.30879325470701
C            7.06011900418455        4.00958413830167       -1.11886405144238
C            6.15125309463989        5.10346056775798       -0.87807298474991
C            8.23299552539511        8.17244152809778       -1.52467694330101
C            7.88286242831207        6.85123019341924       -1.34702830844305
C            6.54366366290743        6.47860273881304       -0.98004144718443
C            5.60817983976598        7.52518054222006       -0.74826926944731
C            7.70430175229448       10.56099701287024       -1.52764498662047
C            7.32161339380969        9.22232282368455       -1.32627210817564
C            6.00310118434933        8.89442144245274       -0.90258585326479
C            5.09545207428874        9.95500082436238       -0.65536450371626
C            6.79717477926980       11.57255993907217       -1.32106160017257
C            5.51079549265844       11.27149973650647       -0.89048398628406
C            7.31445445172747       -7.20117969707446        1.11203633966395
C            6.78386239928599       -8.53046769659554        1.33950627001468
C            5.46646859384073       -8.87185508855210        1.41430524474440
C            4.40190885334629       -7.91470836865828        1.44060241337109
C            6.86383444712427       -4.76753766888906        0.85772342585015
C            6.49170837684667       -6.09613638779471        1.22973995908041
C            3.88722770088978       -5.25907377218082        1.10874273386013
C            6.28720443017719       -2.45979207159505        0.23175885290495
C            5.86262475984841       -3.74665849329054        0.66150917533210
C            4.42452384181912       -4.01032479675414        0.72966039360850
C            3.48836106901397       -2.99867840483837        0.37670902059766
C            5.73791606640509       -0.12608724627245       -0.43864488658531
C            5.32456027668538       -1.41470595033461       -0.00953208347494
C            3.93376561088062       -1.67484916977234        0.09808726816199
C            3.00112858300293       -0.62090307704432       -0.07189564039349
C            5.22777151620469        2.36552314147296       -0.72761954749938
C            4.81523587395361        0.98416838373676       -0.52457237758889
C            3.44895936975077        0.72296363566528       -0.27945261110112
C            2.50256641003601        1.79711603908589       -0.22483169242068
C            4.78408691817943        4.79657928559112       -0.58717270503317
C            4.32431958061310        3.43904799559182       -0.50656194406160
C            2.94441974770769        3.14655224959715       -0.26506996283563
C            2.01362153502102        4.20488003936251       -0.06293326108560
C            4.25802265149231        7.21603769594235       -0.38414372943101
C            3.85325010664843        5.86003233013261       -0.34076226172303
C            2.48716713232584        5.55521407137282       -0.04148880404057
C            1.59120862961192        6.59222081020557        0.31628714949789
C            3.76586778421446        9.63623460279570       -0.17691593164572
C            3.33285020324092        8.28171444880108       -0.07580611564395
C            1.99219386121808        7.98894655449018        0.33213238775714
C            1.10733628548564        9.09737350837861        0.64424507292477
C            2.89297606128588       10.66386573058290        0.19722511503878
C            1.60898449164919       10.40371926933303        0.59225794430314
C            3.05124715536759       -8.11672538669817        1.18188561290933
C            2.57372093694118       -9.44178423810195        0.94544385447698
C            1.25782228543573       -9.72133942267780        0.84141635094197
C            0.25633879059719       -8.71010806074967        0.95917452308350
C            2.53938224500410       -5.63910905012373        0.93906888093665
C            2.07861591882335       -7.02079521348664        1.08345994965310
C            0.71149095859001       -7.31148155867852        0.97533542226155
C           -0.23595143519062       -6.22737543590700        0.72565835300049
C            2.09690490519911       -3.29565199836775        0.35015340366034
C            1.62715864854470       -4.62276296215758        0.55629757909194
C            0.23600822253544       -4.91621959034704        0.45603618415452
C           -0.69349700429902       -3.87648535922926        0.17834932432369
C            1.60749225656378       -0.90613902400959       -0.01184445739281
C            1.15752769055113       -2.24457356845367        0.13032026084358
C           -0.23277028787749       -2.53125047731584        0.06823111532956
C           -1.17058571370741       -1.47576890454735       -0.06704547624394
C            1.11483496927907        1.50251408670491       -0.10270044839950
C            0.66356257870309        0.15374921467911       -0.07303953968425
C           -0.72625570839388       -0.12715075458825       -0.06857034366143
C           -1.67708936135614        0.93625910431819       -0.03683842430001
C            0.62884049560542        3.89011689228002        0.10026536503712
C            0.16965975060415        2.55181646465652        0.01527347745518
C           -1.23009210165257        2.27588097829343        0.07398982034820
C           -2.18218149198764        3.32946682619522        0.24556768546673
C            0.25945064019404        6.19408714275407        0.60576261206824
C           -0.30535363923379        4.91476621051143        0.41085657915482
C           -1.73058730486183        4.65618048270492        0.48376413542294
C           -2.73632506638843        5.67270317054463        0.69442581977053
C           -0.29233054852817        8.93357245272871        0.94271383647903
C           -2.38709944588372        7.01059107391583        0.96495425324639
C           -3.27596599594990        8.11669916572987        0.94790130363769
C           -1.39221282608029        9.84083315582146        0.97464798591176
C           -2.71395728769269        9.45349358594260        1.00243468158774
C           -1.08349990464681       -9.08136386218102        0.99643793464628
C           -1.65560217699068      -10.38435304415687        0.82912133787331
C           -2.96730182413446      -10.60020885133358        0.52025650198297
C           -3.93068652390165       -9.58990534897455        0.13310231904057
C           -1.62938156137067       -6.43259275918617        0.67182326173698
C           -3.63982489403959       -8.25016637318383        0.33120246808690
C           -4.40466375412776       -7.16326267372761       -0.18346873686408
C           -2.07726835148908       -4.15950264071387        0.01811378630693
C           -2.55532640363368       -5.48084011687947        0.20127271636001
C           -3.93679740750954       -5.81556328478450       -0.13724459432949
C           -4.81381477446641       -4.77322767404669       -0.55775257689209
C           -2.56144556304059       -1.76209646905732       -0.18339097000546
C           -3.00610528915582       -3.10660020313267       -0.21893015684290
C           -4.37243529711980       -3.40621665808385       -0.46043370635634
C           -5.29130455273936       -2.34061609193162       -0.60164398722483
C           -3.06896101830400        0.64914951900927       -0.09830581082130
C           -3.50321811372569       -0.69948675040607       -0.23603773075257
C           -4.87829198906999       -0.99060847787963       -0.41281158847159
C           -5.82857645952307        0.07584498437847       -0.40002115152486
C           -3.58098681933136        3.03631227913199        0.19817758566429
C           -4.02084266966716        1.70165878330527       -0.01923376146339
C           -5.41401272367972        1.40866206238778       -0.15360633737550
C           -6.38947268908216        2.44549076233261       -0.01610859587812
C           -4.13285531045301        5.40183526350671        0.59595040889247
C           -4.55748993933102        4.06752871507252        0.36231679503557
C           -5.94616295195514        3.76882916243361        0.30179286607063
C           -6.88499223204156        4.79315673782490        0.60615114273433
C           -4.63872338269876        7.83074147495777        0.77859343333163
C           -5.08891918352701        6.47250517715095        0.73935494254694
C           -6.46997246241844        6.12252918332977        0.84424496654986
C           -7.47446998481335        7.11759656401761        1.21278550215982
C           -7.29872648374450        8.45296385959406        1.05783834024990
C           -5.16895895999154       -9.92401707472406       -0.53349850373985
C           -5.58488150630396      -11.24555502071051       -0.74191441734048
C           -6.79489253400138      -11.54467582658339       -1.34908185955534
C           -7.62255352249601      -10.52689745515684       -1.77340933746563
C           -5.64568043202298       -7.47637145408081       -0.81360057298095
C           -6.01295941810038       -8.85603738581560       -0.96567313320799
C           -7.24509653113912       -9.18809345411036       -1.59180958688061
C           -8.06537914277473       -8.13164695106773       -2.05648680037348
C           -6.11884536730312       -5.05889383829939       -1.06423659629793
C           -6.49753078654073       -6.42662877190085       -1.26982780007984
C           -7.72570301877994       -6.81702092373126       -1.90565310575958
C           -6.64526506510480       -2.62263387468143       -0.94557053458304
C           -7.02816886212182       -3.94851935670356       -1.29354783696370
C           -8.34405887896595       -4.12807299225637       -1.80717268366061
C           -9.25632744748777       -3.09722670212581       -1.79481549744191
C           -7.20256128189177       -0.20549414179945       -0.63937443100781
C           -7.57957613002098       -1.54473302258594       -0.97313138199401
C           -8.91847560718314       -1.81495081425402       -1.33364244143643
C           -9.86577491506520       -0.77006263671274       -1.27684010781324
C           -7.77303626774928        2.16101983184102       -0.17831498870697
C           -8.17062700436023        0.83958932942093       -0.57471155835318
C           -9.52135960155899        0.50509607255148       -0.91640868233025
C           -8.28048009072581        4.43963093783460        0.65170763651492
C           -8.72398652504821        3.19407606278143        0.16999773742317
C          -10.14487002916201        2.98443949927172        0.12316448557700
C          -11.00821687132784        3.80422881927353        0.79535072703812
C           -8.78242482472403        6.63428185470701        1.67346038759363
C           -9.20709558359474        5.35688870531673        1.24222008630681
C          -10.56039916849829        4.98308387977577        1.44099270661622
C          -11.42089852725021        5.81341626642524        2.18146793905518
C           -9.64417375480991        7.40698483760605        2.44510825791537
C          -10.94929709138211        6.99078605364197        2.71416921446877
H           12.50185300312771       -6.42237991441218        0.31632201265796
H           11.57485186454675       -8.71015227728699        0.14049083578072
H            9.19274728256797       -9.07369469303503        0.49358470059767
H           12.24651473137045       -3.84331761520612       -0.18497019617617
H           11.48127741113159       -1.33910691173066       -0.29166388134624
H           11.04244712758423        0.86173890008085       -0.79838111181575
H           10.49754890900803        3.42614088664282       -1.08037656792908
H            9.24854854261709        8.42003627552490       -1.81725785106109
H            8.71411161860640       10.77818475787973       -1.85226344873190
H            7.48892663648170       -9.34955978280800        1.35250876484937
H            5.23564185936826       -9.93116055839791        1.41160044929729
H            3.28805448157740      -10.25098049404161        0.88627344338179
H            0.94891996053246      -10.74775704113171        0.70086134519732
H           -1.02192378702846      -11.26116647930265        0.90168246219558
H           -3.27000479233034      -11.63415145219083        0.42964844560117
H           -4.96442041887374      -12.06912108689072       -0.42124848186610