      -----------------------------------------------------------      
     |                   =====================                   |     
     |                           x T B                           |     
     |                   =====================                   |     
     |                         S. Grimme                         |     
     |          Mulliken Center for Theoretical Chemistry        |     
     |                    University of Bonn                     |     
      -----------------------------------------------------------      

   * xtb version 6.7.1pre (5071a88) compiled by 'Marcel@Raven' on 2024-07-23

   xtb is free software: you can redistribute it and/or modify it under
   the terms of the GNU Lesser General Public License as published by
   the Free Software Foundation, either version 3 of the License, or
   (at your option) any later version.
   
   xtb is distributed in the hope that it will be useful,
   but WITHOUT ANY WARRANTY; without even the implied warranty of
   MERCHANTABILITY or FITNESS FOR A PARTICULAR PURPOSE.  See the
   GNU Lesser General Public License for more details.
   
   Cite this work as:
   * C. Bannwarth, E. Caldeweyher, S. Ehlert, A. Hansen, P. Pracht,
     J. Seibert, S. Spicher, S. Grimme, WIREs Comput. Mol. Sci., 2020, 11,
     e01493. DOI: 10.1002/wcms.1493
   
   for GFN2-xTB:
   * C. Bannwarth, S. Ehlert and S. Grimme., J. Chem. Theory Comput., 2019,
     15, 1652-1671. DOI: 10.1021/acs.jctc.8b01176
   for GFN1-xTB:
   * S. Grimme, C. Bannwarth, P. Shushkov, J. Chem. Theory Comput., 2017,
     13, 1989-2009. DOI: 10.1021/acs.jctc.7b00118
   for GFN0-xTB:
   * P. Pracht, E. Caldeweyher, S. Ehlert, S. Grimme, ChemRxiv, 2019, preprint.
     DOI: 10.26434/chemrxiv.8326202.v1
   for GFN-FF:
   * S. Spicher and S. Grimme, Angew. Chem. Int. Ed., 2020, 59, 15665-15673.
     DOI: 10.1002/anie.202004239
   
   for ALPB and GBSA implicit solvation:
   * S. Ehlert, M. Stahn, S. Spicher, S. Grimme, J. Chem. Theory Comput.,
     2021, 17, 4250-4261. DOI: 10.1021/acs.jctc.1c00471
   
   for ddCOSMO and CPCM-X implicit solvation:
   * M. Stahn, S. Ehlert, S. Grimme, J. Phys. Chem. A,
     2023, XX, XXXX-XXXX. DOI: 10.1021/acs.jpca.3c04382
   
   for DFT-D4:
   * E. Caldeweyher, C. Bannwarth and S. Grimme, J. Chem. Phys., 2017,
     147, 034112. DOI: 10.1063/1.4993215
   * E. Caldeweyher, S. Ehlert, A. Hansen, H. Neugebauer, S. Spicher,
     C. Bannwarth and S. Grimme, J. Chem. Phys., 2019, 150, 154122.
     DOI: 10.1063/1.5090222
   * E. Caldeweyher, J.-M. Mewes, S. Ehlert and S. Grimme, Phys. Chem. Chem. Phys.
     2020, 22, 8499-8512. DOI: 10.1039/D0CP00502A
   
   for sTDA-xTB:
   * S. Grimme and C. Bannwarth, J. Chem. Phys., 2016, 145, 054103.
     DOI: 10.1063/1.4959605
   
   in the mass-spec context:
   * V. Asgeirsson, C. Bauer and S. Grimme, Chem. Sci., 2017, 8, 4879.
     DOI: 10.1039/c7sc00601b
   * J. Koopman and S. Grimme, ACS Omega 2019, 4, 12, 15120-15133.
     DOI: 10.1021/acsomega.9b02011
   
   for metadynamics refer to:
   * S. Grimme, J. Chem. Theory Comput., 2019, 155, 2847-2862
     DOI: 10.1021/acs.jctc.9b00143
   
   for SPH calculations refer to:
   * S. Spicher and S. Grimme, J. Chem. Theory Comput., 2021, 17, 1701-1714
     DOI: 10.1021/acs.jctc.0c01306
   
   for ONIOM refer to:
   * C. Plett, A. Katbashev, S. Ehlert, S. Grimme, M. Bursch,
     Phys. Chem. Chem. Phys., 2023, 25, 17860-17868. DOI: 10.1039/D3CP02178E
   
   for DIPRO refer to:
   * J. Kohn, N. Gildemeister, S. Grimme, D. Fazzi, A. Hansen,
     J. Chem. Phys., 2023, just accepted.
   
   for PTB refer to:
   * S. Grimme, M. Mueller, A. Hansen, J. Chem. Phys., 2023, 158, 124111.
     DOI: 10.1063/5.0137838
   
   with help from (in alphabetical order)
   P. Atkinson, C. Bannwarth, F. Bohle, G. Brandenburg, E. Caldeweyher
   M. Checinski, S. Dohm, S. Ehlert, S. Ehrlich, I. Gerasimov, C. Hölzer
   A. Katbashev, J. Kohn, J. Koopman, C. Lavigne, S. Lehtola, F. März, M. Müller,
   F. Musil, H. Neugebauer, J. Pisarek, C. Plett, P. Pracht, F. Pultar,
   J. Seibert, P. Shushkov, S. Spicher, M. Stahn, M. Steiner, T. Strunk,
   J. Stückrath, T. Rose, and J. Unsleber
   
 * started run on 2025/12/08 at 00:34:23.043     
   ID    Z sym.   atoms
    1    6 C      1-10, 12-53
    2    7 N      11, 72
    3    1 H      54-71, 73, 74

           -------------------------------------------------
          |                Calculation Setup                |
           -------------------------------------------------

          program call               : xtb "C:\Users\LENOVO GAMING\Documents\GitHub\molecular-conductivity-sim\results\1nm-2Ndoped-3percent\xtbopt.xyz" --sp
          coordinate file            : C:\Users\LENOVO GAMING\Documents\GitHub\molecular-conductivity-sim\results\1nm-2Ndoped-3percent\xtbopt.xyz
          omp threads                :                    16


           -------------------------------------------------
          |                 G F N 2 - x T B                 |
           -------------------------------------------------

        Reference                      10.1021/acs.jctc.8b01176
      * Hamiltonian:
        H0-scaling (s, p, d)           1.850000    2.230000    2.230000
        zeta-weighting                 0.500000
      * Dispersion:
        s8                             2.700000
        a1                             0.520000
        a2                             5.000000
        s9                             5.000000
      * Repulsion:
        kExp                           1.500000    1.000000
        rExp                           1.000000
      * Coulomb:
        alpha                          2.000000
        third order                    shell-resolved
        anisotropic                    true
        a3                             3.000000
        a5                             4.000000
        cn-shift                       1.200000
        cn-exp                         4.000000
        max-rad                        5.000000

q/qsh data taken from xtbrestart
CAMM data taken from xtbrestart

          ...................................................
          :                      SETUP                      :
          :.................................................:
          :  # basis functions                 236          :
          :  # atomic orbitals                 236          :
          :  # shells                          128          :
          :  # electrons                       238          :
          :  max. iterations                   250          :
          :  Hamiltonian                  GFN2-xTB          :
          :  restarted?                       true          :
          :  GBSA solvation                  false          :
          :  PC potential                    false          :
          :  electronic temp.          300.0000000     K    :
          :  accuracy                    1.0000000          :
          :  -> integral cutoff          0.2500000E+02      :
          :  -> integral neglect         0.1000000E-07      :
          :  -> SCF convergence          0.1000000E-05 Eh   :
          :  -> wf. convergence          0.1000000E-03 e    :
          :  Broyden damping             0.4000000          :
          :  net charge                          0          :
          :  unpaired electrons                  0          :
          ...................................................

 iter      E             dE          RMSdq      gap      omega  full diag
   1   -130.2034083 -0.130203E+03  0.632E-06    1.06       0.0  T
   2   -130.2034083  0.147793E-11  0.710E-06    1.06    1637.9  T
   3   -130.2034083 -0.417799E-11  0.186E-06    1.06    6239.8  T

   *** convergence criteria satisfied after 3 iterations ***

         #    Occupation            Energy/Eh            Energy/eV
      -------------------------------------------------------------
         1        2.0000           -0.6788293             -18.4719
       ...           ...                  ...                  ...
       113        2.0000           -0.3849262             -10.4744
       114        2.0000           -0.3837914             -10.4435
       115        2.0000           -0.3813782             -10.3778
       116        2.0000           -0.3705567             -10.0834
       117        2.0000           -0.3557047              -9.6792
       118        2.0000           -0.3394173              -9.2360
       119        2.0000           -0.3257480              -8.8641 (HOMO)
       120                         -0.2866957              -7.8014 (LUMO)
       121                         -0.2630323              -7.1575
       122                         -0.2529453              -6.8830
       123                         -0.2433564              -6.6221
       124                         -0.2320016              -6.3131
       ...                                ...                  ...
       236                          0.7768242              21.1385
      -------------------------------------------------------------
                  HL-Gap            0.0390523 Eh            1.0627 eV
             Fermi-level           -0.3062218 Eh           -8.3327 eV

 SCC (total)                   0 d,  0 h,  0 min,  0.099 sec
 SCC setup                      ...        0 min,  0.000 sec (  0.000%)
 Dispersion                     ...        0 min,  0.002 sec (  2.020%)
 classical contributions        ...        0 min,  0.002 sec (  2.020%)
 integral evaluation            ...        0 min,  0.012 sec ( 12.121%)
 iterations                     ...        0 min,  0.059 sec ( 59.596%)
 molecular gradient             ...        0 min,  0.023 sec ( 23.232%)
 printout                       ...        0 min,  0.001 sec (  1.010%)

         :::::::::::::::::::::::::::::::::::::::::::::::::::::
         ::                     SUMMARY                     ::
         :::::::::::::::::::::::::::::::::::::::::::::::::::::
         :: total energy            -127.732062249837 Eh    ::
         :: gradient norm              0.000273157440 Eh/a0 ::
         :: HOMO-LUMO gap              1.062667486914 eV    ::
         ::.................................................::
         :: SCC energy              -130.205584226754 Eh    ::
         :: -> isotropic ES            0.012349461746 Eh    ::
         :: -> anisotropic ES          0.013566797139 Eh    ::
         :: -> anisotropic XC          0.052051257096 Eh    ::
         :: -> dispersion             -0.137949743008 Eh    ::
         :: repulsion energy           2.473521976918 Eh    ::
         :: add. restraining           0.000000000000 Eh    ::
         :: total charge              -0.000000000000 e     ::
         :::::::::::::::::::::::::::::::::::::::::::::::::::::

           -------------------------------------------------
          |                Property Printout                |
           -------------------------------------------------

    * Orbital Energies and Occupations

         #    Occupation            Energy/Eh            Energy/eV
      -------------------------------------------------------------
         1        2.0000           -0.6788293             -18.4719
       ...           ...                  ...                  ...
       107        2.0000           -0.4007409             -10.9047
       108        2.0000           -0.4001281             -10.8880
       109        2.0000           -0.3978592             -10.8263
       110        2.0000           -0.3963334             -10.7848
       111        2.0000           -0.3920671             -10.6687
       112        2.0000           -0.3880254             -10.5587
       113        2.0000           -0.3849262             -10.4744
       114        2.0000           -0.3837914             -10.4435
       115        2.0000           -0.3813782             -10.3778
       116        2.0000           -0.3705567             -10.0834
       117        2.0000           -0.3557047              -9.6792
       118        2.0000           -0.3394173              -9.2360
       119        2.0000           -0.3257480              -8.8641 (HOMO)
       120                         -0.2866957              -7.8014 (LUMO)
       121                         -0.2630323              -7.1575
       122                         -0.2529453              -6.8830
       123                         -0.2433564              -6.6221
       124                         -0.2320016              -6.3131
       125                         -0.2269548              -6.1758
       126                         -0.2263503              -6.1593
       127                         -0.2209822              -6.0132
       128                         -0.2190030              -5.9594
       129                         -0.2082051              -5.6655
       130                         -0.1996782              -5.4335
       ...                                ...                  ...
       236                          0.7768242              21.1385
      -------------------------------------------------------------
                  HL-Gap            0.0390523 Eh            1.0627 eV
             Fermi-level           -0.3062218 Eh           -8.3327 eV

     #   Z          covCN         q      C6AA      α(0)
     1   6 C        2.921    -0.044    29.086     8.844
     2   6 C        2.922    -0.044    29.094     8.845
     3   6 C        2.918    -0.038    28.955     8.824
     4   6 C        2.913    -0.031    28.784     8.798
     5   6 C        2.977     0.005    27.908     8.666
     6   6 C        2.984     0.013    27.723     8.637
     7   6 C        2.847     0.025    27.440     8.585
     8   6 C        2.917    -0.038    28.955     8.824
     9   6 C        2.919    -0.038    28.955     8.824
    10   6 C        2.980     0.011    27.762     8.643
    11   7 N        2.706    -0.124    23.693     7.229
    12   6 C        2.915     0.059    26.682     8.470
    13   6 C        2.995    -0.010    28.252     8.719
    14   6 C        2.979     0.002    27.984     8.677
    15   6 C        2.978     0.004    27.933     8.669
    16   6 C        2.989     0.000    28.009     8.681
    17   6 C        2.988    -0.002    28.079     8.692
    18   6 C        2.920    -0.067    29.662     8.931
    19   6 C        2.978     0.011    27.761     8.643
    20   6 C        2.920    -0.049    29.229     8.866
    21   6 C        2.995    -0.005    28.143     8.702
    22   6 C        2.982     0.011    27.771     8.644
    23   6 C        2.987    -0.004    28.114     8.698
    24   6 C        2.987    -0.002    28.063     8.690
    25   6 C        2.986    -0.000    28.030     8.685
    26   6 C        2.922    -0.084    30.101     8.997
    27   6 C        2.976     0.004    27.926     8.668
    28   6 C        2.994    -0.007    28.187     8.709
    29   6 C        2.913    -0.032    28.793     8.799
    30   6 C        2.988    -0.006    28.159     8.705
    31   6 C        2.989     0.000    28.014     8.682
    32   6 C        2.913    -0.065    29.606     8.922
    33   6 C        2.911     0.064    26.576     8.453
    34   6 C        2.922    -0.042    29.045     8.838
    35   6 C        2.989     0.003    27.952     8.673
    36   6 C        2.989     0.001    28.005     8.681
    37   6 C        2.978     0.005    27.915     8.667
    38   6 C        2.980    -0.001    28.055     8.688
    39   6 C        2.992    -0.002    28.076     8.692
    40   6 C        2.918     0.067    26.490     8.440
    41   6 C        2.920    -0.092    30.298     9.026
    42   6 C        2.978     0.006    27.882     8.661
    43   6 C        2.919    -0.038    28.935     8.821
    44   6 C        2.989     0.001    27.998     8.680
    45   6 C        2.988    -0.005    28.136     8.701
    46   6 C        2.992    -0.002    28.058     8.689
    47   6 C        2.917    -0.030    28.737     8.791
    48   6 C        2.925    -0.059    29.476     8.904
    49   6 C        2.989    -0.001    28.045     8.687
    50   6 C        2.922    -0.041    29.024     8.835
    51   6 C        2.988    -0.001    28.034     8.685
    52   6 C        2.985    -0.002    28.058     8.689
    53   6 C        2.994    -0.003    28.097     8.695
    54   1 H        0.926     0.024     2.672     2.556
    55   1 H        0.926     0.032     2.562     2.503
    56   1 H        0.926     0.022     2.705     2.572
    57   1 H        0.926     0.032     2.562     2.503
    58   1 H        0.926     0.018     2.758     2.597
    59   1 H        0.926     0.024     2.680     2.560
    60   1 H        0.926     0.027     2.635     2.539
    61   1 H        0.926     0.031     2.569     2.506
    62   1 H        0.926     0.030     2.587     2.515
    63   1 H        0.926     0.027     2.633     2.537
    64   1 H        0.926     0.031     2.570     2.507
    65   1 H        0.926     0.024     2.669     2.555
    66   1 H        0.926     0.038     2.478     2.462
    67   1 H        0.926     0.029     2.603     2.523
    68   1 H        0.926     0.040     2.454     2.450
    69   1 H        0.926     0.015     2.811     2.622
    70   1 H        0.926     0.022     2.708     2.574
    71   1 H        0.926     0.025     2.661     2.551
    72   7 N        2.704    -0.101    23.219     7.157
    73   1 H        0.860     0.167     1.290     1.779
    74   1 H        0.860     0.164     1.312     1.795

 Mol. C6AA /au·bohr⁶  :     100941.212415
 Mol. C8AA /au·bohr⁸  :    2697197.403261
 Mol. α(0) /au        :        517.326431


Wiberg/Mayer (AO) data.
largest (>0.10) Wiberg bond orders for each atom

 ---------------------------------------------------------------------------
     #   Z sym  total        # sym  WBO       # sym  WBO       # sym  WBO
 ---------------------------------------------------------------------------
     1   6 C    3.937 --     4 C    1.418     5 C    1.376    63 H    0.962
     2   6 C    3.942 --     4 C    1.468     6 C    1.323    54 H    0.969
     3   6 C    3.968 --     8 C    1.533    15 C    1.306    64 H    0.961
     4   6 C    3.982 --     2 C    1.468     1 C    1.418    65 H    0.971
     5   6 C    3.980 --     1 C    1.376    21 C    1.266    15 C    1.143
     6   6 C    3.985 --     2 C    1.323    26 C    1.246    21 C    1.245
     7   6 C    3.941 --    32 C    1.631    72 N    1.215    66 H    0.966
     8   6 C    3.951 --     3 C    1.533    38 C    1.295    67 H    0.962
     9   6 C    3.971 --    43 C    1.496    37 C    1.337    55 H    0.961
    10   6 C    3.936 --    39 C    1.356    38 C    1.206    32 C    1.180
    11   7 N    3.494 --    40 C    1.153    33 C    1.135    74 H    0.938
    12   6 C    3.946 --    41 C    1.517    39 C    1.158    72 N    1.112
    13   6 C    3.978 --    42 C    1.297    40 C    1.258    35 C    1.182
    14   6 C    3.969 --    43 C    1.335    36 C    1.289    42 C    1.142
    15   6 C    3.947 --     3 C    1.306    44 C    1.305     5 C    1.143
    16   6 C    3.977 --    38 C    1.260    44 C    1.246    45 C    1.245
    17   6 C    3.973 --    46 C    1.274    45 C    1.255    39 C    1.224
    18   6 C    3.960 --    47 C    1.411    40 C    1.374    56 H    0.968
    19   6 C    3.987 --    48 C    1.425    41 C    1.211    46 C    1.186
    20   6 C    3.962 --    47 C    1.468    42 C    1.342    57 H    0.962
    21   6 C    3.979 --     5 C    1.266     6 C    1.245    49 C    1.235
    22   6 C    3.985 --    50 C    1.296    48 C    1.289    53 C    1.233
    23   6 C    3.968 --    51 C    1.293    49 C    1.242    44 C    1.205
    24   6 C    3.972 --    52 C    1.300    45 C    1.242    51 C    1.206
    25   6 C    3.978 --    46 C    1.277    53 C    1.245    52 C    1.231
    26   6 C    3.942 --    33 C    1.480     6 C    1.246    58 H    0.965
    27   6 C    3.983 --    34 C    1.392    53 C    1.263    37 C    1.133
    28   6 C    3.962 --    49 C    1.276    35 C    1.275    33 C    1.179
    29   6 C    3.983 --    50 C    1.493    34 C    1.395    59 H    0.971
    30   6 C    3.975 --    35 C    1.287    51 C    1.249    36 C    1.208
    31   6 C    3.982 --    37 C    1.293    36 C    1.257    52 C    1.206
    32   6 C    3.960 --     7 C    1.631    10 C    1.180    68 H    0.961
    33   6 C    3.962 --    26 C    1.480    28 C    1.179    11 N    1.135
    34   6 C    3.926 --    29 C    1.395    27 C    1.392    60 H    0.962
    35   6 C    3.963 --    30 C    1.287    28 C    1.275    13 C    1.182
    36   6 C    3.981 --    14 C    1.289    31 C    1.257    30 C    1.208
    37   6 C    3.959 --     9 C    1.337    31 C    1.293    27 C    1.133
    38   6 C    3.971 --     8 C    1.295    16 C    1.260    10 C    1.206
    39   6 C    3.978 --    10 C    1.356    17 C    1.224    12 C    1.158
    40   6 C    3.960 --    18 C    1.374    13 C    1.258    11 N    1.153
    41   6 C    3.955 --    12 C    1.517    19 C    1.211    69 H    0.965
    42   6 C    3.975 --    20 C    1.342    13 C    1.297    14 C    1.142
    43   6 C    3.963 --     9 C    1.496    14 C    1.335    61 H    0.961
    44   6 C    3.984 --    15 C    1.305    16 C    1.246    23 C    1.205
    45   6 C    3.978 --    17 C    1.255    16 C    1.245    24 C    1.242
    46   6 C    3.965 --    25 C    1.277    17 C    1.274    19 C    1.186
    47   6 C    3.978 --    20 C    1.468    18 C    1.411    62 H    0.971
    48   6 C    3.910 --    19 C    1.425    22 C    1.289    70 H    0.967
    49   6 C    3.976 --    28 C    1.276    23 C    1.242    21 C    1.235
    50   6 C    3.928 --    29 C    1.493    22 C    1.296    71 H    0.969
    51   6 C    3.972 --    23 C    1.293    30 C    1.249    24 C    1.206
    52   6 C    3.956 --    24 C    1.300    25 C    1.231    31 C    1.206
    53   6 C    3.972 --    27 C    1.263    25 C    1.245    22 C    1.233
    54   1 H    0.998 --     2 C    0.969
    55   1 H    0.998 --     9 C    0.961
    56   1 H    0.999 --    18 C    0.968
    57   1 H    0.998 --    20 C    0.962
    58   1 H    0.998 --    26 C    0.965
    59   1 H    0.998 --    29 C    0.971
    60   1 H    0.999 --    34 C    0.962
    61   1 H    0.998 --    43 C    0.961
    62   1 H    0.998 --    47 C    0.971
    63   1 H    0.999 --     1 C    0.962
    64   1 H    0.998 --     3 C    0.961
    65   1 H    0.999 --     4 C    0.971
    66   1 H    0.997 --     7 C    0.966
    67   1 H    0.998 --     8 C    0.962
    68   1 H    0.998 --    32 C    0.961
    69   1 H    0.998 --    41 C    0.965
    70   1 H    0.998 --    48 C    0.967
    71   1 H    0.998 --    50 C    0.969
    72   7 N    3.520 --     7 C    1.215    12 C    1.112    73 H    0.942
    73   1 H    0.971 --    72 N    0.942
    74   1 H    0.972 --    11 N    0.938
 ---------------------------------------------------------------------------

Topologies differ in total number of bonds
Writing topology from bond orders to xtbtopo.mol

molecular dipole:
                 x           y           z       tot (Debye)
 q only:        0.353       0.869      -0.000
   full:        0.354       0.952      -0.000       2.582
molecular quadrupole (traceless):
                xx          xy          yy          xz          yz          zz
 q only:       19.916      28.150      -2.543      -0.002      -0.002     -17.374
  q+dip:       41.892      31.754       7.064      -0.002      -0.002     -48.956
   full:       31.951      32.152      -2.715      -0.002      -0.002     -29.235


           -------------------------------------------------
          | TOTAL ENERGY             -127.732062249837 Eh   |
          | GRADIENT NORM               0.000273157440 Eh/α |
          | HOMO-LUMO GAP               1.062667486914 eV   |
           -------------------------------------------------

------------------------------------------------------------------------
 * finished run on 2025/12/08 at 00:34:23.191     
------------------------------------------------------------------------
 total:
 * wall-time:     0 d,  0 h,  0 min,  0.145 sec
 *  cpu-time:     0 d,  0 h,  0 min,  1.469 sec
 * ratio c/w:    10.129 speedup
 SCF:
 * wall-time:     0 d,  0 h,  0 min,  0.100 sec
 *  cpu-time:     0 d,  0 h,  0 min,  1.234 sec
 * ratio c/w:    12.344 speedup

normal termination of xtb
