      -----------------------------------------------------------      
     |                   =====================                   |     
     |                           x T B                           |     
     |                   =====================                   |     
     |                         S. Grimme                         |     
     |          Mulliken Center for Theoretical Chemistry        |     
     |                    University of Bonn                     |     
      -----------------------------------------------------------      

   * xtb version 6.7.1pre (5071a88) compiled by 'Marcel@Raven' on 2024-07-23

   xtb is free software: you can redistribute it and/or modify it under
   the terms of the GNU Lesser General Public License as published by
   the Free Software Foundation, either version 3 of the License, or
   (at your option) any later version.
   
   xtb is distributed in the hope that it will be useful,
   but WITHOUT ANY WARRANTY; without even the implied warranty of
   MERCHANTABILITY or FITNESS FOR A PARTICULAR PURPOSE.  See the
   GNU Lesser General Public License for more details.
   
   Cite this work as:
   * C. Bannwarth, E. Caldeweyher, S. Ehlert, A. Hansen, P. Pracht,
     J. Seibert, S. Spicher, S. Grimme, WIREs Comput. Mol. Sci., 2020, 11,
     e01493. DOI: 10.1002/wcms.1493
   
   for GFN2-xTB:
   * C. Bannwarth, S. Ehlert and S. Grimme., J. Chem. Theory Comput., 2019,
     15, 1652-1671. DOI: 10.1021/acs.jctc.8b01176
   for GFN1-xTB:
   * S. Grimme, C. Bannwarth, P. Shushkov, J. Chem. Theory Comput., 2017,
     13, 1989-2009. DOI: 10.1021/acs.jctc.7b00118
   for GFN0-xTB:
   * P. Pracht, E. Caldeweyher, S. Ehlert, S. Grimme, ChemRxiv, 2019, preprint.
     DOI: 10.26434/chemrxiv.8326202.v1
   for GFN-FF:
   * S. Spicher and S. Grimme, Angew. Chem. Int. Ed., 2020, 59, 15665-15673.
     DOI: 10.1002/anie.202004239
   
   for ALPB and GBSA implicit solvation:
   * S. Ehlert, M. Stahn, S. Spicher, S. Grimme, J. Chem. Theory Comput.,
     2021, 17, 4250-4261. DOI: 10.1021/acs.jctc.1c00471
   
   for ddCOSMO and CPCM-X implicit solvation:
   * M. Stahn, S. Ehlert, S. Grimme, J. Phys. Chem. A,
     2023, XX, XXXX-XXXX. DOI: 10.1021/acs.jpca.3c04382
   
   for DFT-D4:
   * E. Caldeweyher, C. Bannwarth and S. Grimme, J. Chem. Phys., 2017,
     147, 034112. DOI: 10.1063/1.4993215
   * E. Caldeweyher, S. Ehlert, A. Hansen, H. Neugebauer, S. Spicher,
     C. Bannwarth and S. Grimme, J. Chem. Phys., 2019, 150, 154122.
     DOI: 10.1063/1.5090222
   * E. Caldeweyher, J.-M. Mewes, S. Ehlert and S. Grimme, Phys. Chem. Chem. Phys.
     2020, 22, 8499-8512. DOI: 10.1039/D0CP00502A
   
   for sTDA-xTB:
   * S. Grimme and C. Bannwarth, J. Chem. Phys., 2016, 145, 054103.
     DOI: 10.1063/1.4959605
   
   in the mass-spec context:
   * V. Asgeirsson, C. Bauer and S. Grimme, Chem. Sci., 2017, 8, 4879.
     DOI: 10.1039/c7sc00601b
   * J. Koopman and S. Grimme, ACS Omega 2019, 4, 12, 15120-15133.
     DOI: 10.1021/acsomega.9b02011
   
   for metadynamics refer to:
   * S. Grimme, J. Chem. Theory Comput., 2019, 155, 2847-2862
     DOI: 10.1021/acs.jctc.9b00143
   
   for SPH calculations refer to:
   * S. Spicher and S. Grimme, J. Chem. Theory Comput., 2021, 17, 1701-1714
     DOI: 10.1021/acs.jctc.0c01306
   
   for ONIOM refer to:
   * C. Plett, A. Katbashev, S. Ehlert, S. Grimme, M. Bursch,
     Phys. Chem. Chem. Phys., 2023, 25, 17860-17868. DOI: 10.1039/D3CP02178E
   
   for DIPRO refer to:
   * J. Kohn, N. Gildemeister, S. Grimme, D. Fazzi, A. Hansen,
     J. Chem. Phys., 2023, just accepted.
   
   for PTB refer to:
   * S. Grimme, M. Mueller, A. Hansen, J. Chem. Phys., 2023, 158, 124111.
     DOI: 10.1063/5.0137838
   
   with help from (in alphabetical order)
   P. Atkinson, C. Bannwarth, F. Bohle, G. Brandenburg, E. Caldeweyher
   M. Checinski, S. Dohm, S. Ehlert, S. Ehrlich, I. Gerasimov, C. Hölzer
   A. Katbashev, J. Kohn, J. Koopman, C. Lavigne, S. Lehtola, F. März, M. Müller,
   F. Musil, H. Neugebauer, J. Pisarek, C. Plett, P. Pracht, F. Pultar,
   J. Seibert, P. Shushkov, S. Spicher, M. Stahn, M. Steiner, T. Strunk,
   J. Stückrath, T. Rose, and J. Unsleber
   
 * started run on 2025/12/08 at 00:34:21.548     
   ID    Z sym.   atoms
    1    6 C      1-10, 12-53
    2    7 N      11, 72
    3    1 H      54-71, 73, 74

           -------------------------------------------------
          |                Calculation Setup                |
           -------------------------------------------------

          program call               : xtb "C:\Users\LENOVO GAMING\Documents\GitHub\molecular-conductivity-sim\dataset\1nm-2Ndoped-3percent.xyz" --opt --parallel 4
          coordinate file            : C:\Users\LENOVO GAMING\Documents\GitHub\molecular-conductivity-sim\dataset\1nm-2Ndoped-3percent.xyz
          omp threads                :                     4


           -------------------------------------------------
          |                 G F N 2 - x T B                 |
           -------------------------------------------------

        Reference                      10.1021/acs.jctc.8b01176
      * Hamiltonian:
        H0-scaling (s, p, d)           1.850000    2.230000    2.230000
        zeta-weighting                 0.500000
      * Dispersion:
        s8                             2.700000
        a1                             0.520000
        a2                             5.000000
        s9                             5.000000
      * Repulsion:
        kExp                           1.500000    1.000000
        rExp                           1.000000
      * Coulomb:
        alpha                          2.000000
        third order                    shell-resolved
        anisotropic                    true
        a3                             3.000000
        a5                             4.000000
        cn-shift                       1.200000
        cn-exp                         4.000000
        max-rad                        5.000000


          ...................................................
          :                      SETUP                      :
          :.................................................:
          :  # basis functions                 236          :
          :  # atomic orbitals                 236          :
          :  # shells                          128          :
          :  # electrons                       238          :
          :  max. iterations                   250          :
          :  Hamiltonian                  GFN2-xTB          :
          :  restarted?                      false          :
          :  GBSA solvation                  false          :
          :  PC potential                    false          :
          :  electronic temp.          300.0000000     K    :
          :  accuracy                    1.0000000          :
          :  -> integral cutoff          0.2500000E+02      :
          :  -> integral neglect         0.1000000E-07      :
          :  -> SCF convergence          0.1000000E-05 Eh   :
          :  -> wf. convergence          0.1000000E-03 e    :
          :  Broyden damping             0.4000000          :
          :  net charge                          0          :
          :  unpaired electrons                  0          :
          ...................................................

 iter      E             dE          RMSdq      gap      omega  full diag
   1   -129.8589840 -0.129859E+03  0.474E+00    1.02       0.0  T
   2   -129.9543446 -0.953606E-01  0.315E+00    1.07       1.0  T
   3   -129.8652041  0.891405E-01  0.188E+00    1.25       1.0  T
   4   -130.0056109 -0.140407E+00  0.615E-01    1.00       1.0  T
   5   -130.0321472 -0.265363E-01  0.298E-01    1.11       1.0  T
   6   -130.0393811 -0.723393E-02  0.826E-02    1.06       1.0  T
   7   -130.0395155 -0.134380E-03  0.354E-02    1.06       1.0  T
   8   -130.0395402 -0.246642E-04  0.190E-02    1.06       1.0  T
   9   -130.0395574 -0.172771E-04  0.874E-03    1.06       1.3  T
  10   -130.0395614 -0.398906E-05  0.290E-03    1.06       4.0  T
  11   -130.0395619 -0.444588E-06  0.799E-04    1.06      14.6  T
  12   -130.0395619 -0.193712E-07  0.511E-04    1.06      22.7  T

   *** convergence criteria satisfied after 12 iterations ***

         #    Occupation            Energy/Eh            Energy/eV
      -------------------------------------------------------------
         1        2.0000           -0.6760730             -18.3969
       ...           ...                  ...                  ...
       113        2.0000           -0.3859482             -10.5022
       114        2.0000           -0.3850295             -10.4772
       115        2.0000           -0.3800053             -10.3405
       116        2.0000           -0.3695501             -10.0560
       117        2.0000           -0.3552104              -9.6658
       118        2.0000           -0.3394409              -9.2367
       119        2.0000           -0.3259323              -8.8691 (HOMO)
       120                         -0.2869690              -7.8088 (LUMO)
       121                         -0.2642886              -7.1917
       122                         -0.2544239              -6.9232
       123                         -0.2448181              -6.6618
       124                         -0.2343145              -6.3760
       ...                                ...                  ...
       236                          0.7415377              20.1783
      -------------------------------------------------------------
                  HL-Gap            0.0389633 Eh            1.0602 eV
             Fermi-level           -0.3064506 Eh           -8.3389 eV

 SCC (total)                   0 d,  0 h,  0 min,  0.270 sec
 SCC setup                      ...        0 min,  0.001 sec (  0.370%)
 Dispersion                     ...        0 min,  0.002 sec (  0.741%)
 classical contributions        ...        0 min,  0.000 sec (  0.000%)
 integral evaluation            ...        0 min,  0.013 sec (  4.815%)
 iterations                     ...        0 min,  0.196 sec ( 72.593%)
 molecular gradient             ...        0 min,  0.056 sec ( 20.741%)
 printout                       ...        0 min,  0.002 sec (  0.741%)

         :::::::::::::::::::::::::::::::::::::::::::::::::::::
         ::                     SUMMARY                     ::
         :::::::::::::::::::::::::::::::::::::::::::::::::::::
         :: total energy            -127.723470173723 Eh    ::
         :: gradient norm              0.036644681708 Eh/a0 ::
         :: HOMO-LUMO gap              1.060245601605 eV    ::
         ::.................................................::
         :: SCC energy              -130.041723595914 Eh    ::
         :: -> isotropic ES            0.011883888744 Eh    ::
         :: -> anisotropic ES          0.014184204012 Eh    ::
         :: -> anisotropic XC          0.055547213413 Eh    ::
         :: -> dispersion             -0.136217972365 Eh    ::
         :: repulsion energy           2.318253422191 Eh    ::
         :: add. restraining           0.000000000000 Eh    ::
         :: total charge              -0.000000000000 e     ::
         :::::::::::::::::::::::::::::::::::::::::::::::::::::

      ----------------------------------------------------------- 
     |                   =====================                   |
     |                        A N C O P T                        |
     |                   =====================                   |
     |               Approximate Normal Coordinate               |
     |                Rational Function Optimizer                |
      ----------------------------------------------------------- 
      ----------------------------------------------------------- 
     |                   =====================                   |
     |                        A N C O P T                        |
     |                   =====================                   |
     |               Approximate Normal Coordinate               |
     |                Rational Function Optimizer                |
      ----------------------------------------------------------- 

          ...................................................
          :                      SETUP                      :
          :.................................................:
          :   optimization level            normal          :
          :   max. optcycles                   222          :
          :   ANC micro-cycles                  20          :
          :   degrees of freedom               216          :
          :.................................................:
          :   RF solver                   davidson          :
          :   write xtbopt.log                true          :
          :   linear?                        false          :
          :   energy convergence         0.5000000E-05 Eh   :
          :   grad. convergence          0.1000000E-02 Eh/α :
          :   maxmium RF displ.          1.0000000          :
          :   Hlow (freq-cutoff)         0.1000000E-01      :
          :   Hmax (freq-cutoff)         5.0000000          :
          :   S6 in model hess.         20.0000000          :
          ...................................................

generating ANC from exact Hessian ...
Using Lindh-Hessian (1995)
 Shifting diagonal of input Hessian by   9.690381835478256E-003
 Lowest  eigenvalues of input Hessian
    0.000000    0.000000    0.000000    0.000000    0.000000    0.000000
    0.010000    0.010296    0.010754    0.011032    0.011385    0.012898
    0.013564    0.014158    0.014877    0.016305    0.017119    0.017427
 Highest eigenvalues
    2.036499    2.071364    2.094607    2.116695    2.183877    2.202354
 

........................................................................
.............................. CYCLE    1 ..............................
........................................................................

 iter      E             dE          RMSdq      gap      omega  full diag
   1   -130.0395619 -0.130040E+03  0.174E-04    1.06       0.0  T
   2   -130.0395619 -0.261736E-09  0.133E-04    1.06      87.2  T
   3   -130.0395619 -0.110478E-08  0.703E-05    1.06     165.4  T
     SCC iter.                  ...        0 min,  0.043 sec
     gradient                   ...        0 min,  0.046 sec
 * total energy  :  -127.7234702 Eh     change       -0.1166507E-07 Eh
   gradient norm :     0.0366449 Eh/α   predicted     0.0000000E+00 (-100.00%)
   displ. norm   :     0.3854335 α      lambda       -0.1034520E-01
   maximum displ.:     0.3307405 α      in ANC's #34, #49, #29, ...

........................................................................
.............................. CYCLE    2 ..............................
........................................................................

 iter      E             dE          RMSdq      gap      omega  full diag
   1   -130.1419878 -0.130142E+03  0.128E-01    1.07       0.0  T
   2   -130.1419993 -0.115104E-04  0.770E-02    1.07       1.0  T
   3   -130.1419183  0.810070E-04  0.379E-02    1.07       1.0  T
   4   -130.1420101 -0.917543E-04  0.509E-03    1.07       2.3  T
   5   -130.1420117 -0.164604E-05  0.300E-03    1.07       3.9  T
   6   -130.1420122 -0.514588E-06  0.133E-03    1.07       8.7  T
   7   -130.1420123 -0.780447E-07  0.573E-04    1.07      20.3  T
   8   -130.1420123 -0.143617E-07  0.225E-04    1.07      51.6  T
     SCC iter.                  ...        0 min,  0.128 sec
     gradient                   ...        0 min,  0.054 sec
 * total energy  :  -127.7306325 Eh     change       -0.7162332E-02 Eh
   gradient norm :     0.0133445 Eh/α   predicted    -0.5941086E-02 ( -17.05%)
   displ. norm   :     0.2643991 α      lambda       -0.2595754E-02
   maximum displ.:     0.2310612 α      in ANC's #34, #29, #15, ...

........................................................................
.............................. CYCLE    3 ..............................
........................................................................

 iter      E             dE          RMSdq      gap      omega  full diag
   1   -130.2009179 -0.130201E+03  0.812E-02    1.07       0.0  T
   2   -130.2009241 -0.619672E-05  0.502E-02    1.07       1.0  T
   3   -130.2008700  0.541338E-04  0.296E-02    1.07       1.0  T
   4   -130.2009318 -0.618167E-04  0.537E-03    1.07       2.2  T
   5   -130.2009341 -0.234798E-05  0.214E-03    1.07       5.4  T
   6   -130.2009344 -0.289166E-06  0.882E-04    1.07      13.2  T
   7   -130.2009344 -0.287080E-07  0.424E-04    1.07      27.4  T
     SCC iter.                  ...        0 min,  0.114 sec
     gradient                   ...        0 min,  0.054 sec
 * total energy  :  -127.7320269 Eh     change       -0.1394341E-02 Eh
   gradient norm :     0.0039032 Eh/α   predicted    -0.1388860E-02 (  -0.39%)
   displ. norm   :     0.0322421 α      lambda       -0.4585354E-04
   maximum displ.:     0.0225064 α      in ANC's #34, #29, #15, ...

........................................................................
.............................. CYCLE    4 ..............................
........................................................................

 iter      E             dE          RMSdq      gap      omega  full diag
   1   -130.2041639 -0.130204E+03  0.110E-02    1.07       0.0  T
   2   -130.2041640 -0.109080E-06  0.714E-03    1.06       1.6  T
   3   -130.2041623  0.166869E-05  0.488E-03    1.07       2.4  T
   4   -130.2041643 -0.197055E-05  0.112E-03    1.06      10.4  T
   5   -130.2041644 -0.104848E-06  0.358E-04    1.06      32.5  T
   6   -130.2041644 -0.943544E-08  0.119E-04    1.06      97.4  T
     SCC iter.                  ...        0 min,  0.091 sec
     gradient                   ...        0 min,  0.047 sec
 * total energy  :  -127.7320557 Eh     change       -0.2882326E-04 Eh
   gradient norm :     0.0018171 Eh/α   predicted    -0.2312199E-04 ( -19.78%)
   displ. norm   :     0.0165591 α      lambda       -0.7204436E-05
   maximum displ.:     0.0085370 α      in ANC's #29, #77, #34, ...

........................................................................
.............................. CYCLE    5 ..............................
........................................................................

 iter      E             dE          RMSdq      gap      omega  full diag
   1   -130.2038654 -0.130204E+03  0.734E-03    1.06       0.0  T
   2   -130.2038654 -0.565913E-07  0.440E-03    1.06       2.6  T
   3   -130.2038649  0.554816E-06  0.296E-03    1.06       3.9  T
   4   -130.2038655 -0.625872E-06  0.660E-04    1.06      17.6  T
   5   -130.2038655 -0.341067E-07  0.208E-04    1.06      55.8  T
     SCC iter.                  ...        0 min,  0.078 sec
     gradient                   ...        0 min,  0.048 sec
 * total energy  :  -127.7320612 Eh     change       -0.5552115E-05 Eh
   gradient norm :     0.0008362 Eh/α   predicted    -0.4279001E-05 ( -22.93%)
   displ. norm   :     0.0063408 α      lambda       -0.1164586E-05
   maximum displ.:     0.0041186 α      in ANC's #15, #34, #29, ...

........................................................................
.............................. CYCLE    6 ..............................
........................................................................

 iter      E             dE          RMSdq      gap      omega  full diag
   1   -130.2034083 -0.130203E+03  0.227E-03    1.06       0.0  T
   2   -130.2034083 -0.608381E-08  0.152E-03    1.06       7.6  T
   3   -130.2034083  0.443400E-07  0.101E-03    1.06      11.5  T
   4   -130.2034083 -0.641711E-07  0.319E-04    1.06      36.5  T
   5   -130.2034083 -0.879103E-08  0.730E-05    1.06     159.1  T
     SCC iter.                  ...        0 min,  0.078 sec
     gradient                   ...        0 min,  0.055 sec
 * total energy  :  -127.7320622 Eh     change       -0.1015540E-05 Eh
   gradient norm :     0.0002726 Eh/α   predicted    -0.5833044E-06 ( -42.56%)
   displ. norm   :     0.0017775 α      lambda       -0.1101143E-06
   maximum displ.:     0.0010981 α      in ANC's #15, #29, #77, ...

   *** GEOMETRY OPTIMIZATION CONVERGED AFTER 6 ITERATIONS ***

------------------------------------------------------------------------
 total energy gain   :        -0.0085921 Eh       -5.3916 kcal/mol
 total RMSD          :         0.0783579 a0        0.0415 Å
 total power (kW/mol):        -3.7597486 (step)  -22.4017 (real)
------------------------------------------------------------------------

 ANCopt (total)                0 d,  0 h,  0 min,  1.008 sec
 optimizer setup                ...        0 min,  0.001 sec (  0.099%)
 model hessian                  ...        0 min,  0.047 sec (  4.663%)
 ANC generation                 ...        0 min,  0.008 sec (  0.794%)
 coordinate transformation      ...        0 min,  0.000 sec (  0.000%)
 single point calculation       ...        0 min,  0.940 sec ( 93.254%)
 optimization log               ...        0 min,  0.009 sec (  0.893%)
 hessian update                 ...        0 min,  0.000 sec (  0.000%)
 rational function              ...        0 min,  0.002 sec (  0.198%)

================
 final structure:
================
74
 xtb: 6.7.1pre (5071a88)
C           -3.49607814897542        4.94193787403507        0.00045607111688
C           -5.58510598070894        3.76108755420273        0.00039112315684
C           -0.55883992675006        4.88470845572032        0.00014397686833
C           -4.88126232944227        4.94331767163311        0.00052248926418
C           -2.77188754903564        3.74937531932422        0.00027075489041
C           -4.90745926215617        2.53633738335684        0.00021484398314
C            5.10100727247768        4.68820486967952       -0.00046066418117
C            0.80610830005024        4.85413139775282        0.00002434598663
C            0.55875275507231       -4.89798522535020        0.00027688104537
C            2.94248191280350        3.59877113595571       -0.00018928449204
N           -5.62281427720179       -1.07807200691042       -0.00023549747667
C            5.02597611686026        2.29290361456584       -0.00029205676559
C           -3.60447492969792       -2.37085587296908       -0.00019479604947
C           -1.51653080024059       -3.65776733752973       -0.00002530366398
C           -1.32727480023714        3.70926764560548        0.00016719904192
C            0.77297208501194        2.43383910105063       -0.00001049644503
C            2.85813740676427        1.14525515250294       -0.00008653743229
C           -5.77117754529510       -3.46654282773862       -0.00050966214805
C            4.96308082420696       -0.12812224685548       -0.00006547719518
C           -3.75644147643240       -4.77772317909785       -0.00041485400039
C           -3.48763959512668        2.52793327198468        0.00017666132444
C            4.90831797598207       -2.55859469510861        0.00019513872628
C           -1.38061584287099        1.25080690215664        0.00004940206150
C            0.71284838128240       -0.02918529416698        0.00000797789772
C            2.80233533327293       -1.30201458897298        0.00006712605501
C           -5.61190210777820        1.31092954710493        0.00007043157194
C            2.77175271377403       -3.76652730404333        0.00027793732524
C           -3.51993718305207        0.07920015918228       -0.00003244439784
C            4.87978050007541       -4.96746017546849        0.00045483085323
C           -1.44316015328479       -1.19870339635371       -0.00003267762620
C            0.64694576076408       -2.48985211393348        0.00009337168354
C            3.75498273589907        4.78162038870702       -0.00032439981118
C           -4.94606143491619        0.11681361646195       -0.00006504097858
C            3.49102674496325       -4.95885373845219        0.00041609239425
C           -2.84803552047799       -1.15850063047542       -0.00008183856423
C           -0.77251145508013       -2.45608645779109        0.00000352149075
C            1.32524698367505       -3.72804424224895        0.00021603199431
C            1.51656087343424        3.64145678739288       -0.00005906489723
C            3.59247051401795        2.36210056677191       -0.00019090644768
C           -5.01457526914476       -2.30423537563688       -0.00031371371177
C            5.67811345428516        1.09824111869397       -0.00022268504107
C           -2.96145239908193       -3.62359819960690       -0.00020857961699
C           -0.81117812824830       -4.86521917197654        0.00014863120631
C           -0.64796626867031        2.47417328048477        0.00007367138628
C            1.44449793805861        1.18472622944985       -0.00003305053497
C            3.53322818245665       -0.09407476460275       -0.00003184964768
C           -5.13156123097055       -4.69551623573518       -0.00057403286925
C            5.61308016041310       -1.34488688263459        0.00005803482736
C           -2.79686171194324        1.28874547573811        0.00006156029656
C            5.58425885301508       -3.79027664728208        0.00034224786126
C           -0.71025016174844        0.01269997817167        0.00000707695715
C            1.38237859699523       -1.26646490715061        0.00005451197938
C            3.48634663769647       -2.54375772929201        0.00017693140914
H           -6.66551616932684        3.76452348738525        0.00043031790170
H            1.04127859608043       -5.86165066374609        0.00042010314710
H           -6.84993377145349       -3.40552726815692       -0.00061762024466
H           -3.30298904125092       -5.75462834811378       -0.00047248778159
H           -6.69277706052133        1.33054738264569        0.00006790569670
H            5.40274155727382       -5.91333972869237        0.00056925541555
H            2.98201528282505       -5.90880128191672        0.00049815772273
H           -1.34234514297289       -5.80306975023086        0.00020486523884
H           -5.72188248926621       -5.59997655463996       -0.00074288202223
H           -2.98981562003212        5.89328392898711        0.00056173937234
H           -1.04541780686619        5.84634502985186        0.00020702084755
H           -5.41023934058675        5.88576874403089        0.00067430482262
H            5.74142071274843        5.55728468788816       -0.00058089186796
H            1.33794457624512        5.79177754729713        0.00000585600141
H            3.30552997033520        5.75778104122329       -0.00033284396440
H            6.75858193986511        1.06662203763417       -0.00028582573218
H            6.69374303433007       -1.37121745422829        0.00005164510836
H            6.66475398500401       -3.79291907778583        0.00036525559387
N            5.72511180715953        3.48450585493638       -0.00045463969844
H            6.73249405220468        3.43361458112600       -0.00054914459932
H           -6.63222359653469       -1.04791544579682       -0.00029105161886
 
 Bond Distances (Angstroems)
 ---------------------------
C1-C4=1.3852         C1-C5=1.3952         C1-H63=1.0777        C2-C4=1.3759         C2-C6=1.3997         C2-H54=1.0804        
C3-C8=1.3653         C3-C15=1.4043        C3-H64=1.0777        C4-C1=1.3852         C4-C2=1.3759         C4-H65=1.0808        
C5-C1=1.3952         C5-C15=1.4452        C5-C21=1.4157        C6-C2=1.3997         C6-C21=1.4198        C6-C26=1.4135        
C7-C32=1.3493        C7-H66=1.0796        C7-N72=1.3559        C8-C3=1.3653         C8-C38=1.4055        C8-H67=1.0780        
C9-C37=1.3987        C9-C43=1.3703        C9-H55=1.0777        C10-C32=1.4350       C10-C38=1.4266       C10-C39=1.3971       
N11-C33=1.3732       N11-C40=1.3687       N11-H74=1.0099       C12-C39=1.4352       C12-C41=1.3611       C12-N72=1.3816       
C13-C35=1.4290       C13-C40=1.4117       C13-C42=1.4081       C14-C36=1.4134       C14-C42=1.4453       C14-C43=1.3984       
C15-C3=1.4043        C15-C5=1.4452        C15-C44=1.4096       C16-C38=1.4182       C16-C44=1.4215       C16-C45=1.4182       
C17-C39=1.4213       C17-C45=1.4142       C17-C46=1.4113       C18-C40=1.3869       C18-C47=1.3855       C18-H56=1.0805       
C19-C41=1.4196       C19-C46=1.4303       C19-C48=1.3795       C20-C42=1.4014       C20-C47=1.3776       C20-H57=1.0770       
C21-C5=1.4157        C21-C6=1.4198        C21-C49=1.4187       C22-C48=1.4035       C22-C50=1.4050       C22-C53=1.4220       
C23-C44=1.4260       C23-C49=1.4168       C23-C51=1.4079       C24-C45=1.4174       C24-C51=1.4237       C24-C52=1.4068       
C25-C46=1.4119       C25-C52=1.4204       C25-C53=1.4177       C26-C6=1.4135        C26-C33=1.3672       C26-H58=1.0811       
C27-C34=1.3925       C27-C37=1.4470       C27-C53=1.4163       C28-C33=1.4266       C28-C35=1.4083       C28-C49=1.4092       
C29-C34=1.3888       C29-C50=1.3719       C29-H59=1.0808       C30-C35=1.4055       C30-C36=1.4251       C30-C51=1.4159       
C31-C36=1.4199       C31-C37=1.4118       C31-C52=1.4274       C32-C7=1.3493        C32-C10=1.4350       C32-H68=1.0747       
C33-N11=1.3732       C33-C26=1.3672       C33-C28=1.4266       C34-C27=1.3925       C34-C29=1.3888       C34-H60=1.0777       
C35-C13=1.4290       C35-C28=1.4083       C35-C30=1.4055       C36-C14=1.4134       C36-C30=1.4251       C36-C31=1.4199       
C37-C9=1.3987        C37-C27=1.4470       C37-C31=1.4118       C38-C8=1.4055        C38-C10=1.4266       C38-C16=1.4182       
C39-C10=1.3971       C39-C12=1.4352       C39-C17=1.4213       C40-N11=1.3687       C40-C13=1.4117       C40-C18=1.3869       
C41-C12=1.3611       C41-C19=1.4196       C41-H69=1.0809       C42-C13=1.4081       C42-C14=1.4453       C42-C20=1.4014       
C43-C9=1.3703        C43-C14=1.3984       C43-H61=1.0778       C44-C15=1.4096       C44-C16=1.4215       C44-C23=1.4260       
C45-C16=1.4182       C45-C17=1.4142       C45-C24=1.4174       C46-C17=1.4113       C46-C19=1.4303       C46-C25=1.4119       
C47-C18=1.3855       C47-C20=1.3776       C47-H62=1.0801       C48-C19=1.3795       C48-C22=1.4035       C48-H70=1.0810       
C49-C21=1.4187       C49-C23=1.4168       C49-C28=1.4092       C50-C22=1.4050       C50-C29=1.3719       C50-H71=1.0805       
C51-C23=1.4079       C51-C24=1.4237       C51-C30=1.4159       C52-C24=1.4068       C52-C25=1.4204       C52-C31=1.4274       
C53-C22=1.4220       C53-C25=1.4177       C53-C27=1.4163       H54-C2=1.0804        H55-C9=1.0777        H56-C18=1.0805       
H57-C20=1.0770       H58-C26=1.0811       H59-C29=1.0808       H60-C34=1.0777       H61-C43=1.0778       H62-C47=1.0801       
H63-C1=1.0777        H64-C3=1.0777        H65-C4=1.0808        H66-C7=1.0796        H67-C8=1.0780        H68-C32=1.0747       
H69-C41=1.0809       H70-C48=1.0810       H71-C50=1.0805       N72-C7=1.3559        N72-C12=1.3816       N72-H73=1.0087       
H73-N72=1.0087       H74-N11=1.0099       
 C  H  Rav=1.0791 sigma=0.0018  Rmin=1.0747  Rmax=1.0811    18
 C  C  Rav=1.4079 sigma=0.0205  Rmin=1.3493  Rmax=1.4470    67
 N  H  Rav=1.0093 sigma=0.0006  Rmin=1.0087  Rmax=1.0099     2
 N  C  Rav=1.3698 sigma=0.0093  Rmin=1.3559  Rmax=1.3816     4
 
 selected bond angles (degree)
 --------------------
C5-C1-C4=121.33                H63-C1-C4=117.96               H63-C1-C5=120.71               C6-C2-C4=120.28                
H54-C2-C4=120.59               H54-C2-C6=119.14               C15-C3-C8=121.89               H64-C3-C8=118.12               
H64-C3-C15=119.99              C2-C4-C1=120.71                H65-C4-C1=119.36               H65-C4-C2=119.93               
C15-C5-C1=122.86               C21-C5-C1=118.36               C21-C5-C15=118.78              C21-C6-C2=119.29               
C26-C6-C2=121.15               C26-C6-C21=119.55              H66-C7-C32=122.42              N72-C7-C32=121.38              
N72-C7-H66=116.21              C38-C8-C3=121.65               H67-C8-C3=118.28               H67-C8-C38=120.07              
C43-C9-C37=121.86              H55-C9-C37=120.17              H55-C9-C43=117.97              C38-C10-C32=122.77             
C39-C10-C32=117.79             C39-C10-C38=119.44             
 
 selected dihedral angles (degree)
 ---------------------------------
C2-C4-C1-C5=  0.00            C2-C4-C1-H63=180.00           H65-C4-C1-C5=180.00           H65-C4-C1-H63=  0.00          
C1-C4-C2-C6=  0.00            C1-C4-C2-H54=180.00           H65-C4-C2-C6=180.00           H65-C4-C2-H54=  0.00          
C15-C5-C1-C4=180.00           C15-C5-C1-H63=  0.00          C21-C5-C1-C4=  0.00           C21-C5-C1-H63=180.00          
C21-C6-C2-C4=  0.00           C21-C6-C2-H54=180.00          C26-C6-C2-C4=180.00           C26-C6-C2-H54=  0.00          
C38-C8-C3-C15=  0.00          C38-C8-C3-H64=180.00          H67-C8-C3-C15=180.00          H67-C8-C3-H64=  0.00          
           -------------------------------------------------
          |                Final Singlepoint                |
           -------------------------------------------------

          ...................................................
          :                      SETUP                      :
          :.................................................:
          :  # basis functions                 236          :
          :  # atomic orbitals                 236          :
          :  # shells                          128          :
          :  # electrons                       238          :
          :  max. iterations                   250          :
          :  Hamiltonian                  GFN2-xTB          :
          :  restarted?                      false          :
          :  GBSA solvation                  false          :
          :  PC potential                    false          :
          :  electronic temp.          300.0000000     K    :
          :  accuracy                    1.0000000          :
          :  -> integral cutoff          0.2500000E+02      :
          :  -> integral neglect         0.1000000E-07      :
          :  -> SCF convergence          0.1000000E-05 Eh   :
          :  -> wf. convergence          0.1000000E-03 e    :
          :  Broyden damping             0.4000000          :
          :  net charge                          0          :
          :  unpaired electrons                  0          :
          ...................................................

 iter      E             dE          RMSdq      gap      omega  full diag
   1   -130.2034083 -0.130203E+03  0.265E-05    1.06       0.0  T
   2   -130.2034083  0.204636E-11  0.193E-05    1.06     602.6  T
   3   -130.2034083 -0.164277E-10  0.119E-05    1.06     978.1  T

   *** convergence criteria satisfied after 3 iterations ***

         #    Occupation            Energy/Eh            Energy/eV
      -------------------------------------------------------------
         1        2.0000           -0.6788292             -18.4719
       ...           ...                  ...                  ...
       113        2.0000           -0.3849263             -10.4744
       114        2.0000           -0.3837914             -10.4435
       115        2.0000           -0.3813782             -10.3778
       116        2.0000           -0.3705567             -10.0834
       117        2.0000           -0.3557048              -9.6792
       118        2.0000           -0.3394173              -9.2360
       119        2.0000           -0.3257480              -8.8641 (HOMO)
       120                         -0.2866957              -7.8014 (LUMO)
       121                         -0.2630323              -7.1575
       122                         -0.2529453              -6.8830
       123                         -0.2433564              -6.6221
       124                         -0.2320016              -6.3131
       ...                                ...                  ...
       236                          0.7768241              21.1385
      -------------------------------------------------------------
                  HL-Gap            0.0390524 Eh            1.0627 eV
             Fermi-level           -0.3062219 Eh           -8.3327 eV

 SCC (total)                   0 d,  0 h,  0 min,  0.109 sec
 SCC setup                      ...        0 min,  0.001 sec (  0.918%)
 Dispersion                     ...        0 min,  0.002 sec (  1.835%)
 classical contributions        ...        0 min,  0.000 sec (  0.000%)
 integral evaluation            ...        0 min,  0.013 sec ( 11.927%)
 iterations                     ...        0 min,  0.042 sec ( 38.532%)
 molecular gradient             ...        0 min,  0.049 sec ( 44.954%)
 printout                       ...        0 min,  0.002 sec (  1.835%)

         :::::::::::::::::::::::::::::::::::::::::::::::::::::
         ::                     SUMMARY                     ::
         :::::::::::::::::::::::::::::::::::::::::::::::::::::
         :: total energy            -127.732062249830 Eh    ::
         :: gradient norm              0.000273038138 Eh/a0 ::
         :: HOMO-LUMO gap              1.062668818009 eV    ::
         ::.................................................::
         :: SCC energy              -130.205584226748 Eh    ::
         :: -> isotropic ES            0.012349555337 Eh    ::
         :: -> anisotropic ES          0.013566791925 Eh    ::
         :: -> anisotropic XC          0.052051259085 Eh    ::
         :: -> dispersion             -0.137949742511 Eh    ::
         :: repulsion energy           2.473521976918 Eh    ::
         :: add. restraining           0.000000000000 Eh    ::
         :: total charge              -0.000000000000 e     ::
         :::::::::::::::::::::::::::::::::::::::::::::::::::::

           -------------------------------------------------
          |                Property Printout                |
           -------------------------------------------------

    * Orbital Energies and Occupations

         #    Occupation            Energy/Eh            Energy/eV
      -------------------------------------------------------------
         1        2.0000           -0.6788292             -18.4719
       ...           ...                  ...                  ...
       107        2.0000           -0.4007409             -10.9047
       108        2.0000           -0.4001281             -10.8880
       109        2.0000           -0.3978592             -10.8263
       110        2.0000           -0.3963334             -10.7848
       111        2.0000           -0.3920672             -10.6687
       112        2.0000           -0.3880254             -10.5587
       113        2.0000           -0.3849263             -10.4744
       114        2.0000           -0.3837914             -10.4435
       115        2.0000           -0.3813782             -10.3778
       116        2.0000           -0.3705567             -10.0834
       117        2.0000           -0.3557048              -9.6792
       118        2.0000           -0.3394173              -9.2360
       119        2.0000           -0.3257480              -8.8641 (HOMO)
       120                         -0.2866957              -7.8014 (LUMO)
       121                         -0.2630323              -7.1575
       122                         -0.2529453              -6.8830
       123                         -0.2433564              -6.6221
       124                         -0.2320016              -6.3131
       125                         -0.2269548              -6.1758
       126                         -0.2263503              -6.1593
       127                         -0.2209822              -6.0132
       128                         -0.2190029              -5.9594
       129                         -0.2082050              -5.6655
       130                         -0.1996782              -5.4335
       ...                                ...                  ...
       236                          0.7768241              21.1385
      -------------------------------------------------------------
                  HL-Gap            0.0390524 Eh            1.0627 eV
             Fermi-level           -0.3062219 Eh           -8.3327 eV

     #   Z          covCN         q      C6AA      α(0)
     1   6 C        2.921    -0.044    29.086     8.844
     2   6 C        2.922    -0.044    29.094     8.845
     3   6 C        2.918    -0.038    28.955     8.824
     4   6 C        2.913    -0.031    28.784     8.798
     5   6 C        2.977     0.005    27.908     8.666
     6   6 C        2.984     0.013    27.723     8.637
     7   6 C        2.847     0.025    27.440     8.585
     8   6 C        2.917    -0.038    28.955     8.824
     9   6 C        2.919    -0.038    28.955     8.824
    10   6 C        2.980     0.011    27.762     8.643
    11   7 N        2.706    -0.124    23.693     7.229
    12   6 C        2.915     0.059    26.682     8.470
    13   6 C        2.995    -0.010    28.252     8.719
    14   6 C        2.979     0.002    27.984     8.677
    15   6 C        2.978     0.004    27.933     8.669
    16   6 C        2.989     0.000    28.009     8.681
    17   6 C        2.988    -0.002    28.079     8.692
    18   6 C        2.920    -0.067    29.662     8.931
    19   6 C        2.978     0.011    27.761     8.643
    20   6 C        2.920    -0.049    29.229     8.866
    21   6 C        2.995    -0.005    28.143     8.702
    22   6 C        2.982     0.011    27.771     8.644
    23   6 C        2.987    -0.004    28.114     8.698
    24   6 C        2.987    -0.002    28.063     8.690
    25   6 C        2.986    -0.000    28.030     8.685
    26   6 C        2.922    -0.084    30.101     8.997
    27   6 C        2.976     0.004    27.926     8.668
    28   6 C        2.994    -0.007    28.187     8.709
    29   6 C        2.913    -0.032    28.793     8.799
    30   6 C        2.988    -0.006    28.159     8.705
    31   6 C        2.989     0.000    28.014     8.682
    32   6 C        2.913    -0.065    29.606     8.922
    33   6 C        2.911     0.064    26.576     8.453
    34   6 C        2.922    -0.042    29.045     8.838
    35   6 C        2.989     0.003    27.952     8.673
    36   6 C        2.989     0.001    28.005     8.681
    37   6 C        2.978     0.005    27.915     8.667
    38   6 C        2.980    -0.001    28.055     8.688
    39   6 C        2.992    -0.002    28.076     8.692
    40   6 C        2.918     0.067    26.490     8.440
    41   6 C        2.920    -0.092    30.298     9.026
    42   6 C        2.978     0.006    27.882     8.661
    43   6 C        2.919    -0.038    28.935     8.821
    44   6 C        2.989     0.001    27.998     8.680
    45   6 C        2.988    -0.005    28.136     8.701
    46   6 C        2.992    -0.002    28.058     8.689
    47   6 C        2.917    -0.030    28.737     8.791
    48   6 C        2.925    -0.059    29.477     8.904
    49   6 C        2.989    -0.001    28.045     8.687
    50   6 C        2.922    -0.041    29.024     8.835
    51   6 C        2.988    -0.001    28.034     8.685
    52   6 C        2.985    -0.002    28.058     8.689
    53   6 C        2.994    -0.003    28.097     8.695
    54   1 H        0.926     0.024     2.672     2.556
    55   1 H        0.926     0.032     2.562     2.503
    56   1 H        0.926     0.022     2.705     2.572
    57   1 H        0.926     0.032     2.562     2.503
    58   1 H        0.926     0.018     2.758     2.597
    59   1 H        0.926     0.024     2.680     2.560
    60   1 H        0.926     0.027     2.635     2.539
    61   1 H        0.926     0.031     2.569     2.506
    62   1 H        0.926     0.030     2.587     2.515
    63   1 H        0.926     0.027     2.633     2.537
    64   1 H        0.926     0.031     2.570     2.507
    65   1 H        0.926     0.024     2.669     2.555
    66   1 H        0.926     0.038     2.478     2.462
    67   1 H        0.926     0.029     2.603     2.523
    68   1 H        0.926     0.040     2.454     2.450
    69   1 H        0.926     0.015     2.811     2.622
    70   1 H        0.926     0.022     2.708     2.574
    71   1 H        0.926     0.025     2.661     2.551
    72   7 N        2.704    -0.101    23.219     7.157
    73   1 H        0.860     0.167     1.290     1.779
    74   1 H        0.860     0.164     1.312     1.795

 Mol. C6AA /au·bohr⁶  :     100941.211310
 Mol. C8AA /au·bohr⁸  :    2697197.394195
 Mol. α(0) /au        :        517.326429


Wiberg/Mayer (AO) data.
largest (>0.10) Wiberg bond orders for each atom

 ---------------------------------------------------------------------------
     #   Z sym  total        # sym  WBO       # sym  WBO       # sym  WBO
 ---------------------------------------------------------------------------
     1   6 C    3.937 --     4 C    1.418     5 C    1.376    63 H    0.962
     2   6 C    3.942 --     4 C    1.468     6 C    1.323    54 H    0.969
     3   6 C    3.968 --     8 C    1.533    15 C    1.306    64 H    0.961
     4   6 C    3.982 --     2 C    1.468     1 C    1.418    65 H    0.971
     5   6 C    3.980 --     1 C    1.376    21 C    1.266    15 C    1.143
     6   6 C    3.985 --     2 C    1.323    26 C    1.246    21 C    1.245
     7   6 C    3.941 --    32 C    1.631    72 N    1.215    66 H    0.966
     8   6 C    3.951 --     3 C    1.533    38 C    1.295    67 H    0.962
     9   6 C    3.971 --    43 C    1.496    37 C    1.337    55 H    0.961
    10   6 C    3.936 --    39 C    1.356    38 C    1.206    32 C    1.180
    11   7 N    3.494 --    40 C    1.153    33 C    1.135    74 H    0.938
    12   6 C    3.946 --    41 C    1.517    39 C    1.158    72 N    1.112
    13   6 C    3.978 --    42 C    1.297    40 C    1.258    35 C    1.182
    14   6 C    3.969 --    43 C    1.335    36 C    1.289    42 C    1.142
    15   6 C    3.947 --     3 C    1.306    44 C    1.305     5 C    1.143
    16   6 C    3.977 --    38 C    1.260    44 C    1.246    45 C    1.245
    17   6 C    3.973 --    46 C    1.274    45 C    1.255    39 C    1.224
    18   6 C    3.960 --    47 C    1.411    40 C    1.374    56 H    0.968
    19   6 C    3.987 --    48 C    1.425    41 C    1.211    46 C    1.186
    20   6 C    3.962 --    47 C    1.468    42 C    1.342    57 H    0.962
    21   6 C    3.979 --     5 C    1.266     6 C    1.245    49 C    1.235
    22   6 C    3.985 --    50 C    1.296    48 C    1.289    53 C    1.233
    23   6 C    3.968 --    51 C    1.293    49 C    1.242    44 C    1.205
    24   6 C    3.972 --    52 C    1.300    45 C    1.242    51 C    1.206
    25   6 C    3.978 --    46 C    1.277    53 C    1.245    52 C    1.231
    26   6 C    3.942 --    33 C    1.480     6 C    1.246    58 H    0.965
    27   6 C    3.983 --    34 C    1.392    53 C    1.263    37 C    1.133
    28   6 C    3.962 --    49 C    1.276    35 C    1.275    33 C    1.179
    29   6 C    3.983 --    50 C    1.493    34 C    1.395    59 H    0.971
    30   6 C    3.975 --    35 C    1.287    51 C    1.249    36 C    1.208
    31   6 C    3.982 --    37 C    1.293    36 C    1.257    52 C    1.206
    32   6 C    3.960 --     7 C    1.631    10 C    1.180    68 H    0.961
    33   6 C    3.962 --    26 C    1.480    28 C    1.179    11 N    1.135
    34   6 C    3.926 --    29 C    1.395    27 C    1.392    60 H    0.962
    35   6 C    3.963 --    30 C    1.287    28 C    1.275    13 C    1.182
    36   6 C    3.981 --    14 C    1.289    31 C    1.257    30 C    1.208
    37   6 C    3.959 --     9 C    1.337    31 C    1.293    27 C    1.133
    38   6 C    3.971 --     8 C    1.295    16 C    1.260    10 C    1.206
    39   6 C    3.978 --    10 C    1.356    17 C    1.224    12 C    1.158
    40   6 C    3.960 --    18 C    1.374    13 C    1.258    11 N    1.153
    41   6 C    3.955 --    12 C    1.517    19 C    1.211    69 H    0.965
    42   6 C    3.975 --    20 C    1.342    13 C    1.297    14 C    1.142
    43   6 C    3.963 --     9 C    1.496    14 C    1.335    61 H    0.961
    44   6 C    3.984 --    15 C    1.305    16 C    1.246    23 C    1.205
    45   6 C    3.978 --    17 C    1.255    16 C    1.245    24 C    1.242
    46   6 C    3.965 --    25 C    1.277    17 C    1.274    19 C    1.186
    47   6 C    3.978 --    20 C    1.468    18 C    1.411    62 H    0.971
    48   6 C    3.910 --    19 C    1.425    22 C    1.289    70 H    0.967
    49   6 C    3.976 --    28 C    1.276    23 C    1.242    21 C    1.235
    50   6 C    3.928 --    29 C    1.493    22 C    1.296    71 H    0.969
    51   6 C    3.972 --    23 C    1.293    30 C    1.249    24 C    1.206
    52   6 C    3.956 --    24 C    1.300    25 C    1.231    31 C    1.206
    53   6 C    3.972 --    27 C    1.263    25 C    1.245    22 C    1.233
    54   1 H    0.998 --     2 C    0.969
    55   1 H    0.998 --     9 C    0.961
    56   1 H    0.999 --    18 C    0.968
    57   1 H    0.998 --    20 C    0.962
    58   1 H    0.998 --    26 C    0.965
    59   1 H    0.998 --    29 C    0.971
    60   1 H    0.999 --    34 C    0.962
    61   1 H    0.998 --    43 C    0.961
    62   1 H    0.998 --    47 C    0.971
    63   1 H    0.999 --     1 C    0.962
    64   1 H    0.998 --     3 C    0.961
    65   1 H    0.999 --     4 C    0.971
    66   1 H    0.997 --     7 C    0.966
    67   1 H    0.998 --     8 C    0.962
    68   1 H    0.998 --    32 C    0.961
    69   1 H    0.998 --    41 C    0.965
    70   1 H    0.998 --    48 C    0.967
    71   1 H    0.998 --    50 C    0.969
    72   7 N    3.520 --     7 C    1.215    12 C    1.112    73 H    0.942
    73   1 H    0.971 --    72 N    0.942
    74   1 H    0.972 --    11 N    0.938
 ---------------------------------------------------------------------------

Topologies differ in total number of bonds
Writing topology from bond orders to xtbtopo.mol

molecular dipole:
                 x           y           z       tot (Debye)
 q only:        0.353       0.869      -0.000
   full:        0.354       0.952      -0.000       2.582
molecular quadrupole (traceless):
                xx          xy          yy          xz          yz          zz
 q only:       19.917      28.150      -2.543      -0.002      -0.002     -17.374
  q+dip:       41.892      31.754       7.064      -0.002      -0.002     -48.956
   full:       31.951      32.152      -2.715      -0.002      -0.002     -29.235

           -------------------------------------------------
          |                Geometry Summary                 |
           -------------------------------------------------

      molecular mass/u    :      672.7304882
   center of mass at/Å    :        0.0002207       0.0004113       0.0000038
  moments of inertia/u·Å² :        0.6906086E+04   0.9268744E+04   0.1617483E+05
rotational constants/cm⁻¹ :        0.2440982E-02   0.1818761E-02   0.1042214E-02

 * 87 selected distances

     #   Z          #   Z                                           value/Å
     1   6 C        4   6 C                                       1.3851850
     2   6 C        4   6 C                                       1.3758867
     1   6 C        5   6 C                                       1.3952268
     2   6 C        6   6 C                                       1.3997208
     3   6 C        8   6 C                                       1.3652908
     3   6 C       15   6 C                                       1.4043339
     5   6 C       21   6 C                                       1.4157055
     6   6 C       21   6 C                                       1.4198447
     6   6 C       26   6 C                                       1.4134583
     7   6 C       32   6 C                                       1.3492623
    11   7 N       33   6 C                                       1.3732248
    26   6 C       33   6 C                                       1.3672077
    28   6 C       33   6 C                                       1.4266203
    27   6 C       34   6 C                                       1.3924790
    29   6 C       34   6 C                                       1.3887806
    13   6 C       35   6 C                                       1.4289878
    28   6 C       35   6 C                                       1.4083165
    30   6 C       35   6 C                                       1.4054506
    14   6 C       36   6 C                                       1.4133655
    30   6 C       36   6 C                                       1.4250552
    31   6 C       36   6 C                                       1.4198589
     9   6 C       37   6 C                                       1.3986693
    31   6 C       37   6 C                                       1.4118118
     8   6 C       38   6 C                                       1.4054618
    10   6 C       38   6 C                                       1.4265599
    16   6 C       38   6 C                                       1.4181908
    10   6 C       39   6 C                                       1.3970825
    12   6 C       39   6 C                                       1.4351749 (max)
    17   6 C       39   6 C                                       1.4212524
    11   7 N       40   6 C                                       1.3687336
    13   6 C       40   6 C                                       1.4116733
    18   6 C       40   6 C                                       1.3868691
    12   6 C       41   6 C                                       1.3610665
    19   6 C       41   6 C                                       1.4195912
    13   6 C       42   6 C                                       1.4081341
    20   6 C       42   6 C                                       1.4014323
     9   6 C       43   6 C                                       1.3703228
    14   6 C       43   6 C                                       1.3983786
    15   6 C       44   6 C                                       1.4095810
    16   6 C       44   6 C                                       1.4215108
    23   6 C       44   6 C                                       1.4259737
    16   6 C       45   6 C                                       1.4181785
    17   6 C       45   6 C                                       1.4141905
    24   6 C       45   6 C                                       1.4173541
    17   6 C       46   6 C                                       1.4112713
    19   6 C       46   6 C                                       1.4302581
    25   6 C       46   6 C                                       1.4118510
    18   6 C       47   6 C                                       1.3854548
    20   6 C       47   6 C                                       1.3775749
    19   6 C       48   6 C                                       1.3794983
    22   6 C       48   6 C                                       1.4034874
    21   6 C       49   6 C                                       1.4187180
    23   6 C       49   6 C                                       1.4167541
    28   6 C       49   6 C                                       1.4091978
    22   6 C       50   6 C                                       1.4049686
    29   6 C       50   6 C                                       1.3718787
    23   6 C       51   6 C                                       1.4079415
    24   6 C       51   6 C                                       1.4237149
    30   6 C       51   6 C                                       1.4158586
    24   6 C       52   6 C                                       1.4068162
    25   6 C       52   6 C                                       1.4204018
    31   6 C       52   6 C                                       1.4274236
    22   6 C       53   6 C                                       1.4220489
    25   6 C       53   6 C                                       1.4176734
    27   6 C       53   6 C                                       1.4162663
     2   6 C       54   1 H                                       1.0804158
     9   6 C       55   1 H                                       1.0777210
    18   6 C       56   1 H                                       1.0804805
    20   6 C       57   1 H                                       1.0770158
    26   6 C       58   1 H                                       1.0810531
    29   6 C       59   1 H                                       1.0808222
    34   6 C       60   1 H                                       1.0777260
    43   6 C       61   1 H                                       1.0778230
    47   6 C       62   1 H                                       1.0800592
     1   6 C       63   1 H                                       1.0776647
     3   6 C       64   1 H                                       1.0777306
     4   6 C       65   1 H                                       1.0807548
     7   6 C       66   1 H                                       1.0795505
     8   6 C       67   1 H                                       1.0779751
    32   6 C       68   1 H                                       1.0746616
    41   6 C       69   1 H                                       1.0809311
    48   6 C       70   1 H                                       1.0809837
    50   6 C       71   1 H                                       1.0804985
     7   6 C       72   7 N                                       1.3558754
    12   6 C       72   7 N                                       1.3815596
    72   7 N       73   1 H                                       1.0086670 (min)
    11   7 N       74   1 H                                       1.0098598

 * 4 distinct bonds (by element types)

   Z      Z             #   av. dist./Å        max./Å        min./Å
   1 H    6 C          18     1.0791037     1.0810531     1.0746616
   6 C    6 C          63     1.4056755     1.4351749     1.3492623
   1 H    7 N           2     1.0092634     1.0098598     1.0086670
   6 C    7 N           4     1.3698484     1.3815596     1.3558754


optimized geometry written to: xtbopt.xyz


           -------------------------------------------------
          | TOTAL ENERGY             -127.732062249830 Eh   |
          | GRADIENT NORM               0.000273038138 Eh/α |
          | HOMO-LUMO GAP               1.062668818009 eV   |
           -------------------------------------------------

------------------------------------------------------------------------
 * finished run on 2025/12/08 at 00:34:23.016     
------------------------------------------------------------------------
 total:
 * wall-time:     0 d,  0 h,  0 min,  1.464 sec
 *  cpu-time:     0 d,  0 h,  0 min,  5.750 sec
 * ratio c/w:     3.928 speedup
 SCF:
 * wall-time:     0 d,  0 h,  0 min,  0.271 sec
 *  cpu-time:     0 d,  0 h,  0 min,  1.125 sec
 * ratio c/w:     4.151 speedup
 ANC optimizer:
 * wall-time:     0 d,  0 h,  0 min,  1.123 sec
 *  cpu-time:     0 d,  0 h,  0 min,  4.438 sec
 * ratio c/w:     3.951 speedup

normal termination of xtb
