74
 energy: -127.723470185388 gnorm: 0.036644863065 xtb: 6.7.1pre (5071a88)
C           -3.51537100000000        4.98238900000000        0.00048700000000
C           -5.62409900000000        3.79137600000000        0.00041700000000
C           -0.55776600000000        4.91873200000000        0.00016100000000
C           -4.91181500000000        4.98224800000000        0.00054100000000
C           -2.79165300000000        3.77814000000000        0.00029300000000
C           -4.94733500000000        2.55470400000000        0.00024900000000
C            5.12933300000000        4.72820200000000       -0.00049900000000
C            0.81611200000000        4.88625200000000        0.00006000000000
C            0.55933000000000       -4.93378100000000        0.00032300000000
C            2.96934100000000        3.62695900000000       -0.00016300000000
N           -5.66198700000000       -1.08602000000000       -0.00021800000000
C            5.06679000000000        2.30921200000000       -0.00032200000000
C           -3.63453500000000       -2.39020800000000       -0.00030000000000
C           -1.52916200000000       -3.68509000000000       -0.00002000000000
C           -1.33201300000000        3.73551000000000        0.00016500000000
C            0.78105500000000        2.44902700000000       -0.00008200000000
C            2.88107600000000        1.15292800000000       -0.00012800000000
C           -5.81632000000000       -3.49480200000000       -0.00054700000000
C            5.00987700000000       -0.12630900000000       -0.00003500000000
C           -3.78279500000000       -4.81963100000000       -0.00036500000000
C           -3.51407200000000        2.54841700000000        0.00018500000000
C            4.94966700000000       -2.57719000000000        0.00018400000000
C           -1.39310300000000        1.25745900000000       -0.00001100000000
C            0.71896800000000       -0.03082200000000       -0.00001400000000
C            2.82444900000000       -1.31133500000000        0.00005600000000
C           -5.65725300000000        1.32060400000000        0.00012200000000
C            2.79286200000000       -3.79665500000000        0.00028600000000
C           -3.54789700000000        0.07920700000000       -0.00005500000000
C            4.91280400000000       -5.00641400000000        0.00046100000000
C           -1.45936600000000       -1.20609100000000       -0.00005900000000
C            0.64973700000000       -2.50910300000000        0.00011600000000
C            3.77439400000000        4.82310000000000       -0.00030100000000
C           -4.98680800000000        0.12053500000000       -0.00003700000000
C            3.51252300000000       -5.00004400000000        0.00040600000000
C           -2.87325600000000       -1.16670500000000       -0.00015300000000
C           -0.78198600000000       -2.47482100000000        0.00001000000000
C            1.33128600000000       -3.75581800000000        0.00023300000000
C            1.52843100000000        3.66428400000000       -0.00002800000000
C            3.62060100000000        2.38219700000000       -0.00020600000000
C           -5.05417000000000       -2.32589200000000       -0.00033600000000
C            5.72780400000000        1.10829100000000       -0.00021300000000
C           -2.98897600000000       -3.65247700000000       -0.00026500000000
C           -0.81907800000000       -4.90074700000000        0.00020000000000
C           -0.65201300000000        2.49047600000000        0.00001000000000
C            1.45789500000000        1.18952900000000       -0.00009100000000
C            3.56233600000000       -0.09516900000000       -0.00004000000000
C           -5.16837300000000       -4.73219000000000       -0.00057300000000
C            5.65790600000000       -1.35326000000000        0.00010000000000
C           -2.81995600000000        1.29669900000000        0.00003000000000
C            5.62517800000000       -3.82068400000000        0.00034700000000
C           -0.71896400000000        0.01194900000000       -0.00002200000000
C            1.39317800000000       -1.27478300000000        0.00007500000000
C            3.51397000000000       -2.56497700000000        0.00017300000000
H           -6.71093400000000        3.79917100000000        0.00045900000000
H            1.04424800000000       -5.90241000000000        0.00048300000000
H           -6.90103000000000       -3.43520700000000       -0.00078200000000
H           -3.32367200000000       -5.80033500000000       -0.00038400000000
H           -6.74420700000000        1.33710000000000        0.00015400000000
H            5.43982500000000       -5.95691400000000        0.00061500000000
H            2.99596800000000       -5.95230600000000        0.00046500000000
H           -1.35220300000000       -5.84391100000000        0.00028900000000
H           -5.76258800000000       -5.64162300000000       -0.00087300000000
H           -3.00126100000000        5.93590700000000        0.00060500000000
H           -1.04500400000000        5.88609800000000        0.00021200000000
H           -5.44379400000000        5.92987000000000        0.00067600000000
H            5.78219000000000        5.59255600000000       -0.00060400000000
H            1.35043600000000        5.82848200000000        0.00003800000000
H            3.32904600000000        5.80736300000000       -0.00024500000000
H            6.81454400000000        1.08432800000000       -0.00029900000000
H            6.74515900000000       -1.38014500000000        0.00012700000000
H            6.71219300000000       -3.82808600000000        0.00040800000000
N            5.75432700000000        3.51605300000000       -0.00055100000000
H            6.76548900000000        3.48609600000000       -0.00066800000000
H           -6.67340400000000       -1.05682300000000       -0.00023900000000
74
 energy: -127.730632517182 gnorm: 0.013344513771 xtb: 6.7.1pre (5071a88)
C           -3.50753779696206        4.95665135035872        0.00047662355992
C           -5.60125587600042        3.77401248287473        0.00041512914886
C           -0.55796301507405        4.89548473609497        0.00015210429358
C           -4.89526965827477        4.95763304824725        0.00053869990210
C           -2.78237545426017        3.76061633758815        0.00027802418171
C           -4.92504105840358        2.54460645322260        0.00024210944592
C            5.11382625176044        4.70501910204283       -0.00048047863816
C            0.80981528628349        4.86386008612287        0.00004225235317
C            0.55867741303977       -4.91029157256561        0.00031507941917
C            2.95598900026763        3.60998127383280       -0.00018209279149
N           -5.64008274425770       -1.08163501957019       -0.00022881448628
C            5.04475049245938        2.29916400468323       -0.00031949731322
C           -3.61890655438872       -2.37961254611921       -0.00023824494088
C           -1.52291489144133       -3.66855173276176       -0.00001740302541
C           -1.33025636989816        3.71882839578847        0.00015902818639
C            0.77672665731620        2.43961294197348       -0.00004426137441
C            2.86914188353221        1.14828304937723       -0.00010962400124
C           -5.79171577509926       -3.47812001820582       -0.00057567237409
C            4.98429072793418       -0.12751162065843       -0.00005314863030
C           -3.77241388050821       -4.79317961339483       -0.00039863818275
C           -3.50012663896417        2.53650298220496        0.00018018330689
C            4.92680933386726       -2.56684006454117        0.00020651522523
C           -1.38658907189783        1.25316498917049        0.00000796797439
C            0.71612919195347       -0.03051069036725       -0.00001931837466
C            2.81360428238291       -1.30600264319533        0.00006242886786
C           -5.63091815829324        1.31545922694222        0.00011220223814
C            2.78319781932857       -3.77881719919430        0.00027666292765
C           -3.53272319268872        0.07914674775069       -0.00005591107177
C            4.89561948265916       -4.98155934335429        0.00046406628010
C           -1.45087458578093       -1.20213280759531       -0.00006198788248
C            0.64873275164593       -2.49823793307759        0.00009960810223
C            3.76566486502761        4.79829845174108       -0.00029465682407
C           -4.96436800041917        0.11902719194229       -0.00005135884875
C            3.50417385743243       -4.97415920685386        0.00040809243326
C           -2.85996513939306       -1.16234970221075       -0.00012583815762
C           -0.77662746983715       -2.46432909635175       -0.00000231547472
C            1.32909972072913       -3.73891481527922        0.00022956124401
C            1.52238012980344        3.64920981088179       -0.00005626276067
C            3.60575366480051        2.37061180001281       -0.00020715633049
C           -5.03274796101519       -2.31424516471913       -0.00034590849792
C            5.69952383005972        1.10309208503903       -0.00022144439221
C           -2.97554975430396       -3.63564764934983       -0.00021591728539
C           -0.81395785811789       -4.87749035630672        0.00018770453926
C           -0.64994990616344        2.48063516145338        0.00003863843386
C            1.45123676384678        1.18609237516425       -0.00006815946389
C            3.54700293528972       -0.09456358030084       -0.00003812273219
C           -5.14988863360189       -4.70865780242565       -0.00062010711259
C            5.63166875565704       -1.34880408713993        0.00008915117947
C           -2.80771556450255        1.29202300861702        0.00003890048218
C            5.60183640733845       -3.80287715439832        0.00035992075045
C           -0.71426152947833        0.01196261616826       -0.00002541459025
C            1.38834506826131       -1.27016289195224        0.00004937934729
C            3.49973966511856       -2.55295004149092        0.00017755170936
H           -6.68393485461253        3.78370568007579        0.00045583988505
H            1.04028765057381       -5.87671997271698        0.00047653015252
H           -6.87265548432092       -3.42156442496921       -0.00072606033733
H           -3.32048200654688       -5.77253724504357       -0.00039537346613
H           -6.71413461817017        1.33465867592048        0.00014338086716
H            5.42139089307036       -5.92870391582800        0.00059140175459
H            2.99532245697805       -5.92610274523866        0.00047371588384
H           -1.34423499637152       -5.81826886988372        0.00027242104547
H           -5.74282525961767       -5.61467321497737       -0.00080515735165
H           -3.00079025519399        5.90963889748934        0.00059422975163
H           -1.04264668984489        5.86029495977051        0.00021931762050
H           -5.42624487355033        5.90176406592660        0.00067876269991
H            5.76183801681838        5.57044894398907       -0.00060785699615
H            1.34136705482947        5.80382867407234        0.00004367669021
H            3.32168195021332        5.77888296799204       -0.00025427054187
H            6.78249315358316        1.07711207476049       -0.00028996954402
H            6.71507840057449       -1.37669282284765        0.00011185340806
H            6.68466472837071       -3.81184796591752        0.00039601747992
N            5.73770483049447        3.49804599144818       -0.00053028587424
H            6.74718182075973        3.46333780760521       -0.00065063214987
H           -6.65069261680633       -1.05276091754273       -0.00025437095214
74
 energy: -127.732026858555 gnorm: 0.003903164098 xtb: 6.7.1pre (5071a88)
C           -3.49739800340301        4.94184914079705        0.00046679586004
C           -5.58624724548352        3.76195676177389        0.00040914939364
C           -0.55886573636611        4.88330990846413        0.00014979559172
C           -4.88221564151170        4.94347549295280        0.00053460009991
C           -2.77355268937851        3.74936915308219        0.00027134821947
C           -4.90938405303138        2.53704696191860        0.00023210259391
C            5.10183480455688        4.68975909845317       -0.00047587723626
C            0.80621412081211        4.85251944743469        0.00003673249038
C            0.55877753615387       -4.89753321924784        0.00030386098890
C            2.94450944796171        3.59912531337656       -0.00018602365494
N           -5.62467601024385       -1.07823140590570       -0.00023579569777
C            5.02862038684587        2.29291453124040       -0.00031384397985
C           -3.60669337172741       -2.37190527296777       -0.00021240207606
C           -1.51760875064151       -3.65817295854327       -0.00001581787336
C           -1.32789360933900        3.70871323842379        0.00016037587223
C            0.77346663575612        2.43363829431534       -0.00002675436811
C            2.85969540740809        1.14536933758067       -0.00010133417397
C           -5.77420806690672       -3.46676355107827       -0.00055545058008
C            4.96582991277101       -0.12816715343622       -0.00005777895772
C           -3.75965501695230       -4.77791938399548       -0.00040233331107
C           -3.48933744202891        2.52834229731768        0.00017591662102
C            4.91055047686276       -2.55924103808086        0.00020998384438
C           -1.38140760593856        1.25036433045426        0.00002469631361
C            0.71346388180360       -0.02984512138908       -0.00001383953659
C            2.80433931285965       -1.30221399233104        0.00006216428539
C           -5.61350399505494        1.31133253922106        0.00009773165141
C            2.77375238009226       -3.76715637341192        0.00028038057447
C           -3.52147769640361        0.07900621221826       -0.00004931162397
C            4.88163528261017       -4.96741698444769        0.00045988613859
C           -1.44429186434312       -1.19915052981956       -0.00005424180104
C            0.64732749597800       -2.49064685493170        0.00008569622652
C            3.75605053329613        4.78279936365444       -0.00030558719335
C           -4.94827771944016        0.11738103466662       -0.00006224009712
C            3.49320005361899       -4.95911522514279        0.00041427381752
C           -2.84968628800177       -1.15904121844147       -0.00010230873149
C           -0.77292022132109       -2.45692577967948       -0.00000396904267
C            1.32611565060839       -3.72835222711029        0.00021985947485
C            1.51731114357192        3.64066696183671       -0.00005844852874
C            3.59420946993478        2.36298824350625       -0.00020394625836
C           -5.01710414746904       -2.30522684356987       -0.00033816749849
C            5.68038080397501        1.09891578377327       -0.00022579658645
C           -2.96379425223114       -3.62443827723570       -0.00021023895977
C           -0.81136751368686       -4.86482170999520        0.00018028062793
C           -0.64818006944981        2.47408187603961        0.00005527070401
C            1.44565121226236        1.18414569150445       -0.00005344384040
C            3.53526745320487       -0.09406057730382       -0.00003885855131
C           -5.13445836562839       -4.69527600789860       -0.00059250144363
C            5.61452392363259       -1.34512404384954        0.00008099337832
C           -2.79824364792584        1.28864026780898        0.00004555415797
C            5.58612096294168       -3.79079964484980        0.00035863275034
C           -0.71074569033565        0.01220927826713       -0.00001970986237
C            1.38362155878306       -1.26682243660326        0.00004066083243
C            3.48836643057715       -2.54462273031034        0.00018110677980
H           -6.66678506506359        3.76932327632630        0.00045280175337
H            1.04078029666151       -5.86177146839539        0.00046490365506
H           -6.85317332011356       -3.40909899767469       -0.00069794263115
H           -3.30822016004022       -5.75578777195690       -0.00042738848313
H           -6.69454374305337        1.33178251781124        0.00012142178475
H            5.40579662601417       -5.91290879885924        0.00057623002568
H            2.98543412872479       -5.90983277021431        0.00048259362750
H           -1.34209411039882       -5.80325562510588        0.00025125664386
H           -5.72581742960831       -5.59944365868387       -0.00079242804259
H           -2.99183863716060        5.89365478461156        0.00057804684687
H           -1.04453824177585        5.84565429305211        0.00022165069791
H           -5.41192816693666        5.88577125371326        0.00068455676088
H            5.74518654043520        5.55690244822963       -0.00059640862357
H            1.33774573839035        5.79052254576020        0.00003136788315
H            3.30922369449834        5.76023181706467       -0.00027347710239
H            6.76113022282735        1.06964847209305       -0.00028927712450
H            6.69552084773785       -1.37270595113902        0.00008981718742
H            6.66676915969384       -3.79726871110306        0.00039282976959
N            5.72607712829049        3.48569740888631       -0.00050790761836
H            6.73413561697929        3.44371950708329       -0.00062222575362
H           -6.63439369073729       -1.04909257000469       -0.00026924908052
74
 energy: -127.732055681818 gnorm: 0.001817050171 xtb: 6.7.1pre (5071a88)
C           -3.49572999754493        4.94147772847661        0.00046277154290
C           -5.58489141658726        3.76098220805089        0.00040517181263
C           -0.55888533118942        4.88373752713787        0.00014906385878
C           -4.88081286204010        4.94301042248941        0.00053263716664
C           -2.77205487555457        3.74889939370621        0.00027064737928
C           -4.90762175101340        2.53631581627769        0.00022630266334
C            5.10042105998428        4.68844539358576       -0.00047036412196
C            0.80609389315098        4.85308839110624        0.00003269190269
C            0.55872704255932       -4.89751453228517        0.00029679698928
C            2.94276518616052        3.59851714617476       -0.00018786774799
N           -5.62293178000554       -1.07793257705906       -0.00023698853593
C            5.02651910443482        2.29262147749689       -0.00030836586561
C           -3.60486317615717       -2.37103464968359       -0.00020431346659
C           -1.51669681394273       -3.65759824622959       -0.00001885083261
C           -1.32726539057583        3.70860493794658        0.00016329603686
C            0.77304698360905        2.43344761139650       -0.00002055842753
C            2.85835024412651        1.14520493139152       -0.00009690712392
C           -5.77179673566629       -3.46610685764005       -0.00054427469591
C            4.96357982670123       -0.12820333501485       -0.00006175274029
C           -3.75692914753739       -4.77739783048196       -0.00040971171551
C           -3.48782485489545        2.52776426148863        0.00017573025614
C            4.90860150278057       -2.55858555696323        0.00020758780378
C           -1.38068333803147        1.25041014716760        0.00003325064335
C            0.71298862671570       -0.02949869839598       -0.00000800197696
C            2.80273770496459       -1.30192443651240        0.00006320414998
C           -5.61193893801813        1.31089334133368        0.00008840416415
C            2.77203348714249       -3.76641245185641        0.00027913244561
C           -3.52005804938255        0.07906406125435       -0.00004370824646
C            4.87976261246226       -4.96707200277380        0.00045993769932
C           -1.44336258691500       -1.19876555736062       -0.00004706842773
C            0.64697745486900       -2.48992343328062        0.00008749357378
C            3.75447885067451        4.78173798226027       -0.00031094933584
C           -4.94636767830215        0.11700949567494       -0.00006366934559
C            3.49108687124549       -4.95859638712130        0.00041451217283
C           -2.84826943485116       -1.15860560883762       -0.00009491372399
C           -0.77253139538722       -2.45616549401848       -0.00000240854052
C            1.32531386393027       -3.72785774967142        0.00021947970210
C            1.51655115757127        3.64075382683041       -0.00005885625035
C            3.59265688759574        2.36230545350763       -0.00020075300745
C           -5.01500028418878       -2.30424417186441       -0.00032989649314
C            5.67842374144372        1.09829372489318       -0.00022678613207
C           -2.96185288305166       -3.62355915984184       -0.00020663429125
C           -0.81127579978408       -4.86475815641980        0.00016989256267
C           -0.64791688810292        2.47379764946573        0.00006211218903
C            1.44474904697310        1.18430302866007       -0.00004665806390
C            3.53357328799483       -0.09403988811658       -0.00003676426528
C           -5.13197358409872       -4.69499942823676       -0.00059575903291
C            5.61306006464832       -1.34479430662491        0.00007369480709
C           -2.79697581283915        1.28848161265677        0.00005072843402
C            5.58439636467363       -3.79002399285748        0.00035680324280
C           -0.71032111803934        0.01245728777937       -0.00001089551914
C            1.38265357531922       -1.26648212712928        0.00004336128864
C            3.48663665368392       -2.54386556959042        0.00018024569020
H           -6.66531005630896        3.76636168467307        0.00044868983580
H            1.04116027227976       -5.86131300254924        0.00045360980521
H           -6.85061069237784       -3.40681949495907       -0.00067227114474
H           -3.30428868312605       -5.75471953607639       -0.00044406455258
H           -6.69283194370594        1.33104464376113        0.00010336325914
H            5.40330888188177       -5.91264672641080        0.00057210100879
H            2.98252253053727       -5.90881438406198        0.00048793223481
H           -1.34246468995318       -5.80270358801910        0.00024001510143
H           -5.72276547696540       -5.59919849193941       -0.00077111849154
H           -2.98962427615051        5.89292102166188        0.00057105942513
H           -1.04515153024862        5.84557990565961        0.00021817811337
H           -5.41011636828365        5.88528592004333        0.00068424123598
H            5.74233082162891        5.55641979550728       -0.00059171568120
H            1.33795454954754        5.79075143750952        0.00002325972746
H            3.30606764498356        5.75840478581960       -0.00029187391871
H            6.75896823712864        1.06771817578089       -0.00028987150448
H            6.69381335597478       -1.37180126495995        0.00007774019607
H            6.66490842257852       -3.79454672172569        0.00038597773165
N            5.72480224283112        3.48454610109680       -0.00049233300100
H            6.73251286117493        3.43897271136845       -0.00060185612265
H           -6.63243027513959       -1.04843362452188       -0.00027933550939
74
 energy: -127.732061233933 gnorm: 0.000836157508 xtb: 6.7.1pre (5071a88)
C           -3.49556911040733        4.94195229862353        0.00045796232755
C           -5.58474856401066        3.76094777486203        0.00039670943106
C           -0.55882275781597        4.88482457717258        0.00014650506411
C           -4.88082320095392        4.94333728253007        0.00052696715733
C           -2.77153237597526        3.74928217452488        0.00027070832829
C           -4.90709527136634        2.53623234982499        0.00021801360260
C            5.10046042552303        4.68810018949416       -0.00046375327046
C            0.80612348610884        4.85426193472228        0.00002742608792
C            0.55870494435232       -4.89810019976405        0.00028437092287
C            2.94211779264173        3.59867961994042       -0.00018923174610
N           -5.62244643476853       -1.07798760606401       -0.00023774318119
C            5.02563996047841        2.29283914349514       -0.00029815213661
C           -3.60410593901092       -2.37074436543571       -0.00019749872294
C           -1.51632420208368       -3.65771367073378       -0.00002309870740
C           -1.32706577761741        3.70923712270246        0.00016658456233
C            0.77289405966599        2.43376033889832       -0.00001316279981
C            2.85788389597608        1.14523637303846       -0.00009009429301
C           -5.77071975041172       -3.46639567995724       -0.00051884027451
C            4.96269860211296       -0.12817019797299       -0.00006513041185
C           -3.75583245398199       -4.77771907320476       -0.00041339632168
C           -3.48730354060380        2.52783302590544        0.00017630312952
C            4.90792965171651       -2.55853926726721        0.00019946156634
C           -1.38045531945952        1.25076656000090        0.00004541802543
C            0.71277160519552       -0.02916646300098        0.00000330961119
C            2.80202542854007       -1.30196876890829        0.00006568709048
C           -5.61161917561156        1.31084870101698        0.00007472038768
C            2.77136211134552       -3.76645737075424        0.00027908347047
C           -3.51963586200538        0.07917903068932       -0.00003491165524
C            4.87930620251175       -4.96751091311440        0.00045645742166
C           -1.44297997071104       -1.19864737674319       -0.00003622146562
C            0.64685387808837       -2.48975558703150        0.00009060770235
C            3.75440483664478        4.78158017850719       -0.00032089331070
C           -4.94571346645629        0.11675181579335       -0.00006518648042
C            3.49048814149172       -4.95888761809582        0.00041646918857
C           -2.84775633515631       -1.15844640416841       -0.00008438827762
C           -0.77242650510297       -2.45597024545043        0.00000159262550
C            1.32501257701773       -3.72802916518722        0.00021656381521
C            1.51635052396479        3.64144873436650       -0.00005850569107
C            3.59215974759532        2.36206194823527       -0.00019451172614
C           -5.01416576951881       -2.30404217258208       -0.00031880738357
C            5.67778982946389        1.09809514252942       -0.00022565899516
C           -2.96104862814331       -3.62348398865682       -0.00020904811787
C           -0.81121345561281       -4.86531694368264        0.00015707050393
C           -0.64787853203232        2.47407990072904        0.00007087848642
C            1.44434967659225        1.18469730868321       -0.00003698818970
C            3.53290417093930       -0.09407759527373       -0.00003360117102
C           -5.13101854895586       -4.69551072517078       -0.00057701246652
C            5.61281729277240       -1.34483848700783        0.00006262660643
C           -2.79658755844565        1.28867885310822        0.00005883682099
C            5.58387900068420       -3.79017914373775        0.00034745380923
C           -0.71016794719380        0.01271244472724        0.00000234305556
C            1.38219050059412       -1.26642428535623        0.00005081353595
C            3.48597427673467       -2.54368827741373        0.00017834895924
H           -6.66513637477661        3.76430821053028        0.00043860204778
H            1.04130293307127       -5.86167823706549        0.00043237685897
H           -6.84945725156896       -3.40536627168388       -0.00063532605928
H           -3.30224253233243       -5.75458048839686       -0.00046921567621
H           -6.69247301860049        1.33052003112329        0.00007629614166
H            5.40225545837890       -5.91334132363300        0.00057012540524
H            2.98136194722284       -5.90876131822451        0.00049497661300
H           -1.34252044293799       -5.80304446687909        0.00021741074340
H           -5.72131383302708       -5.59991282616380       -0.00075534693257
H           -2.98919465515459        5.89321789730526        0.00056302355370
H           -1.04544756123986        5.84638228780489        0.00021103162473
H           -5.40977679535908        5.88574425765889        0.00068001486598
H            5.74089802607381        5.55709816782511       -0.00058369886473
H            1.33806640439653        5.79181042202523        0.00001023723332
H            3.30474142035662        5.75764765277650       -0.00032113757056
H            6.75823044128801        1.06635657878914       -0.00028919848813
H            6.69344578596898       -1.37119082294865        0.00005876737533
H            6.66434822718075       -3.79274591626830        0.00037429124309
N            5.72470435377550        3.48431678582305       -0.00046670971307
H            6.73209810566141        3.43419438317319       -0.00056629806277
H           -6.63181780371660       -1.04795623595684       -0.00029067883887
74
 energy: -127.732062249473 gnorm: 0.000272617608 xtb: 6.7.1pre (5071a88)
C           -3.49607814897542        4.94193787403507        0.00045607111688
C           -5.58510598070894        3.76108755420273        0.00039112315684
C           -0.55883992675006        4.88470845572032        0.00014397686833
C           -4.88126232944227        4.94331767163311        0.00052248926418
C           -2.77188754903564        3.74937531932422        0.00027075489041
C           -4.90745926215617        2.53633738335684        0.00021484398314
C            5.10100727247768        4.68820486967952       -0.00046066418117
C            0.80610830005024        4.85413139775282        0.00002434598663