74
 energy: -127.732062249830 gnorm: 0.000273038138 xtb: 6.7.1pre (5071a88)
C           -3.49607814897542        4.94193787403507        0.00045607111688
C           -5.58510598070894        3.76108755420273        0.00039112315684
C           -0.55883992675006        4.88470845572032        0.00014397686833
C           -4.88126232944227        4.94331767163311        0.00052248926418
C           -2.77188754903564        3.74937531932422        0.00027075489041
C           -4.90745926215617        2.53633738335684        0.00021484398314
C            5.10100727247768        4.68820486967952       -0.00046066418117
C            0.80610830005024        4.85413139775282        0.00002434598663
C            0.55875275507231       -4.89798522535020        0.00027688104537
C            2.94248191280350        3.59877113595571       -0.00018928449204
N           -5.62281427720179       -1.07807200691042       -0.00023549747667
C            5.02597611686026        2.29290361456584       -0.00029205676559
C           -3.60447492969792       -2.37085587296908       -0.00019479604947
C           -1.51653080024059       -3.65776733752973       -0.00002530366398
C           -1.32727480023714        3.70926764560548        0.00016719904192
C            0.77297208501194        2.43383910105063       -0.00001049644503
C            2.85813740676427        1.14525515250294       -0.00008653743229
C           -5.77117754529510       -3.46654282773862       -0.00050966214805
C            4.96308082420696       -0.12812224685548       -0.00006547719518
C           -3.75644147643240       -4.77772317909785       -0.00041485400039
C           -3.48763959512668        2.52793327198468        0.00017666132444
C            4.90831797598207       -2.55859469510861        0.00019513872628
C           -1.38061584287099        1.25080690215664        0.00004940206150
C            0.71284838128240       -0.02918529416698        0.00000797789772
C            2.80233533327293       -1.30201458897298        0.00006712605501
C           -5.61190210777820        1.31092954710493        0.00007043157194
C            2.77175271377403       -3.76652730404333        0.00027793732524
C           -3.51993718305207        0.07920015918228       -0.00003244439784
C            4.87978050007541       -4.96746017546849        0.00045483085323
C           -1.44316015328479       -1.19870339635371       -0.00003267762620
C            0.64694576076408       -2.48985211393348        0.00009337168354
C            3.75498273589907        4.78162038870702       -0.00032439981118
C           -4.94606143491619        0.11681361646195       -0.00006504097858
C            3.49102674496325       -4.95885373845219        0.00041609239425
C           -2.84803552047799       -1.15850063047542       -0.00008183856423
C           -0.77251145508013       -2.45608645779109        0.00000352149075
C            1.32524698367505       -3.72804424224895        0.00021603199431
C            1.51656087343424        3.64145678739288       -0.00005906489723
C            3.59247051401795        2.36210056677191       -0.00019090644768
C           -5.01457526914476       -2.30423537563688       -0.00031371371177
C            5.67811345428516        1.09824111869397       -0.00022268504107
C           -2.96145239908193       -3.62359819960690       -0.00020857961699
C           -0.81117812824830       -4.86521917197654        0.00014863120631
C           -0.64796626867031        2.47417328048477        0.00007367138628
C            1.44449793805861        1.18472622944985       -0.00003305053497
C            3.53322818245665       -0.09407476460275       -0.00003184964768
C           -5.13156123097055       -4.69551623573518       -0.00057403286925
C            5.61308016041310       -1.34488688263459        0.00005803482736
C           -2.79686171194324        1.28874547573811        0.00006156029656
C            5.58425885301508       -3.79027664728208        0.00034224786126
C           -0.71025016174844        0.01269997817167        0.00000707695715
C            1.38237859699523       -1.26646490715061        0.00005451197938
C            3.48634663769647       -2.54375772929201        0.00017693140914
H           -6.66551616932684        3.76452348738525        0.00043031790170
H            1.04127859608043       -5.86165066374609        0.00042010314710
H           -6.84993377145349       -3.40552726815692       -0.00061762024466
H           -3.30298904125092       -5.75462834811378       -0.00047248778159
H           -6.69277706052133        1.33054738264569        0.00006790569670
H            5.40274155727382       -5.91333972869237        0.00056925541555
H            2.98201528282505       -5.90880128191672        0.00049815772273
H           -1.34234514297289       -5.80306975023086        0.00020486523884
H           -5.72188248926621       -5.59997655463996       -0.00074288202223
H           -2.98981562003212        5.89328392898711        0.00056173937234
H           -1.04541780686619        5.84634502985186        0.00020702084755
H           -5.41023934058675        5.88576874403089        0.00067430482262
H            5.74142071274843        5.55728468788816       -0.00058089186796
H            1.33794457624512        5.79177754729713        0.00000585600141
H            3.30552997033520        5.75778104122329       -0.00033284396440
H            6.75858193986511        1.06662203763417       -0.00028582573218
H            6.69374303433007       -1.37121745422829        0.00005164510836
H            6.66475398500401       -3.79291907778583        0.00036525559387
N            5.72511180715953        3.48450585493638       -0.00045463969844
H            6.73249405220468        3.43361458112600       -0.00054914459932
H           -6.63222359653469       -1.04791544579682       -0.00029105161886
