      -----------------------------------------------------------      
     |                   =====================                   |     
     |                           x T B                           |     
     |                   =====================                   |     
     |                         S. Grimme                         |     
     |          Mulliken Center for Theoretical Chemistry        |     
     |                    University of Bonn                     |     
      -----------------------------------------------------------      

   * xtb version 6.7.1pre (5071a88) compiled by 'Marcel@Raven' on 2024-07-23

   xtb is free software: you can redistribute it and/or modify it under
   the terms of the GNU Lesser General Public License as published by
   the Free Software Foundation, either version 3 of the License, or
   (at your option) any later version.
   
   xtb is distributed in the hope that it will be useful,
   but WITHOUT ANY WARRANTY; without even the implied warranty of
   MERCHANTABILITY or FITNESS FOR A PARTICULAR PURPOSE.  See the
   GNU Lesser General Public License for more details.
   
   Cite this work as:
   * C. Bannwarth, E. Caldeweyher, S. Ehlert, A. Hansen, P. Pracht,
     J. Seibert, S. Spicher, S. Grimme, WIREs Comput. Mol. Sci., 2020, 11,
     e01493. DOI: 10.1002/wcms.1493
   
   for GFN2-xTB:
   * C. Bannwarth, S. Ehlert and S. Grimme., J. Chem. Theory Comput., 2019,
     15, 1652-1671. DOI: 10.1021/acs.jctc.8b01176
   for GFN1-xTB:
   * S. Grimme, C. Bannwarth, P. Shushkov, J. Chem. Theory Comput., 2017,
     13, 1989-2009. DOI: 10.1021/acs.jctc.7b00118
   for GFN0-xTB:
   * P. Pracht, E. Caldeweyher, S. Ehlert, S. Grimme, ChemRxiv, 2019, preprint.
     DOI: 10.26434/chemrxiv.8326202.v1
   for GFN-FF:
   * S. Spicher and S. Grimme, Angew. Chem. Int. Ed., 2020, 59, 15665-15673.
     DOI: 10.1002/anie.202004239
   
   for ALPB and GBSA implicit solvation:
   * S. Ehlert, M. Stahn, S. Spicher, S. Grimme, J. Chem. Theory Comput.,
     2021, 17, 4250-4261. DOI: 10.1021/acs.jctc.1c00471
   
   for ddCOSMO and CPCM-X implicit solvation:
   * M. Stahn, S. Ehlert, S. Grimme, J. Phys. Chem. A,
     2023, XX, XXXX-XXXX. DOI: 10.1021/acs.jpca.3c04382
   
   for DFT-D4:
   * E. Caldeweyher, C. Bannwarth and S. Grimme, J. Chem. Phys., 2017,
     147, 034112. DOI: 10.1063/1.4993215
   * E. Caldeweyher, S. Ehlert, A. Hansen, H. Neugebauer, S. Spicher,
     C. Bannwarth and S. Grimme, J. Chem. Phys., 2019, 150, 154122.
     DOI: 10.1063/1.5090222
   * E. Caldeweyher, J.-M. Mewes, S. Ehlert and S. Grimme, Phys. Chem. Chem. Phys.
     2020, 22, 8499-8512. DOI: 10.1039/D0CP00502A
   
   for sTDA-xTB:
   * S. Grimme and C. Bannwarth, J. Chem. Phys., 2016, 145, 054103.
     DOI: 10.1063/1.4959605
   
   in the mass-spec context:
   * V. Asgeirsson, C. Bauer and S. Grimme, Chem. Sci., 2017, 8, 4879.
     DOI: 10.1039/c7sc00601b
   * J. Koopman and S. Grimme, ACS Omega 2019, 4, 12, 15120-15133.
     DOI: 10.1021/acsomega.9b02011
   
   for metadynamics refer to:
   * S. Grimme, J. Chem. Theory Comput., 2019, 155, 2847-2862
     DOI: 10.1021/acs.jctc.9b00143
   
   for SPH calculations refer to:
   * S. Spicher and S. Grimme, J. Chem. Theory Comput., 2021, 17, 1701-1714
     DOI: 10.1021/acs.jctc.0c01306
   
   for ONIOM refer to:
   * C. Plett, A. Katbashev, S. Ehlert, S. Grimme, M. Bursch,
     Phys. Chem. Chem. Phys., 2023, 25, 17860-17868. DOI: 10.1039/D3CP02178E
   
   for DIPRO refer to:
   * J. Kohn, N. Gildemeister, S. Grimme, D. Fazzi, A. Hansen,
     J. Chem. Phys., 2023, just accepted.
   
   for PTB refer to:
   * S. Grimme, M. Mueller, A. Hansen, J. Chem. Phys., 2023, 158, 124111.
     DOI: 10.1063/5.0137838
   
   with help from (in alphabetical order)
   P. Atkinson, C. Bannwarth, F. Bohle, G. Brandenburg, E. Caldeweyher
   M. Checinski, S. Dohm, S. Ehlert, S. Ehrlich, I. Gerasimov, C. Hölzer
   A. Katbashev, J. Kohn, J. Koopman, C. Lavigne, S. Lehtola, F. März, M. Müller,
   F. Musil, H. Neugebauer, J. Pisarek, C. Plett, P. Pracht, F. Pultar,
   J. Seibert, P. Shushkov, S. Spicher, M. Stahn, M. Steiner, T. Strunk,
   J. Stückrath, T. Rose, and J. Unsleber
   
 * started run on 2025/12/08 at 00:40:27.562     
   ID    Z sym.   atoms
    1    6 C      1-158
    2    1 H      159-194
    3   15 P      195-206

           -------------------------------------------------
          |                Calculation Setup                |
           -------------------------------------------------

          program call               : xtb "C:\Users\LENOVO GAMING\Documents\GitHub\molecular-conductivity-sim\results\2nm-12Pdoped-7percent\xtbopt.xyz" --sp
          coordinate file            : C:\Users\LENOVO GAMING\Documents\GitHub\molecular-conductivity-sim\results\2nm-12Pdoped-7percent\xtbopt.xyz
          omp threads                :                    16


           -------------------------------------------------
          |                 G F N 2 - x T B                 |
           -------------------------------------------------

        Reference                      10.1021/acs.jctc.8b01176
      * Hamiltonian:
        H0-scaling (s, p, d)           1.850000    2.230000    2.230000
        zeta-weighting                 0.500000
      * Dispersion:
        s8                             2.700000
        a1                             0.520000
        a2                             5.000000
        s9                             5.000000
      * Repulsion:
        kExp                           1.500000    1.000000
        rExp                           1.000000
      * Coulomb:
        alpha                          2.000000
        third order                    shell-resolved
        anisotropic                    true
        a3                             3.000000
        a5                             4.000000
        cn-shift                       1.200000
        cn-exp                         4.000000
        max-rad                        5.000000

q/qsh data taken from xtbrestart
CAMM data taken from xtbrestart

          ...................................................
          :                      SETUP                      :
          :.................................................:
          :  # basis functions                 788          :
          :  # atomic orbitals                 776          :
          :  # shells                          388          :
          :  # electrons                       728          :
          :  max. iterations                   250          :
          :  Hamiltonian                  GFN2-xTB          :
          :  restarted?                       true          :
          :  GBSA solvation                  false          :
          :  PC potential                    false          :
          :  electronic temp.          300.0000000     K    :
          :  accuracy                    1.0000000          :
          :  -> integral cutoff          0.2500000E+02      :
          :  -> integral neglect         0.1000000E-07      :
          :  -> SCF convergence          0.1000000E-05 Eh   :
          :  -> wf. convergence          0.1000000E-03 e    :
          :  Broyden damping             0.4000000          :
          :  net charge                          0          :
          :  unpaired electrons                  0          :
          ...................................................

 iter      E             dE          RMSdq      gap      omega  full diag
   1   -394.8230919 -0.394823E+03  0.305E-05    0.04       0.0  T
   2   -394.8230919  0.211468E-07  0.260E-04    0.04      26.8  T
   3   -394.8230919 -0.152120E-07  0.134E-04    0.04      52.0  T

   *** convergence criteria satisfied after 3 iterations ***

         #    Occupation            Energy/Eh            Energy/eV
      -------------------------------------------------------------
         1        2.0000           -0.6944652             -18.8974
       ...           ...                  ...                  ...
       358        2.0000           -0.3673933              -9.9973
       359        2.0000           -0.3636029              -9.8941
       360        2.0000           -0.3511991              -9.5566
       361        2.0000           -0.3428997              -9.3308
       362        1.9999           -0.3401135              -9.2550
       363        1.9953           -0.3359659              -9.1421
       364        1.3403           -0.3308958              -9.0041 (HOMO)
       365        0.6595           -0.3295486              -8.9675 (LUMO)
       366        0.0050           -0.3245313              -8.8309
       367        0.0000           -0.3183552              -8.6629
       368                         -0.3130053              -8.5173
       369                         -0.3102610              -8.4426
       ...                                ...                  ...
       776                          1.0121355              27.5416
      -------------------------------------------------------------
                  HL-Gap            0.0013472 Eh            0.0367 eV
             Fermi-level           -0.3302224 Eh           -8.9858 eV

 SCC (total)                   0 d,  0 h,  0 min,  0.793 sec
 SCC setup                      ...        0 min,  0.003 sec (  0.378%)
 Dispersion                     ...        0 min,  0.023 sec (  2.900%)
 classical contributions        ...        0 min,  0.000 sec (  0.000%)
 integral evaluation            ...        0 min,  0.065 sec (  8.197%)
 iterations                     ...        0 min,  0.487 sec ( 61.412%)
 molecular gradient             ...        0 min,  0.201 sec ( 25.347%)
 printout                       ...        0 min,  0.014 sec (  1.765%)

         :::::::::::::::::::::::::::::::::::::::::::::::::::::
         ::                     SUMMARY                     ::
         :::::::::::::::::::::::::::::::::::::::::::::::::::::
         :: total energy            -387.748878461563 Eh    ::
         :: gradient norm              0.000287252476 Eh/a0 ::
         :: HOMO-LUMO gap              0.036660059804 eV    ::
         ::.................................................::
         :: SCC energy              -394.834933126319 Eh    ::
         :: -> isotropic ES            0.007364594010 Eh    ::
         :: -> anisotropic ES          0.008084988655 Eh    ::
         :: -> anisotropic XC          0.131190689640 Eh    ::
         :: -> dispersion             -0.535814840318 Eh    ::
         :: repulsion energy           7.086054664756 Eh    ::
         :: add. restraining           0.000000000000 Eh    ::
         :: total charge              -0.000000000007 e     ::
         :::::::::::::::::::::::::::::::::::::::::::::::::::::

           -------------------------------------------------
          |                Property Printout                |
           -------------------------------------------------

    * Orbital Energies and Occupations

         #    Occupation            Energy/Eh            Energy/eV
      -------------------------------------------------------------
         1        2.0000           -0.6944652             -18.8974
       ...           ...                  ...                  ...
       352        2.0000           -0.3830297             -10.4228
       353        2.0000           -0.3801972             -10.3457
       354        2.0000           -0.3769773             -10.2581
       355        2.0000           -0.3764696             -10.2443
       356        2.0000           -0.3758614             -10.2277
       357        2.0000           -0.3683348             -10.0229
       358        2.0000           -0.3673933              -9.9973
       359        2.0000           -0.3636029              -9.8941
       360        2.0000           -0.3511991              -9.5566
       361        2.0000           -0.3428997              -9.3308
       362        1.9999           -0.3401135              -9.2550
       363        1.9953           -0.3359659              -9.1421
       364        1.3403           -0.3308958              -9.0041 (HOMO)
       365        0.6595           -0.3295486              -8.9675 (LUMO)
       366        0.0050           -0.3245313              -8.8309
       367        0.0000           -0.3183552              -8.6629
       368                         -0.3130053              -8.5173
       369                         -0.3102610              -8.4426
       370                         -0.2954649              -8.0400
       371                         -0.2936931              -7.9918
       372                         -0.2861969              -7.7878
       373                         -0.2821564              -7.6779
       374                         -0.2796112              -7.6086
       375                         -0.2776134              -7.5542
       ...                                ...                  ...
       776                          1.0121355              27.5416
      -------------------------------------------------------------
                  HL-Gap            0.0013472 Eh            0.0367 eV
             Fermi-level           -0.3302224 Eh           -8.9858 eV

     #   Z          covCN         q      C6AA      α(0)
     1   6 C        3.035    -0.035    28.827     8.806
     2   6 C        2.915    -0.029    28.723     8.788
     3   6 C        2.922    -0.037    28.910     8.817
     4   6 C        2.991     0.006    27.869     8.660
     5   6 C        2.921     0.006    27.889     8.660
     6   6 C        3.052     0.004    27.890     8.661
     7   6 C        2.982     0.002    27.969     8.675
     8   6 C        3.072    -0.041    28.937     8.820
     9   6 C        2.916     0.003    27.951     8.670
    10   6 C        3.033     0.004    27.901     8.664
    11   6 C        2.989     0.001    27.995     8.679
    12   6 C        3.054    -0.043    29.011     8.833
    13   6 C        2.981     0.013    27.709     8.635
    14   6 C        3.099     0.004    27.818     8.643
    15   6 C        2.926     0.003    27.962     8.672
    16   6 C        3.184    -0.037    28.450     8.705
    17   6 C        2.904     0.015    27.676     8.626
    18   6 C        2.930     0.003    27.967     8.673
    19   6 C        2.910     0.008    27.843     8.652
    20   6 C        3.140     0.006    27.660     8.607
    21   6 C        2.982     0.003    27.946     8.671
    22   6 C        3.036    -0.041    28.974     8.829
    23   6 C        2.916     0.007    27.874     8.658
    24   6 C        3.054     0.002    27.932     8.668
    25   6 C        2.990     0.002    27.980     8.677
    26   6 C        2.921    -0.036    28.905     8.817
    27   6 C        2.984     0.013    27.722     8.637
    28   6 C        2.998     0.000    28.005     8.681
    29   6 C        3.070     0.010    27.724     8.634
    30   6 C        2.912    -0.027    28.668     8.780
    31   6 C        2.931    -0.034    28.855     8.809
    32   6 C        3.090     0.005    27.815     8.645
    33   6 C        2.918    -0.035    28.874     8.812
    34   6 C        3.045    -0.030    28.702     8.787
    35   6 C        2.913     0.003    27.959     8.671
    36   6 C        3.074     0.003    27.890     8.659
    37   6 C        2.930     0.005    27.914     8.665
    38   6 C        2.925     0.004    27.945     8.669
    39   6 C        2.981     0.000    28.016     8.682
    40   6 C        2.974     0.003    27.957     8.673
    41   6 C        3.073     0.003    27.877     8.657
    42   6 C        2.987    -0.001    28.045     8.687
    43   6 C        3.080     0.002    27.899     8.659
    44   6 C        2.987     0.002    27.982     8.677
    45   6 C        2.989     0.001    27.987     8.678
    46   6 C        3.082     0.003    27.873     8.655
    47   6 C        3.100     0.001    27.873     8.652
    48   6 C        2.975     0.002    27.967     8.675
    49   6 C        2.976     0.002    27.977     8.676
    50   6 C        3.095     0.003    27.844     8.648
    51   6 C        2.987    -0.002    28.079     8.692
    52   6 C        2.993     0.002    27.965     8.675
    53   6 C        2.994     0.001    27.984     8.678
    54   6 C        2.986    -0.002    28.079     8.692
    55   6 C        2.988    -0.000    28.022     8.683
    56   6 C        2.986     0.002    27.981     8.677
    57   6 C        2.992    -0.002    28.067     8.690
    58   6 C        3.065     0.004    27.857     8.655
    59   6 C        2.916    -0.006    28.167     8.703
    60   6 C        3.025     0.007    27.848     8.656
    61   6 C        2.974    -0.001    28.053     8.688
    62   6 C        3.216     0.015    27.001     8.453
    63   6 C        2.856    -0.043    29.061     8.836
    64   6 C        3.080     0.007    27.771     8.639
    65   6 C        2.918    -0.036    28.902     8.816
    66   6 C        2.918    -0.035    28.867     8.811
    67   6 C        3.089     0.007    27.772     8.638
    68   6 C        3.109     0.003    27.822     8.642
    69   6 C        2.982     0.002    27.965     8.675
    70   6 C        2.981     0.002    27.970     8.675
    71   6 C        3.086     0.004    27.842     8.650
    72   6 C        2.989    -0.001    28.042     8.686
    73   6 C        2.994     0.002    27.980     8.677
    74   6 C        2.991     0.000    28.014     8.682
    75   6 C        2.987     0.000    28.016     8.682
    76   6 C        2.926     0.002    27.980     8.675
    77   6 C        3.096     0.005    27.789     8.640
    78   6 C        2.982    -0.000    28.031     8.685
    79   6 C        3.124     0.004    27.751     8.627
    80   6 C        2.931     0.000    28.019     8.681
    81   6 C        2.928     0.001    28.014     8.680
    82   6 C        3.068     0.005    27.844     8.652
    83   6 C        3.003    -0.000    28.019     8.683
    84   6 C        3.100     0.004    27.799     8.640
    85   6 C        2.977    -0.000    28.024     8.684
    86   6 C        2.984     0.003    27.943     8.671
    87   6 C        2.928     0.001    28.003     8.678
    88   6 C        3.119     0.004    27.756     8.629
    89   6 C        2.985    -0.001    28.038     8.686
    90   6 C        3.106     0.002    27.834     8.644
    91   6 C        2.919     0.006    27.898     8.661
    92   6 C        2.934     0.001    28.004     8.679
    93   6 C        3.184     0.009    27.364     8.537
    94   6 C        3.011    -0.028    28.681     8.785
    95   6 C        2.929    -0.037    28.914     8.818
    96   6 C        2.910     0.004    27.928     8.666
    97   6 C        3.045    -0.029    28.687     8.784
    98   6 C        2.918    -0.035    28.870     8.811
    99   6 C        3.082     0.006    27.788     8.642
   100   6 C        2.927     0.002    27.986     8.676
   101   6 C        2.927     0.004    27.924     8.666
   102   6 C        3.082     0.004    27.844     8.651
   103   6 C        2.995     0.000    28.017     8.683
   104   6 C        3.100     0.004    27.810     8.642
   105   6 C        2.982     0.002    27.972     8.676
   106   6 C        2.990     0.000    28.010     8.682
   107   6 C        3.000     0.001    27.986     8.678
   108   6 C        2.996     0.003    27.955     8.673
   109   6 C        2.993     0.001    27.993     8.679
   110   6 C        2.987     0.001    27.986     8.678
   111   6 C        2.990    -0.001    28.044     8.687
   112   6 C        2.995    -0.001    28.039     8.686
   113   6 C        3.103     0.004    27.810     8.641
   114   6 C        2.927     0.004    27.924     8.666
   115   6 C        2.985     0.001    27.995     8.679
   116   6 C        2.991     0.001    27.985     8.678
   117   6 C        3.085     0.003    27.860     8.652
   118   6 C        2.981     0.002    27.983     8.677
   119   6 C        2.993    -0.002    28.073     8.691
   120   6 C        2.988     0.003    27.961     8.674
   121   6 C        2.986     0.001    28.009     8.681
   122   6 C        2.983    -0.000    28.024     8.684
   123   6 C        2.920    -0.006    28.178     8.705
   124   6 C        3.024     0.007    27.839     8.655
   125   6 C        2.973     0.003    27.959     8.673
   126   6 C        3.030     0.012    27.714     8.635
   127   6 C        2.855    -0.038    28.929     8.816
   128   6 C        2.980     0.007    27.860     8.658
   129   6 C        2.921    -0.036    28.885     8.813
   130   6 C        2.913    -0.029    28.715     8.787
   131   6 C        2.923    -0.036    28.894     8.815
   132   6 C        2.990     0.001    28.004     8.681
   133   6 C        2.992     0.001    27.992     8.679
   134   6 C        2.984     0.013    27.717     8.636
   135   6 C        3.065    -0.041    28.943     8.822
   136   6 C        2.976     0.003    27.957     8.673
   137   6 C        3.023     0.005    27.883     8.662
   138   6 C        2.912     0.004    27.940     8.668
   139   6 C        3.089     0.005    27.804     8.643
   140   6 C        3.039     0.003    27.911     8.665
   141   6 C        2.916     0.003    27.950     8.669
   142   6 C        3.060    -0.041    28.949     8.823
   143   6 C        2.935     0.002    27.979     8.675
   144   6 C        3.079     0.014    27.603     8.613
   145   6 C        3.030    -0.041    28.982     8.830
   146   6 C        3.102     0.006    27.758     8.633
   147   6 C        2.989     0.002    27.974     8.676
   148   6 C        3.030     0.009    27.788     8.647
   149   6 C        2.990     0.002    27.968     8.675
   150   6 C        3.043     0.002    27.937     8.669
   151   6 C        2.916     0.002    27.979     8.674
   152   6 C        3.031    -0.040    28.965     8.828
   153   6 C        2.986     0.005    27.896     8.664
   154   6 C        3.000     0.003    27.935     8.670
   155   6 C        2.987     0.012    27.748     8.641
   156   6 C        2.921    -0.035    28.873     8.812
   157   6 C        2.923    -0.036    28.904     8.817
   158   6 C        2.915    -0.029    28.714     8.787
   159   1 H        0.925     0.037     2.492     2.469
   160   1 H        0.926     0.035     2.521     2.483
   161   1 H        0.926     0.037     2.483     2.464
   162   1 H        0.976     0.052     2.292     2.366
   163   1 H        0.925     0.039     2.467     2.456
   164   1 H        0.925     0.037     2.487     2.466
   165   1 H        0.925     0.041     2.435     2.440
   166   1 H        0.977     0.052     2.284     2.361
   167   1 H        0.925     0.037     2.490     2.468
   168   1 H        0.926     0.033     2.539     2.492
   169   1 H        0.926     0.037     2.490     2.468
   170   1 H        0.925     0.036     2.504     2.474
   171   1 H        0.926     0.035     2.521     2.483
   172   1 H        0.926     0.034     2.526     2.485
   173   1 H        0.925     0.034     2.524     2.484
   174   1 H        0.926     0.036     2.503     2.474
   175   1 H        0.926     0.035     2.514     2.479
   176   1 H        0.926     0.033     2.545     2.495
   177   1 H        0.926     0.034     2.526     2.485
   178   1 H        0.925     0.038     2.473     2.459
   179   1 H        0.976     0.052     2.285     2.362
   180   1 H        0.925     0.041     2.440     2.443
   181   1 H        0.925     0.040     2.451     2.448
   182   1 H        0.977     0.054     2.262     2.350
   183   1 H        0.925     0.038     2.478     2.462
   184   1 H        0.926     0.035     2.516     2.480
   185   1 H        0.926     0.034     2.528     2.486
   186   1 H        0.926     0.034     2.525     2.485
   187   1 H        0.926     0.059     2.214     2.327
   188   1 H        0.976     0.046     2.359     2.400
   189   1 H        0.926     0.035     2.517     2.481
   190   1 H        0.925     0.041     2.434     2.439
   191   1 H        0.926     0.059     2.207     2.323
   192   1 H        0.976     0.055     2.247     2.343
   193   1 H        0.927     0.049     2.335     2.390
   194   1 H        0.926     0.035     2.520     2.482
   195  15 P        3.271    -0.092   164.370    23.030
   196  15 P        3.069    -0.141   166.675    23.192
   197  15 P        3.576    -0.006   160.489    22.757
   198  15 P        3.095    -0.108   165.132    23.084
   199  15 P        3.202    -0.084   164.014    23.006
   200  15 P        3.534    -0.041   162.033    22.866
   201  15 P        3.523    -0.046   162.296    22.885
   202  15 P        3.529    -0.045   162.218    22.879
   203  15 P        3.222    -0.077   163.704    22.984
   204  15 P        3.543    -0.047   162.327    22.887
   205  15 P        3.223    -0.084   164.006    23.005
   206  15 P        3.527    -0.038   161.901    22.857

 Mol. C6AA /au·bohr⁶  :    1093790.130882
 Mol. C8AA /au·bohr⁸  :   34018469.424429
 Mol. α(0) /au        :       1736.473994


Wiberg/Mayer (AO) data.
largest (>0.10) Wiberg bond orders for each atom

 ---------------------------------------------------------------------------
     #   Z sym  total        # sym  WBO       # sym  WBO       # sym  WBO
 ---------------------------------------------------------------------------
     1   6 C    3.980 --     5 C    1.454     2 C    1.373   159 H    0.962
     2   6 C    3.973 --     3 C    1.498     1 C    1.373   160 H    0.969
     3   6 C    3.985 --     2 C    1.498     4 C    1.324   161 H    0.962
                             5 C    0.100
     4   6 C    3.972 --     3 C    1.324     6 C    1.270    32 C    1.169
     5   6 C    3.968 --     1 C    1.454     6 C    1.275   203 P    1.043
                             3 C    0.100
     6   6 C    3.980 --     5 C    1.275     4 C    1.270     7 C    1.192
     7   6 C    3.941 --    36 C    1.320    10 C    1.200     6 C    1.192
     8   6 C    3.956 --     9 C    1.434    13 C    1.346   163 H    0.957
     9   6 C    3.917 --     8 C    1.434    10 C    1.273   203 P    1.039
    10   6 C    3.961 --     9 C    1.273    11 C    1.251     7 C    1.200
    11   6 C    3.963 --    14 C    1.258    10 C    1.251    39 C    1.226
    12   6 C    3.931 --    17 C    1.510    13 C    1.213   164 H    0.957
    13   6 C    3.924 --     8 C    1.346    12 C    1.213    14 C    1.202
    14   6 C    3.967 --    15 C    1.265    11 C    1.258    13 C    1.202
    15   6 C    3.881 --    43 C    1.356    14 C    1.265   206 P    1.039
    16   6 C    3.940 --    19 C    1.532    17 C    1.230   165 H    0.948
    17   6 C    3.924 --    12 C    1.510    16 C    1.230   206 P    1.019
    18   6 C    3.917 --    20 C    1.329    47 C    1.294   206 P    1.042
    19   6 C    3.913 --    16 C    1.532    20 C    1.155   195 P    1.043
    20   6 C    3.934 --    18 C    1.329    21 C    1.222    19 C    1.155
    21   6 C    3.950 --    51 C    1.280    20 C    1.222    24 C    1.217
    22   6 C    3.935 --    23 C    1.530    27 C    1.239   167 H    0.959
    23   6 C    3.970 --    22 C    1.530    24 C    1.220   195 P    1.036
    24   6 C    3.917 --    25 C    1.264    23 C    1.220    21 C    1.217
    25   6 C    3.980 --    24 C    1.264    28 C    1.252    55 C    1.238
    26   6 C    3.871 --    30 C    1.436    27 C    1.319   168 H    0.969
    27   6 C    3.982 --    26 C    1.319    28 C    1.251    22 C    1.239
    28   6 C    3.966 --    25 C    1.252    27 C    1.251    29 C    1.229
    29   6 C    3.984 --    31 C    1.308    59 C    1.255    28 C    1.229
    30   6 C    3.985 --    31 C    1.453    26 C    1.436   186 H    0.969
    31   6 C    3.873 --    30 C    1.453    29 C    1.308   187 H    0.941
    32   6 C    3.969 --    37 C    1.425     4 C    1.169    33 C    1.157
    33   6 C    3.882 --    34 C    1.632    32 C    1.157   169 H    0.962
    34   6 C    3.967 --    33 C    1.632    35 C    1.206   170 H    0.954
    35   6 C    3.835 --    64 C    1.396    34 C    1.206   202 P    1.041
    36   6 C    3.967 --     7 C    1.320    37 C    1.215    40 C    1.193
    37   6 C    3.922 --    32 C    1.425    36 C    1.215   202 P    1.027
    38   6 C    3.888 --    68 C    1.338    41 C    1.277   202 P    1.039
    39   6 C    3.974 --    40 C    1.290    44 C    1.232    11 C    1.226
    40   6 C    3.911 --    39 C    1.290    41 C    1.215    36 C    1.193
    41   6 C    3.952 --    38 C    1.277    42 C    1.236    40 C    1.215
    42   6 C    3.973 --    72 C    1.255    45 C    1.249    41 C    1.236
    43   6 C    3.965 --    15 C    1.356    44 C    1.235    48 C    1.138
    44   6 C    3.944 --    45 C    1.260    43 C    1.235    39 C    1.232
    45   6 C    3.955 --    44 C    1.260    42 C    1.249    46 C    1.223
    46   6 C    3.962 --    76 C    1.366    45 C    1.223    49 C    1.139
    47   6 C    3.941 --    18 C    1.294    52 C    1.260    48 C    1.162
    48   6 C    3.956 --    49 C    1.426    47 C    1.162    43 C    1.138
    49   6 C    3.952 --    48 C    1.426    50 C    1.161    46 C    1.139
    50   6 C    3.962 --    80 C    1.308    53 C    1.262    49 C    1.161
    51   6 C    3.965 --    21 C    1.280    52 C    1.240    56 C    1.220
    52   6 C    3.963 --    47 C    1.260    51 C    1.240    53 C    1.237
    53   6 C    3.945 --    50 C    1.262    52 C    1.237    54 C    1.232
    54   6 C    3.973 --    83 C    1.258    57 C    1.255    53 C    1.232
    55   6 C    3.937 --    56 C    1.285    25 C    1.238    60 C    1.193
    56   6 C    3.974 --    55 C    1.285    57 C    1.240    51 C    1.220
    57   6 C    3.925 --    54 C    1.255    56 C    1.240    58 C    1.223
    58   6 C    3.972 --    61 C    1.266    87 C    1.250    57 C    1.223
    59   6 C    3.791 --    60 C    1.320    29 C    1.255   196 P    1.043
    60   6 C    3.978 --    59 C    1.320    61 C    1.242    55 C    1.193
    61   6 C    3.824 --    58 C    1.266    60 C    1.242    62 C    1.114
    62   6 C    3.977 --    63 C    1.617    61 C    1.114    91 C    1.072
    63   6 C    3.841 --    62 C    1.617   196 P    1.087   189 H    0.953
    64   6 C    3.965 --    35 C    1.396    65 C    1.203    69 C    1.142
    65   6 C    3.950 --    66 C    1.627    64 C    1.203   171 H    0.961
    66   6 C    3.956 --    65 C    1.627    67 C    1.210   172 H    0.960
    67   6 C    3.962 --    96 C    1.372    66 C    1.210    70 C    1.145
    68   6 C    3.958 --    38 C    1.338    73 C    1.235    69 C    1.155
    69   6 C    3.950 --    70 C    1.427    68 C    1.155    64 C    1.142
    70   6 C    3.953 --    69 C    1.427    71 C    1.155    67 C    1.145
    71   6 C    3.953 --   100 C    1.326    74 C    1.247    70 C    1.155
    72   6 C    3.971 --    42 C    1.255    73 C    1.249    77 C    1.235
    73   6 C    3.961 --    72 C    1.249    74 C    1.247    68 C    1.235
    74   6 C    3.949 --    73 C    1.247    71 C    1.247    75 C    1.235
    75   6 C    3.976 --    78 C    1.285    74 C    1.235   103 C    1.230
    76   6 C    3.891 --    46 C    1.366    77 C    1.267   201 P    1.028
    77   6 C    3.958 --    76 C    1.267    72 C    1.235    78 C    1.227
    78   6 C    3.909 --    75 C    1.285    77 C    1.227    79 C    1.185
    79   6 C    3.960 --    81 C    1.334   107 C    1.212    78 C    1.185
    80   6 C    3.870 --    50 C    1.308    84 C    1.290   201 P    1.048
    81   6 C    3.880 --    79 C    1.334    82 C    1.277   201 P    1.040
    82   6 C    3.956 --    81 C    1.277    85 C    1.245   111 C    1.213
    83   6 C    3.944 --    54 C    1.258    84 C    1.254    88 C    1.212
    84   6 C    3.959 --    80 C    1.290    83 C    1.254    85 C    1.186
    85   6 C    3.881 --    86 C    1.251    82 C    1.245    84 C    1.186
    86   6 C    3.974 --    89 C    1.295    85 C    1.251   115 C    1.208
    87   6 C    3.835 --    88 C    1.348    58 C    1.250   197 P    1.015
    88   6 C    3.965 --    87 C    1.348    83 C    1.212    89 C    1.172
    89   6 C    3.884 --    86 C    1.295    90 C    1.214    88 C    1.172
    90   6 C    3.969 --    92 C    1.293   119 C    1.230    89 C    1.214
    91   6 C    3.752 --    94 C    1.456    62 C    1.072   197 P    1.052
    92   6 C    3.855 --    90 C    1.293    93 C    1.272   197 P    1.060
    93   6 C    3.978 --    92 C    1.272    95 C    1.270   123 C    1.231
    94   6 C    3.979 --    91 C    1.456    95 C    1.392   190 H    0.958
    95   6 C    3.743 --    94 C    1.392    93 C    1.270   191 H    0.935
    96   6 C    3.848 --    67 C    1.372    97 C    1.239   204 P    1.041
    97   6 C    3.960 --    98 C    1.591    96 C    1.239   173 H    0.954
    98   6 C    3.878 --    97 C    1.591    99 C    1.186   174 H    0.960
    99   6 C    3.955 --   101 C    1.405    98 C    1.186   128 C    1.152
   100   6 C    3.886 --    71 C    1.326   104 C    1.301   204 P    1.035
   101   6 C    3.921 --    99 C    1.405   102 C    1.234   204 P    1.032
   102   6 C    3.952 --   105 C    1.255   132 C    1.235   101 C    1.234
   103   6 C    3.947 --   104 C    1.268   108 C    1.231    75 C    1.230
   104   6 C    3.945 --   100 C    1.301   103 C    1.268   105 C    1.155
   105   6 C    3.931 --   106 C    1.297   102 C    1.255   104 C    1.155
   106   6 C    3.968 --   105 C    1.297   136 C    1.273   109 C    1.175
   107   6 C    3.962 --   108 C    1.280   112 C    1.241    79 C    1.212
   108   6 C    3.943 --   107 C    1.280   103 C    1.231   109 C    1.219
   109   6 C    3.966 --   110 C    1.349   108 C    1.219   106 C    1.175
   110   6 C    3.921 --   109 C    1.349   113 C    1.199   139 C    1.159
   111   6 C    3.970 --   112 C    1.268   116 C    1.254    82 C    1.213
   112   6 C    3.970 --   111 C    1.268   107 C    1.241   113 C    1.232
   113   6 C    3.959 --   114 C    1.294   112 C    1.232   110 C    1.199
   114   6 C    3.890 --   117 C    1.330   113 C    1.294   200 P    1.034
   115   6 C    3.939 --   116 C    1.262   120 C    1.255    86 C    1.208
   116   6 C    3.961 --   115 C    1.262   111 C    1.254   117 C    1.222
   117   6 C    3.957 --   114 C    1.330   116 C    1.222   118 C    1.179
   118   6 C    3.923 --   121 C    1.338   146 C    1.187   117 C    1.179
   119   6 C    3.929 --   120 C    1.275    90 C    1.230   124 C    1.208
   120   6 C    3.955 --   119 C    1.275   115 C    1.255   121 C    1.209
   121   6 C    3.957 --   118 C    1.338   120 C    1.209   122 C    1.194
   122   6 C    3.975 --   125 C    1.384   121 C    1.194   149 C    1.165
   123   6 C    3.850 --   124 C    1.362    93 C    1.231   198 P    1.053
   124   6 C    3.972 --   123 C    1.362   119 C    1.208   125 C    1.183
   125   6 C    3.902 --   122 C    1.384   124 C    1.183   126 C    1.137
   126   6 C    3.982 --   127 C    1.592   125 C    1.137   153 C    1.089
   127   6 C    3.875 --   126 C    1.592   198 P    1.127   193 H    0.939
   128   6 C    3.978 --   129 C    1.370   133 C    1.254    99 C    1.152
   129   6 C    3.938 --   130 C    1.424   128 C    1.370   175 H    0.961
   130   6 C    3.980 --   131 C    1.460   129 C    1.424   176 H    0.970
   131   6 C    3.940 --   130 C    1.460   134 C    1.329   177 H    0.968
   132   6 C    3.970 --   137 C    1.261   133 C    1.243   102 C    1.235
   133   6 C    3.986 --   128 C    1.254   134 C    1.250   132 C    1.243
   134   6 C    3.985 --   131 C    1.329   133 C    1.250   135 C    1.232
   135   6 C    3.963 --   138 C    1.553   134 C    1.232   178 H    0.957
   136   6 C    3.937 --   106 C    1.273   137 C    1.262   140 C    1.179
   137   6 C    3.954 --   136 C    1.262   132 C    1.261   138 C    1.201
   138   6 C    3.978 --   135 C    1.553   137 C    1.201   205 P    1.036
   139   6 C    3.970 --   143 C    1.312   140 C    1.266   110 C    1.159
   140   6 C    3.947 --   141 C    1.270   139 C    1.266   136 C    1.179
   141   6 C    3.965 --   142 C    1.467   140 C    1.270   205 P    1.039
   142   6 C    3.950 --   141 C    1.467   144 C    1.299   180 H    0.957
   143   6 C    3.918 --   139 C    1.312   144 C    1.307   200 P    1.038
   144   6 C    3.969 --   143 C    1.307   142 C    1.299   145 C    1.179
   145   6 C    3.866 --   148 C    1.519   144 C    1.179   181 H    0.959
   146   6 C    3.952 --   147 C    1.345   118 C    1.187   150 C    1.170
   147   6 C    3.841 --   146 C    1.345   148 C    1.236   200 P    1.032
   148   6 C    3.960 --   145 C    1.519   147 C    1.236   199 P    1.012
   149   6 C    3.968 --   150 C    1.334   154 C    1.237   122 C    1.165
   150   6 C    3.946 --   149 C    1.334   151 C    1.210   146 C    1.170
   151   6 C    3.973 --   152 C    1.532   150 C    1.210   199 P    1.043
   152   6 C    3.965 --   151 C    1.532   155 C    1.252   183 H    0.959
   153   6 C    3.980 --   157 C    1.426   154 C    1.262   126 C    1.089
   154   6 C    3.984 --   153 C    1.262   155 C    1.249   149 C    1.237
   155   6 C    3.981 --   156 C    1.303   152 C    1.252   154 C    1.249
   156   6 C    3.974 --   158 C    1.502   155 C    1.303   184 H    0.968
   157   6 C    3.979 --   153 C    1.426   158 C    1.380   194 H    0.961
   158   6 C    3.980 --   156 C    1.502   157 C    1.380   185 H    0.970
   159   1 H    0.998 --     1 C    0.962
   160   1 H    0.997 --     2 C    0.969
   161   1 H    0.998 --     3 C    0.962
   162   1 H    0.987 --   203 P    0.936
   163   1 H    0.997 --     8 C    0.957
   164   1 H    0.997 --    12 C    0.957
   165   1 H    0.996 --    16 C    0.948
   166   1 H    0.991 --   195 P    0.940
   167   1 H    0.997 --    22 C    0.959
   168   1 H    0.998 --    26 C    0.969
   169   1 H    0.997 --    33 C    0.962
   170   1 H    0.995 --    34 C    0.954
   171   1 H    0.997 --    65 C    0.961
   172   1 H    0.997 --    66 C    0.960
   173   1 H    0.996 --    97 C    0.954
   174   1 H    0.998 --    98 C    0.960
   175   1 H    0.998 --   129 C    0.961
   176   1 H    0.997 --   130 C    0.970
   177   1 H    0.998 --   131 C    0.968
   178   1 H    0.997 --   135 C    0.957
   179   1 H    0.992 --   205 P    0.937
   180   1 H    0.997 --   142 C    0.957
   181   1 H    0.997 --   145 C    0.959
   182   1 H    0.991 --   199 P    0.940
   183   1 H    0.997 --   152 C    0.959
   184   1 H    0.998 --   156 C    0.968
   185   1 H    0.998 --   158 C    0.970
   186   1 H    0.997 --    30 C    0.969
   187   1 H    0.996 --    31 C    0.941
   188   1 H    0.958 --   196 P    0.914
   189   1 H    0.996 --    63 C    0.953
   190   1 H    0.995 --    94 C    0.958
   191   1 H    0.995 --    95 C    0.935
   192   1 H    0.960 --   198 P    0.904
   193   1 H    0.996 --   127 C    0.939
   194   1 H    0.998 --   157 C    0.961
   195  15 P    3.314 --    19 C    1.043    23 C    1.036   166 H    0.940
   196  15 P    3.294 --    63 C    1.087    59 C    1.043   188 H    0.914
   197  15 P    3.504 --    92 C    1.060    91 C    1.052    87 C    1.015
   198  15 P    3.391 --   127 C    1.127   123 C    1.053   192 H    0.904
   199  15 P    3.287 --   151 C    1.043   148 C    1.012   182 H    0.940
   200  15 P    3.511 --   143 C    1.038   114 C    1.034   147 C    1.032
   201  15 P    3.502 --    80 C    1.048    81 C    1.040    76 C    1.028
   202  15 P    3.499 --    35 C    1.041    38 C    1.039    37 C    1.027
   203  15 P    3.297 --     5 C    1.043     9 C    1.039   162 H    0.936
   204  15 P    3.503 --    96 C    1.041   100 C    1.035   101 C    1.032
   205  15 P    3.289 --   141 C    1.039   138 C    1.036   179 H    0.937
   206  15 P    3.503 --    18 C    1.042    15 C    1.039    17 C    1.019
 ---------------------------------------------------------------------------

Topologies differ in total number of bonds
Writing topology from bond orders to xtbtopo.mol

molecular dipole:
                 x           y           z       tot (Debye)
 q only:        0.638      -0.876      -0.067
   full:        0.985      -1.383      -0.005       4.315
molecular quadrupole (traceless):
                xx          xy          yy          xz          yz          zz
 q only:       23.080      14.310      27.058      -3.558     -19.580     -50.138
  q+dip:       50.812      22.275      58.297      -8.798     -39.297    -109.108
   full:       28.823      24.584      38.051     -14.039     -37.339     -66.874


           -------------------------------------------------
          | TOTAL ENERGY             -387.748878461563 Eh   |
          | GRADIENT NORM               0.000287252476 Eh/α |
          | HOMO-LUMO GAP               0.036660059804 eV   |
           -------------------------------------------------

------------------------------------------------------------------------
 * finished run on 2025/12/08 at 00:40:28.546     
------------------------------------------------------------------------
 total:
 * wall-time:     0 d,  0 h,  0 min,  0.981 sec
 *  cpu-time:     0 d,  0 h,  0 min, 14.125 sec
 * ratio c/w:    14.399 speedup
 SCF:
 * wall-time:     0 d,  0 h,  0 min,  0.800 sec
 *  cpu-time:     0 d,  0 h,  0 min, 11.656 sec
 * ratio c/w:    14.570 speedup

normal termination of xtb
