      -----------------------------------------------------------      
     |                   =====================                   |     
     |                           x T B                           |     
     |                   =====================                   |     
     |                         S. Grimme                         |     
     |          Mulliken Center for Theoretical Chemistry        |     
     |                    University of Bonn                     |     
      -----------------------------------------------------------      

   * xtb version 6.7.1pre (5071a88) compiled by 'Marcel@Raven' on 2024-07-23

   xtb is free software: you can redistribute it and/or modify it under
   the terms of the GNU Lesser General Public License as published by
   the Free Software Foundation, either version 3 of the License, or
   (at your option) any later version.
   
   xtb is distributed in the hope that it will be useful,
   but WITHOUT ANY WARRANTY; without even the implied warranty of
   MERCHANTABILITY or FITNESS FOR A PARTICULAR PURPOSE.  See the
   GNU Lesser General Public License for more details.
   
   Cite this work as:
   * C. Bannwarth, E. Caldeweyher, S. Ehlert, A. Hansen, P. Pracht,
     J. Seibert, S. Spicher, S. Grimme, WIREs Comput. Mol. Sci., 2020, 11,
     e01493. DOI: 10.1002/wcms.1493
   
   for GFN2-xTB:
   * C. Bannwarth, S. Ehlert and S. Grimme., J. Chem. Theory Comput., 2019,
     15, 1652-1671. DOI: 10.1021/acs.jctc.8b01176
   for GFN1-xTB:
   * S. Grimme, C. Bannwarth, P. Shushkov, J. Chem. Theory Comput., 2017,
     13, 1989-2009. DOI: 10.1021/acs.jctc.7b00118
   for GFN0-xTB:
   * P. Pracht, E. Caldeweyher, S. Ehlert, S. Grimme, ChemRxiv, 2019, preprint.
     DOI: 10.26434/chemrxiv.8326202.v1
   for GFN-FF:
   * S. Spicher and S. Grimme, Angew. Chem. Int. Ed., 2020, 59, 15665-15673.
     DOI: 10.1002/anie.202004239
   
   for ALPB and GBSA implicit solvation:
   * S. Ehlert, M. Stahn, S. Spicher, S. Grimme, J. Chem. Theory Comput.,
     2021, 17, 4250-4261. DOI: 10.1021/acs.jctc.1c00471
   
   for ddCOSMO and CPCM-X implicit solvation:
   * M. Stahn, S. Ehlert, S. Grimme, J. Phys. Chem. A,
     2023, XX, XXXX-XXXX. DOI: 10.1021/acs.jpca.3c04382
   
   for DFT-D4:
   * E. Caldeweyher, C. Bannwarth and S. Grimme, J. Chem. Phys., 2017,
     147, 034112. DOI: 10.1063/1.4993215
   * E. Caldeweyher, S. Ehlert, A. Hansen, H. Neugebauer, S. Spicher,
     C. Bannwarth and S. Grimme, J. Chem. Phys., 2019, 150, 154122.
     DOI: 10.1063/1.5090222
   * E. Caldeweyher, J.-M. Mewes, S. Ehlert and S. Grimme, Phys. Chem. Chem. Phys.
     2020, 22, 8499-8512. DOI: 10.1039/D0CP00502A
   
   for sTDA-xTB:
   * S. Grimme and C. Bannwarth, J. Chem. Phys., 2016, 145, 054103.
     DOI: 10.1063/1.4959605
   
   in the mass-spec context:
   * V. Asgeirsson, C. Bauer and S. Grimme, Chem. Sci., 2017, 8, 4879.
     DOI: 10.1039/c7sc00601b
   * J. Koopman and S. Grimme, ACS Omega 2019, 4, 12, 15120-15133.
     DOI: 10.1021/acsomega.9b02011
   
   for metadynamics refer to:
   * S. Grimme, J. Chem. Theory Comput., 2019, 155, 2847-2862
     DOI: 10.1021/acs.jctc.9b00143
   
   for SPH calculations refer to:
   * S. Spicher and S. Grimme, J. Chem. Theory Comput., 2021, 17, 1701-1714
     DOI: 10.1021/acs.jctc.0c01306
   
   for ONIOM refer to:
   * C. Plett, A. Katbashev, S. Ehlert, S. Grimme, M. Bursch,
     Phys. Chem. Chem. Phys., 2023, 25, 17860-17868. DOI: 10.1039/D3CP02178E
   
   for DIPRO refer to:
   * J. Kohn, N. Gildemeister, S. Grimme, D. Fazzi, A. Hansen,
     J. Chem. Phys., 2023, just accepted.
   
   for PTB refer to:
   * S. Grimme, M. Mueller, A. Hansen, J. Chem. Phys., 2023, 158, 124111.
     DOI: 10.1063/5.0137838
   
   with help from (in alphabetical order)
   P. Atkinson, C. Bannwarth, F. Bohle, G. Brandenburg, E. Caldeweyher
   M. Checinski, S. Dohm, S. Ehlert, S. Ehrlich, I. Gerasimov, C. Hölzer
   A. Katbashev, J. Kohn, J. Koopman, C. Lavigne, S. Lehtola, F. März, M. Müller,
   F. Musil, H. Neugebauer, J. Pisarek, C. Plett, P. Pracht, F. Pultar,
   J. Seibert, P. Shushkov, S. Spicher, M. Stahn, M. Steiner, T. Strunk,
   J. Stückrath, T. Rose, and J. Unsleber
   
 * started run on 2025/12/08 at 00:39:12.604     
   ID    Z sym.   atoms
    1    6 C      1-158
    2    1 H      159-194
    3   15 P      195-206

           -------------------------------------------------
          |                Calculation Setup                |
           -------------------------------------------------

          program call               : xtb "C:\Users\LENOVO GAMING\Documents\GitHub\molecular-conductivity-sim\dataset\2nm-12Pdoped-7percent.xyz" --opt --parallel 4
          coordinate file            : C:\Users\LENOVO GAMING\Documents\GitHub\molecular-conductivity-sim\dataset\2nm-12Pdoped-7percent.xyz
          omp threads                :                     4


           -------------------------------------------------
          |                 G F N 2 - x T B                 |
           -------------------------------------------------

        Reference                      10.1021/acs.jctc.8b01176
      * Hamiltonian:
        H0-scaling (s, p, d)           1.850000    2.230000    2.230000
        zeta-weighting                 0.500000
      * Dispersion:
        s8                             2.700000
        a1                             0.520000
        a2                             5.000000
        s9                             5.000000
      * Repulsion:
        kExp                           1.500000    1.000000
        rExp                           1.000000
      * Coulomb:
        alpha                          2.000000
        third order                    shell-resolved
        anisotropic                    true
        a3                             3.000000
        a5                             4.000000
        cn-shift                       1.200000
        cn-exp                         4.000000
        max-rad                        5.000000


          ...................................................
          :                      SETUP                      :
          :.................................................:
          :  # basis functions                 788          :
          :  # atomic orbitals                 776          :
          :  # shells                          388          :
          :  # electrons                       728          :
          :  max. iterations                   250          :
          :  Hamiltonian                  GFN2-xTB          :
          :  restarted?                      false          :
          :  GBSA solvation                  false          :
          :  PC potential                    false          :
          :  electronic temp.          300.0000000     K    :
          :  accuracy                    1.0000000          :
          :  -> integral cutoff          0.2500000E+02      :
          :  -> integral neglect         0.1000000E-07      :
          :  -> SCF convergence          0.1000000E-05 Eh   :
          :  -> wf. convergence          0.1000000E-03 e    :
          :  Broyden damping             0.4000000          :
          :  net charge                          0          :
          :  unpaired electrons                  0          :
          ...................................................

 iter      E             dE          RMSdq      gap      omega  full diag
   1   -394.1575529 -0.394158E+03  0.514E+00    0.30       0.0  T
   2   -393.7986252  0.358928E+00  0.331E+00    0.09       1.0  T
   3   -378.9268327  0.148718E+02  0.430E+00    0.08       1.0  T
   4   -373.1884507  0.573838E+01  0.427E+00    0.02       1.0  T
   5   -393.5056937 -0.203172E+02  0.134E+00    0.33       1.0  T
   6   -393.8808474 -0.375154E+00  0.119E+00    0.13       1.0  T
   7   -394.1163685 -0.235521E+00  0.771E-01    0.08       1.0  T
   8   -394.2758251 -0.159457E+00  0.693E-01    0.19       1.0  T
   9   -394.2832276 -0.740247E-02  0.608E-01    0.20       1.0  T
  10   -394.2828815  0.346106E-03  0.449E-01    0.12       1.0  T
  11   -394.2851223 -0.224087E-02  0.348E-01    0.15       1.0  T
  12   -394.3045041 -0.193818E-01  0.160E-01    0.13       1.0  T
  13   -394.3081146 -0.361045E-02  0.820E-02    0.13       1.0  T
  14   -394.3053030  0.281157E-02  0.135E-01    0.11       1.0  T
  15   -394.3095024 -0.419938E-02  0.569E-02    0.13       1.0  T
  16   -394.3093071  0.195315E-03  0.814E-02    0.11       1.0  T
  17   -394.3106025 -0.129540E-02  0.464E-02    0.11       1.0  T
  18   -394.3108811 -0.278595E-03  0.314E-02    0.12       1.0  T
  19   -394.3111477 -0.266566E-03  0.137E-02    0.12       1.0  T
  20   -394.3111844 -0.367243E-04  0.890E-03    0.12       1.0  T
  21   -394.3111967 -0.122834E-04  0.539E-03    0.12       1.3  T
  22   -394.3112023 -0.559939E-05  0.194E-03    0.12       3.6  T
  23   -394.3112031 -0.817527E-06  0.725E-04    0.12       9.6  T
  24   -394.3112031 -0.175643E-07  0.722E-04    0.12       9.6  T

   *** convergence criteria satisfied after 24 iterations ***

         #    Occupation            Energy/Eh            Energy/eV
      -------------------------------------------------------------
         1        2.0000           -0.7102183             -19.3260
       ...           ...                  ...                  ...
       358        2.0000           -0.3653852              -9.9426
       359        2.0000           -0.3634673              -9.8904
       360        2.0000           -0.3517965              -9.5729
       361        2.0000           -0.3437744              -9.3546
       362        2.0000           -0.3399811              -9.2514
       363        1.9997           -0.3361327              -9.1466
       364        1.8137           -0.3298918              -8.9768 (HOMO)
       365        0.1765           -0.3255114              -8.8576 (LUMO)
       366        0.0101           -0.3227078              -8.7813
       367        0.0001           -0.3181182              -8.6564
       368                         -0.3108977              -8.4600
       369                         -0.3092687              -8.4156
       ...                                ...                  ...
       776                          0.9924576              27.0061
      -------------------------------------------------------------
                  HL-Gap            0.0043804 Eh            0.1192 eV
             Fermi-level           -0.3277300 Eh           -8.9180 eV

 SCC (total)                   0 d,  0 h,  0 min,  5.728 sec
 SCC setup                      ...        0 min,  0.004 sec (  0.070%)
 Dispersion                     ...        0 min,  0.016 sec (  0.279%)
 classical contributions        ...        0 min,  0.001 sec (  0.017%)
 integral evaluation            ...        0 min,  0.109 sec (  1.903%)
 iterations                     ...        0 min,  5.080 sec ( 88.687%)
 molecular gradient             ...        0 min,  0.496 sec (  8.659%)
 printout                       ...        0 min,  0.022 sec (  0.384%)

         :::::::::::::::::::::::::::::::::::::::::::::::::::::
         ::                     SUMMARY                     ::
         :::::::::::::::::::::::::::::::::::::::::::::::::::::
         :: total energy            -387.703039597280 Eh    ::
         :: gradient norm              0.077386530703 Eh/a0 ::
         :: HOMO-LUMO gap              0.119196990487 eV    ::
         ::.................................................::
         :: SCC energy              -394.323286674183 Eh    ::
         :: -> isotropic ES            0.008272631801 Eh    ::
         :: -> anisotropic ES          0.009709940825 Eh    ::
         :: -> anisotropic XC          0.140436531442 Eh    ::
         :: -> dispersion             -0.526838555987 Eh    ::
         :: repulsion energy           6.620247076904 Eh    ::
         :: add. restraining           0.000000000000 Eh    ::
         :: total charge              -0.000000000000 e     ::
         :::::::::::::::::::::::::::::::::::::::::::::::::::::

      ----------------------------------------------------------- 
     |                   =====================                   |
     |                        A N C O P T                        |
     |                   =====================                   |
     |               Approximate Normal Coordinate               |
     |                Rational Function Optimizer                |
      ----------------------------------------------------------- 
      ----------------------------------------------------------- 
     |                   =====================                   |
     |                        A N C O P T                        |
     |                   =====================                   |
     |               Approximate Normal Coordinate               |
     |                Rational Function Optimizer                |
      ----------------------------------------------------------- 

          ...................................................
          :                      SETUP                      :
          :.................................................:
          :   optimization level            normal          :
          :   max. optcycles                   618          :
          :   ANC micro-cycles                  20          :
          :   degrees of freedom               612          :
          :.................................................:
          :   RF solver                   davidson          :
          :   write xtbopt.log                true          :
          :   linear?                        false          :
          :   energy convergence         0.5000000E-05 Eh   :
          :   grad. convergence          0.1000000E-02 Eh/α :
          :   maxmium RF displ.          1.0000000          :
          :   Hlow (freq-cutoff)         0.1000000E-01      :
          :   Hmax (freq-cutoff)         5.0000000          :
          :   S6 in model hess.         20.0000000          :
          ...................................................

generating ANC from exact Hessian ...
Using Lindh-Hessian (1995)
 Shifting diagonal of input Hessian by   9.931227404951231E-003
 Lowest  eigenvalues of input Hessian
    0.000000    0.000000    0.000000    0.000000    0.000000    0.000000
    0.010000    0.010068    0.010092    0.010196    0.010235    0.010519
    0.010587    0.010745    0.010831    0.010948    0.011349    0.011396
 Highest eigenvalues
    2.041395    2.048075    2.051677    2.061141    2.071801    2.083884
 

........................................................................
.............................. CYCLE    1 ..............................
........................................................................

 iter      E             dE          RMSdq      gap      omega  full diag
   1   -394.3112031 -0.394311E+03  0.522E-04    0.12       0.0  T
   2   -394.3112008  0.236205E-05  0.263E-03    0.12       2.7  T
   3   -394.3112030 -0.219546E-05  0.734E-04    0.12       9.5  T
   4   -394.3112031 -0.166019E-06  0.390E-04    0.12      17.9  T
   5   -394.3112032 -0.442546E-07  0.211E-04    0.12      33.1  T
     SCC iter.                  ...        0 min,  1.070 sec
     gradient                   ...        0 min,  0.477 sec
 * total energy  :  -387.7030397 Eh     change       -0.9347269E-07 Eh
   gradient norm :     0.0773777 Eh/α   predicted     0.0000000E+00 (-100.00%)
   displ. norm   :     0.5996332 α      lambda       -0.2747061E-01
   maximum displ.:     0.2499373 α      in ANC's #42, #84, #56, ...

........................................................................
.............................. CYCLE    2 ..............................
........................................................................

 iter      E             dE          RMSdq      gap      omega  full diag
   1   -394.4677011 -0.394468E+03  0.240E-01    0.10       0.0  T
   2   -394.4122205  0.554807E-01  0.409E-01    0.28       1.0  T
   3   -394.4438086 -0.315881E-01  0.294E-01    0.10       1.0  T
   4   -394.4407152  0.309342E-02  0.261E-01    0.16       1.0  T
   5   -394.4632205 -0.225053E-01  0.175E-01    0.14       1.0  T
   6   -394.4702888 -0.706826E-02  0.102E-01    0.13       1.0  T
   7   -394.4718099 -0.152112E-02  0.635E-02    0.12       1.0  T
   8   -394.4725986 -0.788670E-03  0.324E-02    0.11       1.0  T
   9   -394.4728960 -0.297404E-03  0.187E-02    0.11       1.0  T
  10   -394.4729472 -0.512852E-04  0.131E-02    0.11       1.0  T
  11   -394.4730059 -0.586897E-04  0.422E-03    0.11       1.7  T
  12   -394.4730112 -0.529800E-05  0.213E-03    0.11       3.3  T
  13   -394.4730127 -0.147938E-05  0.132E-03    0.11       5.3  T
  14   -394.4730125  0.190520E-06  0.132E-03    0.11       5.3  T
  15   -394.4730130 -0.500541E-06  0.578E-04    0.11      12.1  T
  16   -394.4730131 -0.983155E-07  0.205E-04    0.11      34.0  T
     SCC iter.                  ...        0 min,  3.386 sec
     gradient                   ...        0 min,  0.485 sec
 * total energy  :  -387.7244053 Eh     change       -0.2136562E-01 Eh
   gradient norm :     0.0428394 Eh/α   predicted    -0.1867543E-01 ( -12.59%)
   displ. norm   :     0.6653766 α      lambda       -0.1720896E-01
   maximum displ.:     0.3219146 α      in ANC's #42, #51, #84, ...

........................................................................
.............................. CYCLE    3 ..............................
........................................................................

 iter      E             dE          RMSdq      gap      omega  full diag
   1   -394.6208865 -0.394621E+03  0.333E-01    0.07       0.0  T
   2   -394.4982422  0.122644E+00  0.585E-01    0.29       1.0  T
   3   -394.6008086 -0.102566E+00  0.321E-01    0.08       1.0  T
   4   -394.5903703  0.104383E-01  0.353E-01    0.10       1.0  T
   5   -394.6151947 -0.248244E-01  0.240E-01    0.16       1.0  T
   6   -394.6307312 -0.155365E-01  0.134E-01    0.12       1.0  T
   7   -394.6341651 -0.343388E-02  0.690E-02    0.11       1.0  T
   8   -394.6326751  0.149004E-02  0.104E-01    0.09       1.0  T
   9   -394.6352619 -0.258682E-02  0.258E-02    0.10       1.0  T
  10   -394.6354340 -0.172136E-03  0.232E-02    0.10       1.0  T
  11   -394.6354873 -0.532798E-04  0.197E-02    0.10       1.0  T
  12   -394.6355762 -0.889037E-04  0.654E-03    0.10       1.1  T
  13   -394.6355871 -0.108602E-04  0.159E-03    0.10       4.4  T
  14   -394.6355878 -0.704820E-06  0.723E-04    0.10       9.6  T
  15   -394.6355879 -0.152489E-06  0.365E-04    0.10      19.1  T
     SCC iter.                  ...        0 min,  3.134 sec
     gradient                   ...        0 min,  0.486 sec
 * total energy  :  -387.7371457 Eh     change       -0.1274043E-01 Eh
   gradient norm :     0.0205654 Eh/α   predicted    -0.1241391E-01 (  -2.56%)
   displ. norm   :     0.6080446 α      lambda       -0.8203910E-02
   maximum displ.:     0.3373406 α      in ANC's #42, #45, #51, ...

........................................................................
.............................. CYCLE    4 ..............................
........................................................................

 iter      E             dE          RMSdq      gap      omega  full diag
   1   -394.7162699 -0.394716E+03  0.367E-01    0.06       0.0  T
   2   -394.5342558  0.182014E+00  0.696E-01    0.30       1.0  T
   3   -394.6913869 -0.157131E+00  0.354E-01    0.06       1.0  T
   4   -394.6824408  0.894618E-02  0.375E-01    0.10       1.0  T
   5   -394.7131045 -0.306637E-01  0.264E-01    0.14       1.0  T
   6   -394.7310861 -0.179816E-01  0.146E-01    0.12       1.0  T
   7   -394.7360159 -0.492975E-02  0.544E-02    0.09       1.0  T
   8   -394.7338515  0.216441E-02  0.108E-01    0.08       1.0  T
   9   -394.7369622 -0.311070E-02  0.178E-02    0.09       1.0  T
  10   -394.7368319  0.130251E-03  0.295E-02    0.09       1.0  T
  11   -394.7369577 -0.125755E-03  0.202E-02    0.09       1.0  T
  12   -394.7370603 -0.102645E-03  0.408E-03    0.09       1.7  T
  13   -394.7370638 -0.346414E-05  0.119E-03    0.09       5.9  T
  14   -394.7370636  0.133078E-06  0.113E-03    0.09       6.2  T
  15   -394.7370640 -0.376729E-06  0.448E-04    0.09      15.6  T
  16   -394.7370640 -0.355863E-08  0.425E-04    0.09      16.4  T
     SCC iter.                  ...        0 min,  3.383 sec
     gradient                   ...        0 min,  0.507 sec
 * total energy  :  -387.7432436 Eh     change       -0.6097818E-02 Eh
   gradient norm :     0.0160624 Eh/α   predicted    -0.5618535E-02 (  -7.86%)
   displ. norm   :     0.5340218 α      lambda       -0.4141735E-02
   maximum displ.:     0.3064843 α      in ANC's #42, #19, #29, ...

........................................................................
.............................. CYCLE    5 ..............................
........................................................................

 iter      E             dE          RMSdq      gap      omega  full diag
   1   -394.7836059 -0.394784E+03  0.334E-01    0.05       0.0  T
   2   -394.5999197  0.183686E+00  0.693E-01    0.31       1.0  T
   3   -394.7524198 -0.152500E+00  0.362E-01    0.05       1.0  T
   4   -394.7709661 -0.185462E-01  0.285E-01    0.09       1.0  T
   5   -394.7767100 -0.574393E-02  0.284E-01    0.12       1.0  T
   6   -394.7946387 -0.179287E-01  0.156E-01    0.10       1.0  T
   7   -394.8012874 -0.664872E-02  0.423E-02    0.07       1.0  T
   8   -394.7988591  0.242835E-02  0.101E-01    0.06       1.0  T
   9   -394.8013378 -0.247869E-02  0.298E-02    0.08       1.0  T
  10   -394.8012096  0.128143E-03  0.386E-02    0.08       1.0  T
  11   -394.8014307 -0.221104E-03  0.254E-02    0.08       1.0  T
  12   -394.8015974 -0.166714E-03  0.282E-03    0.07       2.5  T
  13   -394.8015972  0.195054E-06  0.225E-03    0.07       3.1  T
  14   -394.8015986 -0.136124E-05  0.108E-03    0.07       6.5  T
  15   -394.8015989 -0.322646E-06  0.547E-04    0.07      12.7  T
  16   -394.8015990 -0.562218E-07  0.205E-04    0.07      34.0  T
     SCC iter.                  ...        0 min,  3.439 sec
     gradient                   ...        0 min,  0.501 sec
 * total energy  :  -387.7462161 Eh     change       -0.2972573E-02 Eh
   gradient norm :     0.0130482 Eh/α   predicted    -0.2661455E-02 ( -10.47%)
   displ. norm   :     0.4235263 α      lambda       -0.1854678E-02
   maximum displ.:     0.2197249 α      in ANC's #42, #19, #29, ...

........................................................................
.............................. CYCLE    6 ..............................
........................................................................

 iter      E             dE          RMSdq      gap      omega  full diag
   1   -394.8165815 -0.394817E+03  0.261E-01    0.04       0.0  T
   2   -394.6633582  0.153223E+00  0.635E-01    0.31       1.0  T
   3   -394.7881044 -0.124746E+00  0.327E-01    0.04       1.0  T
   4   -394.8183859 -0.302815E-01  0.164E-01    0.07       1.0  T
   5   -394.8141518  0.423407E-02  0.220E-01    0.09       1.0  T
   6   -394.8251539 -0.110021E-01  0.107E-01    0.07       1.0  T
   7   -394.8280111 -0.285713E-02  0.380E-02    0.06       1.0  T
   8   -394.8258474  0.216365E-02  0.961E-02    0.05       1.0  T
   9   -394.8281246 -0.227722E-02  0.269E-02    0.06       1.0  T
  10   -394.8281025  0.221739E-04  0.279E-02    0.06       1.0  T
  11   -394.8282610 -0.158559E-03  0.151E-02    0.06       1.0  T
  12   -394.8283175 -0.565199E-04  0.302E-03    0.06       2.3  T
  13   -394.8283187 -0.117175E-05  0.256E-03    0.06       2.7  T
  14   -394.8283207 -0.196320E-05  0.788E-04    0.06       8.8  T
  15   -394.8283208 -0.841631E-07  0.654E-04    0.06      10.6  T
  16   -394.8283208 -0.888477E-07  0.364E-04    0.06      19.1  T
     SCC iter.                  ...        0 min,  3.420 sec
     gradient                   ...        0 min,  0.570 sec
 * total energy  :  -387.7474993 Eh     change       -0.1283138E-02 Eh
   gradient norm :     0.0087863 Eh/α   predicted    -0.1093681E-02 ( -14.77%)
   displ. norm   :     0.3141036 α      lambda       -0.8010424E-03
   maximum displ.:     0.1283790 α      in ANC's #19, #42, #29, ...

........................................................................
.............................. CYCLE    7 ..............................
........................................................................

 iter      E             dE          RMSdq      gap      omega  full diag
   1   -394.8287730 -0.394829E+03  0.151E-01    0.04       0.0  T
   2   -394.7299416  0.988313E-01  0.519E-01    0.31       1.0  T
   3   -394.8010050 -0.710634E-01  0.303E-01    0.04       1.0  T
   4   -394.8300718 -0.290668E-01  0.826E-02    0.05       1.0  T
   5   -394.8274042  0.266765E-02  0.133E-01    0.06       1.0  T
   6   -394.8293727 -0.196849E-02  0.105E-01    0.07       1.0  T
   7   -394.8314702 -0.209751E-02  0.602E-02    0.06       1.0  T
   8   -394.8320901 -0.619979E-03  0.424E-02    0.05       1.0  T
   9   -394.8325176 -0.427412E-03  0.817E-03    0.05       1.0  T
  10   -394.8324943  0.232833E-04  0.122E-02    0.05       1.0  T
  11   -394.8325107 -0.164006E-04  0.984E-03    0.05       1.0  T
  12   -394.8325360 -0.252830E-04  0.107E-03    0.05       6.5  T
  13   -394.8325363 -0.306363E-06  0.654E-04    0.05      10.6  T
  14   -394.8325362  0.670117E-07  0.849E-04    0.05       8.2  T
     SCC iter.                  ...        0 min,  3.018 sec
     gradient                   ...        0 min,  0.484 sec
 * total energy  :  -387.7480564 Eh     change       -0.5571430E-03 Eh
   gradient norm :     0.0055930 Eh/α   predicted    -0.4400392E-03 ( -21.02%)
   displ. norm   :     0.2530829 α      lambda       -0.4196952E-03
   maximum displ.:     0.1119465 α      in ANC's #19, #18, #13, ...

........................................................................
.............................. CYCLE    8 ..............................
........................................................................

 iter      E             dE          RMSdq      gap      omega  full diag
   1   -394.8254661 -0.394825E+03  0.843E-02    0.04       0.0  T
   2   -394.7600541  0.654119E-01  0.435E-01    0.21       1.0  T
   3   -394.8106222 -0.505681E-01  0.219E-01    0.04       1.0  T
   4   -394.8249043 -0.142820E-01  0.696E-02    0.04       1.0  T
   5   -394.8251796 -0.275307E-03  0.642E-02    0.05       1.0  T
   6   -394.8247049  0.474686E-03  0.785E-02    0.06       1.0  T
   7   -394.8252351 -0.530212E-03  0.652E-02    0.06       1.0  T
   8   -394.8259410 -0.705867E-03  0.409E-02    0.05       1.0  T
   9   -394.8264491 -0.508116E-03  0.740E-03    0.04       1.0  T
  10   -394.8264656 -0.164925E-04  0.353E-03    0.05       2.0  T
  11   -394.8264672 -0.165145E-05  0.289E-03    0.05       2.4  T
  12   -394.8264680 -0.749931E-06  0.217E-03    0.05       3.2  T
  13   -394.8264692 -0.127386E-05  0.635E-04    0.05      11.0  T
  14   -394.8264693 -0.436478E-07  0.450E-04    0.05      15.5  T
  15   -394.8264693 -0.464546E-07  0.239E-04    0.05      29.2  T
     SCC iter.                  ...        0 min,  3.149 sec
     gradient                   ...        0 min,  0.520 sec
 * total energy  :  -387.7483495 Eh     change       -0.2931097E-03 Eh
   gradient norm :     0.0038590 Eh/α   predicted    -0.2232896E-03 ( -23.82%)
   displ. norm   :     0.2136148 α      lambda       -0.2307655E-03
   maximum displ.:     0.0891107 α      in ANC's #19, #18, #13, ...

........................................................................
.............................. CYCLE    9 ..............................
........................................................................

 iter      E             dE          RMSdq      gap      omega  full diag
   1   -394.8201475 -0.394820E+03  0.503E-02    0.04       0.0  T
   2   -394.7854849  0.346626E-01  0.324E-01    0.12       1.0  T
   3   -394.8147880 -0.293031E-01  0.131E-01    0.03       1.0  T
   4   -394.8194845 -0.469652E-02  0.498E-02    0.04       1.0  T
   5   -394.8199785 -0.493956E-03  0.359E-02    0.04       1.0  T
   6   -394.8201389 -0.160371E-03  0.305E-02    0.05       1.0  T
   7   -394.8202048 -0.659088E-04  0.263E-02    0.05       1.0  T
   8   -394.8202767 -0.718841E-04  0.199E-02    0.05       1.0  T
   9   -394.8203942 -0.117519E-03  0.516E-03    0.04       1.4  T
  10   -394.8204009 -0.670828E-05  0.200E-03    0.04       3.5  T
  11   -394.8204021 -0.121411E-05  0.579E-04    0.04      12.0  T
  12   -394.8204021 -0.286284E-07  0.468E-04    0.04      14.9  T
  13   -394.8204022 -0.432733E-07  0.259E-04    0.04      26.9  T
     SCC iter.                  ...        0 min,  2.783 sec
     gradient                   ...        0 min,  0.499 sec
 * total energy  :  -387.7485113 Eh     change       -0.1618085E-03 Eh
   gradient norm :     0.0031802 Eh/α   predicted    -0.1206500E-03 ( -25.44%)
   displ. norm   :     0.1911737 α      lambda       -0.1441713E-03
   maximum displ.:     0.0673804 α      in ANC's #12, #19, #13, ...

........................................................................
.............................. CYCLE   10 ..............................
........................................................................

 iter      E             dE          RMSdq      gap      omega  full diag
   1   -394.8175050 -0.394818E+03  0.385E-02    0.04       0.0  T
   2   -394.7941879  0.233171E-01  0.266E-01    0.10       1.0  T
   3   -394.8154988 -0.213108E-01  0.815E-02    0.03       1.0  T
   4   -394.8165830 -0.108423E-02  0.495E-02    0.04       1.0  T
   5   -394.8174618 -0.878802E-03  0.235E-02    0.04       1.0  T
   6   -394.8175523 -0.905553E-04  0.167E-02    0.04       1.0  T
   7   -394.8175873 -0.349924E-04  0.129E-02    0.04       1.0  T
   8   -394.8176026 -0.152740E-04  0.100E-02    0.04       1.0  T
   9   -394.8176306 -0.279688E-04  0.383E-03    0.04       1.8  T
  10   -394.8176345 -0.388191E-05  0.113E-03    0.04       6.2  T
  11   -394.8176348 -0.374732E-06  0.356E-04    0.04      19.6  T
  12   -394.8176348 -0.324690E-08  0.300E-04    0.04      23.2  T
     SCC iter.                  ...        0 min,  2.547 sec
     gradient                   ...        0 min,  0.472 sec
 * total energy  :  -387.7486152 Eh     change       -0.1038948E-03 Eh
   gradient norm :     0.0028209 Eh/α   predicted    -0.7472553E-04 ( -28.08%)
   displ. norm   :     0.1924326 α      lambda       -0.1097275E-03
   maximum displ.:     0.0783354 α      in ANC's #12, #7, #13, ...

........................................................................
.............................. CYCLE   11 ..............................
........................................................................

 iter      E             dE          RMSdq      gap      omega  full diag
   1   -394.8178963 -0.394818E+03  0.360E-02    0.04       0.0  T
   2   -394.7944125  0.234838E-01  0.266E-01    0.10       1.0  T
   3   -394.8167560 -0.223435E-01  0.632E-02    0.03       1.0  T
   4   -394.8171226 -0.366641E-03  0.460E-02    0.04       1.0  T
   5   -394.8179067 -0.784111E-03  0.190E-02    0.04       1.0  T
   6   -394.8179525 -0.457680E-04  0.145E-02    0.04       1.0  T
   7   -394.8179918 -0.392726E-04  0.984E-03    0.04       1.0  T
   8   -394.8180021 -0.103357E-04  0.725E-03    0.04       1.0  T
   9   -394.8180172 -0.150253E-04  0.290E-03    0.04       2.4  T
  10   -394.8180192 -0.200645E-05  0.119E-03    0.04       5.9  T
  11   -394.8180196 -0.407192E-06  0.392E-04    0.04      17.8  T
  12   -394.8180196 -0.167354E-07  0.307E-04    0.04      22.7  T
     SCC iter.                  ...        0 min,  2.626 sec
     gradient                   ...        0 min,  0.515 sec
 * total energy  :  -387.7486931 Eh     change       -0.7791857E-04 Eh
   gradient norm :     0.0024726 Eh/α   predicted    -0.5689941E-04 ( -26.98%)
   displ. norm   :     0.1679146 α      lambda       -0.7454835E-04
   maximum displ.:     0.0757089 α      in ANC's #12, #7, #8, ...

........................................................................
.............................. CYCLE   12 ..............................
........................................................................

 iter      E             dE          RMSdq      gap      omega  full diag
   1   -394.8204386 -0.394820E+03  0.292E-02    0.04       0.0  T
   2   -394.8020821  0.183565E-01  0.234E-01    0.09       1.0  T
   3   -394.8199220 -0.178399E-01  0.443E-02    0.04       1.0  T
   4   -394.8200976 -0.175549E-03  0.327E-02    0.04       1.0  T
   5   -394.8204710 -0.373395E-03  0.128E-02    0.04       1.0  T
   6   -394.8204901 -0.191514E-04  0.101E-02    0.04       1.0  T
   7   -394.8205163 -0.261994E-04  0.554E-03    0.04       1.3  T
   8   -394.8205207 -0.432921E-05  0.365E-03    0.04       1.9  T
   9   -394.8205243 -0.364023E-05  0.167E-03    0.04       4.2  T
  10   -394.8205247 -0.358610E-06  0.118E-03    0.04       5.9  T
  11   -394.8205251 -0.415856E-06  0.428E-04    0.04      16.3  T
  12   -394.8205251 -0.565735E-07  0.131E-04    0.04      53.1  T
     SCC iter.                  ...        0 min,  2.598 sec
     gradient                   ...        0 min,  0.473 sec
 * total energy  :  -387.7487456 Eh     change       -0.5246536E-04 Eh
   gradient norm :     0.0021333 Eh/α   predicted    -0.3832600E-04 ( -26.95%)
   displ. norm   :     0.1246051 α      lambda       -0.4549912E-04
   maximum displ.:     0.0586333 α      in ANC's #12, #7, #8, ...

........................................................................
.............................. CYCLE   13 ..............................
........................................................................

 iter      E             dE          RMSdq      gap      omega  full diag
   1   -394.8229243 -0.394823E+03  0.189E-02    0.04       0.0  T
   2   -394.8175306  0.539369E-02  0.128E-01    0.06       1.0  T
   3   -394.8227265 -0.519586E-02  0.274E-02    0.04       1.0  T
   4   -394.8228286 -0.102185E-03  0.185E-02    0.04       1.0  T
   5   -394.8229275 -0.988455E-04  0.736E-03    0.04       1.0  T
   6   -394.8229395 -0.120579E-04  0.413E-03    0.04       1.7  T
   7   -394.8229437 -0.415959E-05  0.251E-03    0.04       2.8  T
   8   -394.8229454 -0.166364E-05  0.976E-04    0.04       7.1  T
   9   -394.8229456 -0.205026E-06  0.611E-04    0.04      11.4  T
  10   -394.8229456 -0.843590E-08  0.590E-04    0.04      11.8  T
     SCC iter.                  ...        0 min,  2.092 sec
     gradient                   ...        0 min,  0.472 sec
 * total energy  :  -387.7487780 Eh     change       -0.3241507E-04 Eh
   gradient norm :     0.0015790 Eh/α   predicted    -0.2310480E-04 ( -28.72%)
   displ. norm   :     0.1499154 α      lambda       -0.2932915E-04
   maximum displ.:     0.0699623 α      in ANC's #12, #7, #8, ...

........................................................................
.............................. CYCLE   14 ..............................
........................................................................

 iter      E             dE          RMSdq      gap      omega  full diag
   1   -394.8250342 -0.394825E+03  0.210E-02    0.04       0.0  T
   2   -394.8234643  0.156993E-02  0.700E-02    0.05       1.0  T
   3   -394.8242834 -0.819158E-03  0.492E-02    0.03       1.0  T
   4   -394.8249501 -0.666692E-03  0.156E-02    0.04       1.0  T
   5   -394.8250232 -0.731040E-04  0.674E-03    0.04       1.0  T
   6   -394.8250358 -0.126096E-04  0.365E-03    0.04       1.9  T
   7   -394.8250396 -0.381632E-05  0.203E-03    0.04       3.4  T
   8   -394.8250405 -0.862925E-06  0.105E-03    0.04       6.6  T
   9   -394.8250407 -0.179023E-06  0.764E-04    0.04       9.1  T
  10   -394.8250407 -0.418315E-07  0.635E-04    0.04      11.0  T
     SCC iter.                  ...        0 min,  2.121 sec
     gradient                   ...        0 min,  0.487 sec
 * total energy  :  -387.7488027 Eh     change       -0.2466240E-04 Eh
   gradient norm :     0.0014695 Eh/α   predicted    -0.1481431E-04 ( -39.93%)
   displ. norm   :     0.0593585 α      lambda       -0.1205281E-04
   maximum displ.:     0.0302027 α      in ANC's #7, #12, #8, ...

........................................................................
.............................. CYCLE   15 ..............................
........................................................................

 iter      E             dE          RMSdq      gap      omega  full diag
   1   -394.8241289 -0.394824E+03  0.869E-03    0.04       0.0  T
   2   -394.8241260  0.290276E-05  0.597E-03    0.04       1.2  T
   3   -394.8240437  0.822543E-04  0.173E-02    0.04       1.0  T
   4   -394.8236509  0.392852E-03  0.374E-02    0.04       1.0  T
   5   -394.8241125 -0.461595E-03  0.681E-03    0.04       1.0  T
   6   -394.8241289 -0.164460E-04  0.115E-03    0.04       6.1  T
   7   -394.8241290 -0.219386E-07  0.106E-03    0.04       6.6  T
   8   -394.8241293 -0.327705E-06  0.438E-04    0.04      15.9  T
   9   -394.8241293 -0.436710E-07  0.224E-04    0.04      31.1  T
     SCC iter.                  ...        0 min,  1.914 sec
     gradient                   ...        0 min,  0.496 sec
 * total energy  :  -387.7488159 Eh     change       -0.1321723E-04 Eh
   gradient norm :     0.0011781 Eh/α   predicted    -0.6036552E-05 ( -54.33%)
   displ. norm   :     0.1088680 α      lambda       -0.1710461E-04
   maximum displ.:     0.0536165 α      in ANC's #7, #12, #18, ...

........................................................................
.............................. CYCLE   16 ..............................
........................................................................

 iter      E             dE          RMSdq      gap      omega  full diag
   1   -394.8228797 -0.394823E+03  0.155E-02    0.04       0.0  T
   2   -394.8227920  0.876641E-04  0.192E-02    0.04       1.0  T
   3   -394.8204813  0.231068E-02  0.866E-02    0.03       1.0  T
   4   -394.8224737 -0.199237E-02  0.327E-02    0.04       1.0  T
   5   -394.8228680 -0.394325E-03  0.631E-03    0.04       1.1  T
   6   -394.8228795 -0.114440E-04  0.199E-03    0.04       3.5  T
   7   -394.8228801 -0.633499E-06  0.130E-03    0.04       5.4  T
   8   -394.8228804 -0.253737E-06  0.116E-03    0.04       6.0  T
   9   -394.8228806 -0.280750E-06  0.747E-04    0.04       9.3  T
  10   -394.8228808 -0.156403E-06  0.348E-04    0.04      20.0  T
     SCC iter.                  ...        0 min,  2.097 sec
     gradient                   ...        0 min,  0.498 sec
 * total energy  :  -387.7488281 Eh     change       -0.1222594E-04 Eh
   gradient norm :     0.0014640 Eh/α   predicted    -0.8598583E-05 ( -29.67%)
   displ. norm   :     0.0681397 α      lambda       -0.8549486E-05
   maximum displ.:     0.0379525 α      in ANC's #7, #12, #2, ...

........................................................................
.............................. CYCLE   17 ..............................
........................................................................

 iter      E             dE          RMSdq      gap      omega  full diag
   1   -394.8225540 -0.394823E+03  0.851E-03    0.04       0.0  T
   2   -394.8222210  0.333028E-03  0.326E-02    0.04       1.0  T
   3   -394.8224455 -0.224510E-03  0.186E-02    0.04       1.0  T
   4   -394.8224773 -0.317739E-04  0.150E-02    0.04       1.0  T
   5   -394.8225509 -0.736000E-04  0.396E-03    0.04       1.8  T
   6   -394.8225544 -0.351373E-05  0.178E-03    0.04       3.9  T
   7   -394.8225553 -0.859042E-06  0.852E-04    0.04       8.2  T
   8   -394.8225553 -0.683208E-07  0.621E-04    0.04      11.2  T
     SCC iter.                  ...        0 min,  1.690 sec
     gradient                   ...        0 min,  0.469 sec
 * total energy  :  -387.7488372 Eh     change       -0.9101418E-05 Eh
   gradient norm :     0.0010099 Eh/α   predicted    -0.4286414E-05 ( -52.90%)
   displ. norm   :     0.0903966 α      lambda       -0.8413873E-05
   maximum displ.:     0.0492365 α      in ANC's #7, #2, #12, ...

........................................................................
.............................. CYCLE   18 ..............................
........................................................................

 iter      E             dE          RMSdq      gap      omega  full diag
   1   -394.8225534 -0.394823E+03  0.107E-02    0.04       0.0  T
   2   -394.8219094  0.643968E-03  0.449E-02    0.04       1.0  T
   3   -394.8223989 -0.489522E-03  0.225E-02    0.04       1.0  T
   4   -394.8224776 -0.786795E-04  0.159E-02    0.04       1.0  T
   5   -394.8225502 -0.726157E-04  0.438E-03    0.04       1.6  T
   6   -394.8225548 -0.461258E-05  0.193E-03    0.04       3.6  T
   7   -394.8225556 -0.759248E-06  0.118E-03    0.04       5.9  T
   8   -394.8225558 -0.233920E-06  0.724E-04    0.04       9.6  T
   9   -394.8225560 -0.167707E-06  0.250E-04    0.04      27.9  T
     SCC iter.                  ...        0 min,  1.957 sec
     gradient                   ...        0 min,  0.508 sec
 * total energy  :  -387.7488470 Eh     change       -0.9734499E-05 Eh
   gradient norm :     0.0008780 Eh/α   predicted    -0.4224433E-05 ( -56.60%)
   displ. norm   :     0.1370621 α      lambda       -0.9895150E-05
   maximum displ.:     0.0727126 α      in ANC's #7, #2, #12, ...

........................................................................
.............................. CYCLE   19 ..............................
........................................................................

 iter      E             dE          RMSdq      gap      omega  full diag
   1   -394.8230984 -0.394823E+03  0.161E-02    0.04       0.0  T
   2   -394.8206150  0.248344E-02  0.873E-02    0.05       1.0  T
   3   -394.8228640 -0.224902E-02  0.284E-02    0.03       1.0  T
   4   -394.8229729 -0.108925E-03  0.210E-02    0.04       1.0  T
   5   -394.8231019 -0.128993E-03  0.443E-03    0.04       1.6  T
   6   -394.8231035 -0.161697E-05  0.346E-03    0.04       2.0  T
   7   -394.8231071 -0.358908E-05  0.160E-03    0.04       4.4  T
   8   -394.8231074 -0.317149E-06  0.115E-03    0.04       6.0  T
   9   -394.8231078 -0.337199E-06  0.636E-04    0.04      11.0  T
  10   -394.8231078 -0.735288E-07  0.404E-04    0.04      17.2  T
     SCC iter.                  ...        0 min,  2.188 sec
     gradient                   ...        0 min,  0.405 sec
 * total energy  :  -387.7488571 Eh     change       -0.1014797E-04 Eh
   gradient norm :     0.0009346 Eh/α   predicted    -0.4989607E-05 ( -50.83%)
   displ. norm   :     0.1404126 α      lambda       -0.8048843E-05
   maximum displ.:     0.0727806 α      in ANC's #7, #2, #4, ...

........................................................................
.............................. CYCLE   20 ..............................
........................................................................

 iter      E             dE          RMSdq      gap      omega  full diag
   1   -394.8230915 -0.394823E+03  0.149E-02    0.04       0.0  T
   2   -394.8230343  0.571880E-04  0.159E-02    0.04       1.0  T
   3   -394.8201337  0.290060E-02  0.953E-02    0.03       1.0  T
   4   -394.8229945 -0.286074E-02  0.181E-02    0.04       1.0  T
   5   -394.8230882 -0.937651E-04  0.342E-03    0.04       2.0  T
   6   -394.8230910 -0.273237E-05  0.186E-03    0.04       3.7  T
   7   -394.8230913 -0.298444E-06  0.156E-03    0.04       4.5  T
   8   -394.8230921 -0.809075E-06  0.470E-04    0.04      14.8  T
   9   -394.8230921  0.198070E-07  0.484E-04    0.04      14.4  T
     SCC iter.                  ...        0 min,  1.401 sec
     gradient                   ...        0 min,  0.328 sec
 * total energy  :  -387.7488658 Eh     change       -0.8650810E-05 Eh
   gradient norm :     0.0009054 Eh/α   predicted    -0.4063022E-05 ( -53.03%)
   displ. norm   :     0.1452288 α      lambda       -0.7595195E-05
   maximum displ.:     0.0719642 α      in ANC's #7, #2, #4, ...
 * RMSD in coord.:     0.2398888 α      energy gain  -0.4582617E-01 Eh

generating ANC from exact Hessian ...
Using Lindh-Hessian (1995)
 Shifting diagonal of input Hessian by   9.921456295823861E-003
 Lowest  eigenvalues of input Hessian
    0.000000    0.000000    0.000000    0.000000    0.000000    0.000000
    0.010000    0.010077    0.010100    0.010223    0.010271    0.010601
    0.010670    0.010847    0.010946    0.011064    0.011601    0.011653
 Highest eigenvalues
    2.127154    2.137792    2.142274    2.153741    2.167039    2.178117
 

........................................................................
.............................. CYCLE   21 ..............................
........................................................................

 iter      E             dE          RMSdq      gap      omega  full diag
   1   -394.8232566 -0.394823E+03  0.152E-02    0.04       0.0  T
   2   -394.8226408  0.615843E-03  0.444E-02    0.04       1.0  T
   3   -394.8227552 -0.114477E-03  0.399E-02    0.03       1.0  T
   4   -394.8231372 -0.381940E-03  0.185E-02    0.04       1.0  T
   5   -394.8232552 -0.118024E-03  0.342E-03    0.04       2.0  T
   6   -394.8232572 -0.199581E-05  0.225E-03    0.04       3.1  T
   7   -394.8232588 -0.156501E-05  0.101E-03    0.04       6.9  T
   8   -394.8232588 -0.202180E-07  0.899E-04    0.04       7.8  T
   9   -394.8232590 -0.233382E-06  0.396E-04    0.04      17.6  T
     SCC iter.                  ...        0 min,  1.704 sec
     gradient                   ...        0 min,  0.510 sec
 * total energy  :  -387.7488746 Eh     change       -0.8882897E-05 Eh
   gradient norm :     0.0007551 Eh/α   predicted     0.0000000E+00 (-100.00%)
   displ. norm   :     0.0203458 α      lambda       -0.2880072E-05
   maximum displ.:     0.0081117 α      in ANC's #9, #13, #10, ...

........................................................................
.............................. CYCLE   22 ..............................
........................................................................

 iter      E             dE          RMSdq      gap      omega  full diag
   1   -394.8230919 -0.394823E+03  0.314E-03    0.04       0.0  T
   2   -394.8230904  0.143816E-05  0.270E-03    0.04       2.6  T
   3   -394.8228949  0.195584E-03  0.244E-02    0.04       1.0  T
   4   -394.8230884 -0.193521E-03  0.297E-03    0.04       2.3  T
   5   -394.8230916 -0.323410E-05  0.947E-04    0.04       7.4  T
   6   -394.8230918 -0.222625E-06  0.469E-04    0.04      14.9  T
   7   -394.8230919 -0.310218E-07  0.342E-04    0.04      20.4  T
     SCC iter.                  ...        0 min,  1.542 sec
     gradient                   ...        0 min,  0.506 sec
 * total energy  :  -387.7488784 Eh     change       -0.3781668E-05 Eh
   gradient norm :     0.0002878 Eh/α   predicted    -0.1526101E-05 ( -59.64%)
   displ. norm   :     0.0670520 α      lambda       -0.6559065E-05
   maximum displ.:     0.0285949 α      in ANC's #9, #13, #10, ...

   *** GEOMETRY OPTIMIZATION CONVERGED AFTER 22 ITERATIONS ***

------------------------------------------------------------------------
 total energy gain   :        -0.0458388 Eh      -28.7643 kcal/mol
 total RMSD          :         0.2397779 a0        0.1269 Å
 total power (kW/mol):        -5.4704470 (step)   -1.7826 (real)
------------------------------------------------------------------------

 ANCopt (total)                0 d,  0 h,  1 min,  7.515 sec
 optimizer setup                ...        0 min,  0.002 sec (  0.003%)
 model hessian                  ...        0 min,  0.354 sec (  0.524%)
 ANC generation                 ...        0 min,  0.164 sec (  0.243%)
 coordinate transformation      ...        0 min,  0.009 sec (  0.013%)
 single point calculation       ...        1 min,  6.899 sec ( 99.088%)
 optimization log               ...        0 min,  0.052 sec (  0.077%)
 hessian update                 ...        0 min,  0.009 sec (  0.013%)
 rational function              ...        0 min,  0.015 sec (  0.022%)

================
 final structure:
================
206
 xtb: 6.7.1pre (5071a88)
C           -8.99645703836566       -9.50931404996287       -0.53828623299425
C           -8.15446013452513      -10.56347391099878       -0.20780765873684
C           -6.79901712245900      -10.40043695966152       -0.34086668417395
C           -6.24804383253569       -9.16931243576820       -0.72988007192291
C           -8.47851103810992       -8.26983750865005       -0.85703884709095
C           -7.08462367216156       -8.03231145500028       -0.87041316225277
C           -6.50799078746548       -6.71353463624562       -0.92158770509991
C           -9.46186095415416       -4.41691464663934       -0.83993413166290
C           -8.71156140969970       -5.56563477981055       -0.95613405539538
C           -7.30919232435642       -5.53699147311404       -0.81755850229787
C           -6.68644130652805       -4.29393896597464       -0.52804811872238
C           -9.72046815227219       -2.04010730307958       -0.53126193108836
C           -8.90033303960897       -3.20189180152846       -0.46524146280330
C           -7.48675517671078       -3.15966700373162       -0.24464157096009
C           -6.85578334544344       -1.97577304831902        0.18607487504107
C           -9.86679286363196        0.42859346687333       -0.48485396503091
C           -9.30115886471424       -0.80978934238473       -0.12202686132554
C           -7.07573542338079        0.70982783760271        0.37105201907828
C           -9.22619863603189        1.63452743013650       -0.36938695214978
C           -7.85662908883395        1.82635700377361        0.04442801384593
C           -7.24317953882489        3.11289425615739        0.10912883223051
C          -10.14128380827268        5.46843831910040       -0.12979602332971
C           -9.36926611806140        4.35509398366615       -0.29811314008965
C           -8.00687302220567        4.31742676431835        0.10476288886095
C           -7.43095278526606        5.51704024757870        0.58654074847573
C          -10.42935547703222        7.74525531866453        0.74411363874002
C           -9.62440476937241        6.63142523159650        0.47811662620707
C           -8.24626917185584        6.65484594631002        0.79903688282089
C           -7.69214041909989        7.82295335252539        1.38106499124006
C           -9.88535069789641        8.86813864351619        1.33640495468983
C           -8.54396217903680        8.90645645792958        1.65320574978737
C           -4.86422681329187       -9.02523088844024       -1.06663094651913
C           -4.01168532804266      -10.17583505243746       -1.21082347481715
C           -2.65624576370264      -10.14294998605615       -1.15597084634359
C           -1.91423798919873       -8.92794518094682       -1.13469963671756
C           -5.10937953436313       -6.56765337319814       -0.97806764472365
C           -4.36360701017968       -7.74917788261487       -1.23130358254291
C           -2.15323719877390       -6.23611329087570       -0.93396617961230
C           -5.26596098088496       -4.17417713601544       -0.45853432256610
C           -4.45921015497550       -5.30075812127007       -0.75052323393031
C           -3.03286936563184       -5.17084434766220       -0.64712429850321
C           -2.44964995439792       -3.95468895503778       -0.19325089635241
C           -5.47681558334091       -1.79054254761311        0.19156310253136
C           -4.66953608228571       -2.92146378624558       -0.11585906664648
C           -3.26856797587641       -2.81717616530007        0.02549455140813
C           -2.68583173185960       -1.59463230560802        0.46504068309240
C           -5.67336258655660        0.72523252082515        0.43413888779559
C           -4.87900598490803       -0.48840065133758        0.45277286435375
C           -3.49743669512629       -0.39303763632483        0.59005716711344
C           -2.88856874118502        0.91586346736732        0.70997979778583
C           -5.85691830938848        3.18036911464039        0.38322957078182
C           -5.06255198650684        2.00094179028743        0.42852054013337
C           -3.66007251613496        2.09255883447719        0.57481761298787
C           -3.03665959346045        3.36496832336404        0.68199390960121
C           -6.03582538393627        5.59173350131800        0.83330908787675
C           -5.24530741791276        4.43936817177565        0.64982263417245
C           -3.83962394079955        4.52705577807569        0.78919239179337
C           -3.23398275401413        5.78827063758086        1.04511586576011
C           -6.30400936035346        7.87339528660741        1.65370717199975
C           -5.44720204388671        6.82509019355048        1.26792692735420
C           -4.02626000111827        6.94779998581868        1.26807718866039
C           -3.45616716599624        8.28993874867781        1.29273421080224
C           -4.09051321371422        9.38435460773556        1.77483572946872
C           -0.61315974423922       -8.74596568839428       -0.69968139517375
C            0.13668326314565       -9.85245117115514       -0.21349403858692
C            1.46436420575488       -9.76005101726593        0.00610671303070
C            2.17763282416652       -8.55923700041187       -0.25698331722002
C           -0.79017193284027       -6.23918374577726       -0.62806743952269
C            0.01672111437386       -7.44078023849317       -0.65086216212634
C            1.39274747339948       -7.35279416583619       -0.45857767424918
C            1.99845894309505       -6.05011353780513       -0.29740382324003
C           -1.04052614016523       -3.87999904180543       -0.02548277460085
C           -0.21618578388795       -5.01674744329957       -0.20447841086536
C            1.18491078356267       -4.91597877247432       -0.05683668235535
C            1.78449681149747       -3.65343210142422        0.19469066925528
C           -1.31570176897982       -1.59507583672925        0.71052643459602
C           -0.44851941699444       -2.66212269861787        0.39787031116508
C            0.97366705015927       -2.52181156850930        0.43979472381679
C            1.61466881779912       -1.23854355046388        0.53269697414378
C           -1.51220915406263        1.07799050865514        0.91672920810762
C            0.91465523174122       -0.06272045279827        0.79936020671475
C            1.42449228921406        1.22968663325767        0.57156699031230
C           -1.62435433584143        3.45947796271723        0.68553035235482
C           -0.83126497267566        2.29582238715832        0.75596744582950
C            0.59970431887994        2.38666662643568        0.63789976529034
C            1.18058477847879        3.66035936992233        0.38675268102975
C           -1.82073704248276        5.81827658788346        1.05509903433928
C           -1.00094818715917        4.73019987765820        0.76555165769239
C            0.41321861056824        4.83608181546782        0.51029882439462
C            1.01216657955877        6.08661203546343        0.16619991312496
C           -2.10631967091906        8.47348851178967        0.78876601622871
C            0.30092292841673        7.28066057133630        0.32432091310636
C            0.63824903296415        8.45635143819112       -0.36101012829196
C           -1.61357552449738        9.47352998173675       -0.01613044500549
C           -0.29965135162743        9.50921531005839       -0.47739639130104
C            3.56842757893010       -8.56576411590632       -0.25825611002511
C            4.44233248941142       -9.61999180759160        0.10931294828918
C            5.77559506147964       -9.45235195732327        0.34560797974708
C            6.44692857820516       -8.19142621984742        0.47805208795205
C            3.38509452355495       -5.87690727767107       -0.30446100471490
C            5.80257162075638       -7.02527065580390        0.09925403917613
C            6.26495909309389       -5.72224546148258        0.39852764635685
C            3.20210768383002       -3.53531719309648        0.19358256813888
C            4.01929110650289       -4.66944071934384        0.01307483046295
C            5.44710220938336       -4.57484257523396        0.22535954638387
C            6.03099403291547       -3.30354051412948        0.39779532046946
C            3.00651913002650       -1.11326937035786        0.28968622038140
C            3.80991620124546       -2.26065245138515        0.22787023494830
C            5.22187167378851       -2.13826449421721        0.20071865771953
C            5.80658896529464       -0.88788103133637        0.00281605356380
C            2.79801396968811        1.34271427081351        0.21326849152050
C            3.58622270064069        0.17012799952873        0.15457088075485
C            4.97108960766529        0.26825368689053       -0.12934136928567
C            5.47144278796686        1.53047853597209       -0.47940928903629
C            2.55638021651146        3.77034374491594        0.01446478520775
C            3.36553214567212        2.61531654056568       -0.03671664023205
C            4.73767414881333        2.71626094428731       -0.39631717365297
C            5.33908179704741        4.00305744904278       -0.63455442234578
C            2.30719076457155        6.16512142508290       -0.41022525622163
C            3.11237879206871        5.00982344308188       -0.39051160479670
C            4.49536673925017        5.12122161102949       -0.71602151087269
C            5.00372566665206        6.39358915881667       -1.13042437796987
C            1.89718869146424        8.49152685251288       -1.01766919814883
C            2.77926924232606        7.40295810159103       -0.96065153341826
C            4.15614629602783        7.47489725485097       -1.38204417569298
C            4.70606419989933        8.68823374452652       -1.95749943014403
C            3.97977238357119        9.82390108217829       -2.12361041344073
C            7.74474335957778       -8.07492011386062        1.09210476534445
C            8.50194664976674       -9.18420640960920        1.47319911440292
C            9.77186112155154       -9.05142923941672        2.00634433301605
C           10.32182675177746       -7.80170811701527        2.17874365072627
C            7.56625380025469       -5.59481040033114        0.95087009569280
C            8.29401949949287       -6.77568176471776        1.27430111407209
C            9.59655227941190       -6.66112668579787        1.82169146006802
C           10.13035193712144       -5.37028360833020        2.02583671124161
C            7.38646369838100       -3.15517079127906        0.78204303171636
C            8.12621004510266       -4.30708013453239        1.15541268373281
C            9.44095141589664       -4.23878403193828        1.70462810120898
C            7.23515421138654       -0.78532459461193        0.12837207395057
C            7.97308547915616       -1.84356664985778        0.71313078031922
C            9.29766547845209       -1.55362913165784        1.11601382412667
C            9.87825347904478       -0.32158604379994        0.89768901498320
C            7.89566066670846        0.40389683329967       -0.19858852571779
C            9.20732327187632        0.68427755310079        0.19259714080404
C            9.75265372823029        1.99888522599663        0.05575353684557
C            6.76715989568107        4.19531498503621       -0.63732432060845
C            7.65216549957478        3.11586796007771       -0.56408628217567
C            9.02132770785132        3.13146072579932       -0.20429164607600
C            6.42784008505351        6.54597512400688       -1.23628997385544
C            7.28229508020978        5.52472384156497       -0.80471607688011
C            8.68189955350211        5.78823274990336       -0.73488801336283
C            9.20651433318881        6.92753697957838       -1.27595806909626
C            6.12839374684486        8.74452563680463       -2.27909725234754
C            6.97692426160717        7.73345018638046       -1.78080973552192
C            8.38056816325301        7.88534497260228       -1.89533408329629
C            8.91119462238261        8.98250644124662       -2.58995449050560
C            6.68947897742450        9.76299618284047       -3.03666828471264
C            8.06772625918708        9.87945546290607       -3.19282874248564
H          -10.06929594118617       -9.64724029248991       -0.53896700452079
H           -8.56582487128921      -11.51070295718827        0.10724602263528
H           -6.14727633872511      -11.23401156022165       -0.13440021344601
H          -10.53506481551774       -7.05396493844968       -0.44725559707738
H          -10.52614905418823       -4.46686231762365       -1.03262554304428
H          -10.66716948747976       -2.14231791501669       -1.04718851532234
H          -10.81964773099639        0.41196072608282       -1.00587292996139
H          -11.27453745674337        2.90137308974180       -0.58839341135560
H          -11.17228930325474        5.46292667598740       -0.45874737906040
H          -11.47723813500185        7.70967755678374        0.48561740554470
H           -4.48980829046124      -11.14156413926584       -1.26507569302503
H           -2.13078238744660      -11.08560649867474       -1.08971584685913
H           -0.36621811532533      -10.79289993038917       -0.05695136673096
H            2.01028529359000      -10.63078788258370        0.33110164930973
H            4.03644019663434      -10.60842060657307        0.27640257784481
H            6.33325521897033      -10.34002738402882        0.60009009778560
H            8.10847010561103      -10.17946256495569        1.34635976608503
H           10.32870930023097       -9.93401206418353        2.28483183333231
H           11.31055520679703       -7.68513416383395        2.59722106977139
H           11.11740555900220       -5.28422699199212        2.46292316937884
H           11.34662424413471       -2.80399233897794        1.36254039726867
H           10.87052144602520       -0.13133459298696        1.28666981840991
H           10.78571967519268        2.12598088321484        0.35759263425190
H           10.82575514251353        4.67323726470175       -0.67170945157476
H           10.27413326026923        7.10040178450858       -1.24188145034118
H            9.98328051633629        9.08801354056100       -2.66504311040567
H            8.46561536935496       10.69427509069307       -3.77941453696889
H          -10.51027428568034        9.72323100506456        1.54817879145268
H           -8.12564665364621        9.79381275520863        2.10676039512967
H           -5.29428682599134        8.60913047635507        3.69908746341717
H           -3.60833965353332       10.35010804283375        1.70523403367828
H           -2.29758313630182       10.22832017366671       -0.38498455172429
H           -0.02434098203611       10.34471652964623       -1.10920993672855
H            2.23663779334049       10.92175225784402       -0.92107637388578
H            4.45894762382155       10.72007116688702       -2.49288163772861
H            6.06509053024927       10.48824131606679       -3.53395371731503
P          -10.04702293359258        2.98390543274540       -1.25616875175918
P           -5.70144171457852        9.33723785388402        2.55495018575325
P           -0.98843085788476        7.31837717074835        1.53886386632953
P            2.22564315450252        9.98519841435715       -1.97175916656847
P            9.77160949889756        4.72655226324208        0.24870969074481
P            7.07139131985040        1.57525171473642       -1.26542931923963
P           -0.62476984748892       -0.25900631796157        1.67430154854767
P           -2.73986453110738       -7.57074613499953       -1.95993025785725
P           -9.61537248928126       -7.02921356814232       -1.50508163725845
P            4.39791037802744       -7.16751631484207       -1.00468585306348
P           10.22215636308597       -2.67800098521238        2.19037001459683
P           -7.88873618558990       -0.75528205078815        0.98250604278675
 
 Bond Distances (Angstroems)
 ---------------------------
C1-C2=1.3890         C1-C5=1.3806         C1-H159=1.0817       C2-C1=1.3890         C2-C3=1.3717         C2-H160=1.0797       
C3-C2=1.3717         C3-C4=1.4038         C3-H161=1.0781       C4-C3=1.4038         C4-C6=1.4186         C4-C32=1.4315        
C5-C1=1.3806         C5-C6=1.4140         C5-P203=1.8032       C6-C4=1.4186         C6-C5=1.4140         C6-C7=1.4402         
C7-C6=1.4402         C7-C10=1.4272        C7-C36=1.4073        C8-C9=1.3770         C8-C13=1.3900        C8-H163=1.0827       
C9-C8=1.3770         C9-C10=1.4095        C9-P203=1.8056       C10-C7=1.4272        C10-C9=1.4095        C10-C11=1.4201       
C11-C10=1.4201       C11-C14=1.4168       C11-C39=1.4272       C12-C13=1.4236       C12-C17=1.3627       C12-H164=1.0830      
C13-C8=1.3900        C13-C12=1.4236       C13-C14=1.4313       C14-C11=1.4168       C14-C13=1.4313       C14-C15=1.4090       
C15-C14=1.4090       C15-C43=1.3914       C15-P206=1.7863      C16-C17=1.4090       C16-C19=1.3704       C16-H165=1.0861      
C17-C12=1.3627       C17-C16=1.4090       C17-P206=1.7939      C18-C20=1.4011       C18-C47=1.4039       C18-P206=1.7836      
C19-C16=1.3704       C19-C20=1.4435       C19-P195=1.8113      C20-C18=1.4011       C20-C19=1.4435       C20-C21=1.4268       
C21-C20=1.4268       C21-C24=1.4262       C21-C51=1.4147       C22-C23=1.3652       C22-C27=1.4104       C22-H167=1.0822      
C23-C22=1.3652       C23-C24=1.4212       C23-P195=1.8048      C24-C21=1.4262       C24-C23=1.4212       C24-C25=1.4152       
C25-C24=1.4152       C25-C28=1.4158       C25-C55=1.4188       C26-C27=1.3998       C26-C30=1.3812       C26-H168=1.0799      
C27-C22=1.4104       C27-C26=1.3998       C27-C28=1.4152       C28-C25=1.4158       C28-C27=1.4152       C28-C29=1.4178       
C29-C28=1.4178       C29-C31=1.4049       C29-C59=1.4156       C30-C26=1.3812       C30-C31=1.3788       C30-H186=1.0801      
C31-C29=1.4049       C31-C30=1.3788       C31-H187=1.0808      C32-C4=1.4315        C32-C33=1.4393       C32-C37=1.3806       
C33-C32=1.4393       C33-C34=1.3569       C33-H169=1.0790      C34-C33=1.3569       C34-C35=1.4238       C34-H170=1.0813      
C35-C34=1.4238       C35-C64=1.3839       C35-P202=1.7902      C36-C7=1.4073        C36-C37=1.4200       C36-C40=1.4421       
C37-C32=1.3806       C37-C36=1.4200       C37-P202=1.7887      C38-C41=1.4110       C38-C68=1.3970       C38-P202=1.7827      
C39-C11=1.4272       C39-C40=1.4161       C39-C44=1.4291       C40-C36=1.4421       C40-C39=1.4161       C40-C41=1.4360       
C41-C38=1.4110       C41-C40=1.4360       C41-C42=1.4231       C42-C41=1.4231       C42-C45=1.4186       C42-C72=1.4210       
C43-C15=1.3914       C43-C44=1.4231       C43-C48=1.4564       C44-C39=1.4291       C44-C43=1.4231       C44-C45=1.4119       
C45-C42=1.4186       C45-C44=1.4119       C45-C46=1.4239       C46-C45=1.4239       C46-C49=1.4554       C46-C76=1.3919       
C47-C18=1.4039       C47-C48=1.4506       C47-C52=1.4144       C48-C43=1.4564       C48-C47=1.4506       C48-C49=1.3916       
C49-C46=1.4554       C49-C48=1.3916       C49-C50=1.4486       C50-C49=1.4486       C50-C53=1.4135       C50-C80=1.4012       
C51-C21=1.4147       C51-C52=1.4227       C51-C56=1.4249       C52-C47=1.4144       C52-C51=1.4227       C52-C53=1.4131       
C53-C50=1.4135       C53-C52=1.4131       C53-C54=1.4210       C54-C53=1.4210       C54-C57=1.4166       C54-C83=1.4155       
C55-C25=1.4188       C55-C56=1.4094       C55-C60=1.4341       C56-C51=1.4249       C56-C55=1.4094       C56-C57=1.4153       
C57-C54=1.4166       C57-C56=1.4153       C57-C58=1.4223       C58-C57=1.4223       C58-C61=1.4219       C58-C87=1.4136       
C59-C29=1.4156       C59-C60=1.4078       C59-P196=1.8216      C60-C55=1.4341       C60-C59=1.4078       C60-C61=1.4262       
C61-C58=1.4219       C61-C60=1.4262       C61-C62=1.4584       C62-C61=1.4584       C62-C63=1.3537       C62-C91=1.4525       
C63-C62=1.3537       C63-H189=1.0817      C63-P196=1.7905      C64-C35=1.3839       C64-C65=1.4223       C64-C69=1.4500       
C65-C64=1.4223       C65-C66=1.3489       C65-H171=1.0779      C66-C65=1.3489       C66-C67=1.4212       C66-H172=1.0779      
C67-C66=1.4212       C67-C70=1.4533       C67-C96=1.3908       C68-C38=1.3970       C68-C69=1.4476       C68-C73=1.4154       
C69-C64=1.4500       C69-C68=1.4476       C69-C70=1.3922       C70-C67=1.4533       C70-C69=1.3922       C70-C71=1.4456       
C71-C70=1.4456       C71-C74=1.4163       C71-C100=1.3974      C72-C42=1.4210       C72-C73=1.4155       C72-C77=1.4188       
C73-C68=1.4154       C73-C72=1.4155       C73-C74=1.4125       C74-C71=1.4163       C74-C73=1.4125       C74-C75=1.4201       
C75-C74=1.4201       C75-C78=1.4135       C75-C103=1.4225      C76-C46=1.3919       C76-C77=1.4101       C76-P201=1.7864      
C77-C72=1.4188       C77-C76=1.4101       C77-C78=1.4297       C78-C75=1.4135       C78-C77=1.4297       C78-C79=1.4375       
C79-C78=1.4375       C79-C81=1.3942       C79-C107=1.4184      C80-C50=1.4012       C80-C84=1.4045       C80-P201=1.7745      
C81-C79=1.3942       C81-C82=1.4079       C81-P201=1.7815      C82-C81=1.4079       C82-C85=1.4224       C82-C111=1.4240      
C83-C54=1.4155       C83-C84=1.4100       C83-C88=1.4177       C84-C80=1.4045       C84-C83=1.4100       C84-C85=1.4387       
C85-C82=1.4224       C85-C84=1.4387       C85-C86=1.4222       C86-C85=1.4222       C86-C89=1.4094       C86-C115=1.4295      
C87-C58=1.4136       C87-C88=1.3928       C87-P197=1.7824      C88-C83=1.4177       C88-C87=1.3928       C88-C89=1.4409       
C89-C86=1.4094       C89-C88=1.4409       C89-C90=1.4286       C90-C89=1.4286       C90-C92=1.3988       C90-C119=1.4197      
C91-C62=1.4525       C91-C94=1.3750       C91-P197=1.7739      C92-C90=1.3988       C92-C93=1.4020       C92-P197=1.7717      
C93-C92=1.4020       C93-C95=1.4148       C93-C123=1.4203      C94-C91=1.3750       C94-C95=1.3930       C94-H190=1.0833      
C95-C93=1.4148       C95-C94=1.3930       C95-H191=1.0831      C96-C67=1.3908       C96-C97=1.4178       C96-P204=1.7889      
C97-C96=1.4178       C97-C98=1.3644       C97-H173=1.0815      C98-C97=1.3644       C98-C99=1.4346       C98-H174=1.0788      
C99-C98=1.4346       C99-C101=1.3851      C99-C128=1.4405      C100-C71=1.3974      C100-C104=1.4004     C100-P204=1.7838     
C101-C99=1.3851      C101-C102=1.4147     C101-P204=1.7922     C102-C101=1.4147     C102-C105=1.4197     C102-C132=1.4194     
C103-C75=1.4225      C103-C104=1.4095     C103-C108=1.4126     C104-C100=1.4004     C104-C103=1.4095     C104-C105=1.4466     
C105-C102=1.4197     C105-C104=1.4466     C105-C106=1.4096     C106-C105=1.4096     C106-C109=1.4323     C106-C136=1.4167     
C107-C79=1.4184      C107-C108=1.4021     C107-C112=1.4147     C108-C103=1.4126     C108-C107=1.4021     C108-C109=1.4175     
C109-C106=1.4323     C109-C108=1.4175     C109-C110=1.3945     C110-C109=1.3945     C110-C113=1.4325     C110-C139=1.4377     
C111-C82=1.4240      C111-C112=1.4141     C111-C116=1.4157     C112-C107=1.4147     C112-C111=1.4141     C112-C113=1.4171     
C113-C110=1.4325     C113-C112=1.4171     C113-C114=1.4022     C114-C113=1.4022     C114-C117=1.3969     C114-P200=1.7832     
C115-C86=1.4295      C115-C116=1.4112     C115-C120=1.4176     C116-C111=1.4157     C116-C115=1.4112     C116-C117=1.4221     
C117-C114=1.3969     C117-C116=1.4221     C117-C118=1.4402     C118-C117=1.4402     C118-C121=1.4031     C118-C146=1.4410     
C119-C90=1.4197      C119-C120=1.4083     C119-C124=1.4346     C120-C115=1.4176     C120-C119=1.4083     C120-C121=1.4251     
C121-C118=1.4031     C121-C120=1.4251     C121-C122=1.4315     C122-C121=1.4315     C122-C125=1.3968     C122-C149=1.4362     
C123-C93=1.4203      C123-C124=1.4022     C123-P198=1.8026     C124-C119=1.4346     C124-C123=1.4022     C124-C125=1.4417     
C125-C122=1.3968     C125-C124=1.4417     C125-C126=1.4511     C126-C125=1.4511     C126-C127=1.3582     C126-C153=1.4593     
C127-C126=1.3582     C127-H193=1.0812     C127-P198=1.7681     C128-C99=1.4405      C128-C129=1.3961     C128-C133=1.4223     
C129-C128=1.3961     C129-C130=1.3837     C129-H175=1.0777     C130-C129=1.3837     C130-C131=1.3762     C130-H176=1.0801     
C131-C130=1.3762     C131-C134=1.3980     C131-H177=1.0800     C132-C102=1.4194     C132-C133=1.4243     C132-C137=1.4190     
C133-C128=1.4223     C133-C132=1.4243     C133-C134=1.4175     C134-C131=1.3980     C134-C133=1.4175     C134-C135=1.4117     
C135-C134=1.4117     C135-C138=1.3634     C135-H178=1.0829     C136-C106=1.4167     C136-C137=1.4190     C136-C140=1.4385     
C137-C132=1.4190     C137-C136=1.4190     C137-C138=1.4265     C138-C135=1.3634     C138-C137=1.4265     C138-P205=1.8117     
C139-C110=1.4377     C139-C140=1.4165     C139-C143=1.3991     C140-C136=1.4385     C140-C139=1.4165     C140-C141=1.4145     
C141-C140=1.4145     C141-C142=1.3794     C141-P205=1.8092     C142-C141=1.3794     C142-C144=1.3997     C142-H180=1.0826     
C143-C139=1.3991     C143-C144=1.3972     C143-P200=1.7860     C144-C142=1.3997     C144-C143=1.3972     C144-C145=1.4298     
C145-C144=1.4298     C145-C148=1.3730     C145-H181=1.0837     C146-C118=1.4410     C146-C147=1.3978     C146-C150=1.4355     
C147-C146=1.3978     C147-C148=1.4157     C147-P200=1.7896     C148-C145=1.3730     C148-C147=1.4157     C148-P199=1.8200     
C149-C122=1.4362     C149-C150=1.3998     C149-C154=1.4171     C150-C146=1.4355     C150-C149=1.3998     C150-C151=1.4259     
C151-C150=1.4259     C151-C152=1.3660     C151-P199=1.8117     C152-C151=1.3660     C152-C155=1.4083     C152-H183=1.0821     
C153-C126=1.4593     C153-C154=1.4109     C153-C157=1.3878     C154-C149=1.4171     C154-C153=1.4109     C154-C155=1.4165     
C155-C152=1.4083     C155-C154=1.4165     C155-C156=1.4028     C156-C155=1.4028     C156-C158=1.3709     C156-H184=1.0799     
C157-C153=1.3878     C157-C158=1.3919     C157-H194=1.0785     C158-C156=1.3709     C158-C157=1.3919     C158-H185=1.0800     
H159-C1=1.0817       H160-C2=1.0797       H161-C3=1.0781       H162-P203=1.4019     H163-C8=1.0827       H164-C12=1.0830      
H165-C16=1.0861      H166-P195=1.3998     H167-C22=1.0822      H168-C26=1.0799      H169-C33=1.0790      H170-C34=1.0813      
H171-C65=1.0779      H172-C66=1.0779      H173-C97=1.0815      H174-C98=1.0788      H175-C129=1.0777     H176-C130=1.0801     
H177-C131=1.0800     H178-C135=1.0829     H179-P205=1.4020     H180-C142=1.0826     H181-C145=1.0837     H182-P199=1.4004     
H183-C152=1.0821     H184-C156=1.0799     H185-C158=1.0800     H186-C30=1.0801      H187-C31=1.0808      H188-P196=1.4160     
H189-C63=1.0817      H190-C94=1.0833      H191-C95=1.0831      H192-P198=1.4075     H193-C127=1.0812     H194-C157=1.0785     
P195-C19=1.8113      P195-C23=1.8048      P195-H166=1.3998     P196-C59=1.8216      P196-C63=1.7905      P196-H188=1.4160     
P197-C87=1.7824      P197-C91=1.7739      P197-C92=1.7717      P198-C123=1.8026     P198-C127=1.7681     P198-H192=1.4075     
P199-C148=1.8200     P199-C151=1.8117     P199-H182=1.4004     P200-C114=1.7832     P200-C143=1.7860     P200-C147=1.7896     
P201-C76=1.7864      P201-C80=1.7745      P201-C81=1.7815      P202-C35=1.7902      P202-C37=1.7887      P202-C38=1.7827      
P203-C5=1.8032       P203-C9=1.8056       P203-H162=1.4019     P204-C96=1.7889      P204-C100=1.7838     P204-C101=1.7922     
P205-C138=1.8117     P205-C141=1.8092     P205-H179=1.4020     P206-C15=1.7863      P206-C17=1.7939      P206-C18=1.7836      
 C  H  Rav=1.0809 sigma=0.0020  Rmin=1.0777  Rmax=1.0861    30
 C  C  Rav=1.4129 sigma=0.0214  Rmin=1.3489  Rmax=1.4593   207
 P  H  Rav=1.4046 sigma=0.0057  Rmin=1.3998  Rmax=1.4160     6
 P  C  Rav=1.7927 sigma=0.0141  Rmin=1.7681  Rmax=1.8216    30
 
 selected bond angles (degree)
 --------------------
C5-C1-C2=120.59                H159-C1-C2=120.31              H159-C1-C5=119.11              C3-C2-C1=119.06                
H160-C2-C1=120.28              H160-C2-C3=120.60              C4-C3-C2=121.26                H161-C3-C2=119.14              
H161-C3-C4=119.60              C6-C4-C3=119.93                C32-C4-C3=122.20               C32-C4-C6=117.78               
C6-C5-C1=121.52                P203-C5-C1=117.65              P203-C5-C6=120.17              C5-C6-C4=116.47                
C7-C6-C4=120.09                C7-C6-C5=123.29                C10-C7-C6=121.84               C36-C7-C6=119.62               
C36-C7-C10=118.38              C13-C8-C9=122.13               H163-C8-C9=118.82              H163-C8-C13=119.04             
C10-C9-C8=121.12               P203-C9-C8=115.41              P203-C9-C10=122.98             C9-C10-C7=122.32               
C11-C10-C7=119.36              C11-C10-C9=118.30              
 
 selected dihedral angles (degree)
 ---------------------------------
C3-C2-C1-C5=353.05            C3-C2-C1-H159=173.69          H160-C2-C1-C5=175.73          H160-C2-C1-H159=356.37        
C4-C3-C2-C1=  3.67            C4-C3-C2-H160=180.98          H161-C3-C2-C1=183.18          H161-C3-C2-H160=  0.50        
C6-C4-C3-C2=  5.97            C6-C4-C3-H161=186.45          C32-C4-C3-C2=189.45           C32-C4-C3-H161=  9.93         
C6-C5-C1-C2=  0.56            C6-C5-C1-H159=179.93          P203-C5-C1-C2=171.25          P203-C5-C1-H159=350.62        
C5-C6-C4-C3=348.14            C5-C6-C4-C32=164.81           C7-C6-C4-C3=163.75            C7-C6-C4-C32=340.42           
C4-C6-C5-C1=  8.74            C4-C6-C5-P203=198.28          C7-C6-C5-C1=193.29            C7-C6-C5-P203= 22.83          
C10-C7-C6-C4=191.59           C10-C7-C6-C5=  6.88           C36-C7-C6-C4=  6.88           C36-C7-C6-C5=182.18           
C10-C9-C8-C13=354.14          C10-C9-C8-H163=175.07         P203-C9-C8-C13=181.87         P203-C9-C8-H163=  2.81        
C9-C10-C7-C6=345.62           C9-C10-C7-C36=170.27          C11-C10-C7-C6=163.84          C11-C10-C7-C36=348.49         
C7-C10-C9-C8=179.45           C7-C10-C9-P203=351.12         C11-C10-C9-C8=  1.21          C11-C10-C9-P203=172.88        
           -------------------------------------------------
          |                Final Singlepoint                |
           -------------------------------------------------

          ...................................................
          :                      SETUP                      :
          :.................................................:
          :  # basis functions                 788          :
          :  # atomic orbitals                 776          :
          :  # shells                          388          :
          :  # electrons                       728          :
          :  max. iterations                   250          :
          :  Hamiltonian                  GFN2-xTB          :
          :  restarted?                      false          :
          :  GBSA solvation                  false          :
          :  PC potential                    false          :
          :  electronic temp.          300.0000000     K    :
          :  accuracy                    1.0000000          :
          :  -> integral cutoff          0.2500000E+02      :
          :  -> integral neglect         0.1000000E-07      :
          :  -> SCF convergence          0.1000000E-05 Eh   :
          :  -> wf. convergence          0.1000000E-03 e    :
[...]
    12   6 C       13   6 C                                       1.4236305
    11   6 C       14   6 C                                       1.4168256
    13   6 C       14   6 C                                       1.4313106
    14   6 C       15   6 C                                       1.4089881
    12   6 C       17   6 C                                       1.3627092
    16   6 C       17   6 C                                       1.4089633
    16   6 C       19   6 C                                       1.3703907
    18   6 C       20   6 C                                       1.4011124
    19   6 C       20   6 C                                       1.4435243
    20   6 C       21   6 C                                       1.4267743
    22   6 C       23   6 C                                       1.3652391
    21   6 C       24   6 C                                       1.4262348
    23   6 C       24   6 C                                       1.4212119
    24   6 C       25   6 C                                       1.4152268
    22   6 C       27   6 C                                       1.4104115
    26   6 C       27   6 C                                       1.3997564
    25   6 C       28   6 C                                       1.4158028
    27   6 C       28   6 C                                       1.4152019
    28   6 C       29   6 C                                       1.4178472
    26   6 C       30   6 C                                       1.3811653
    29   6 C       31   6 C                                       1.4048631
    30   6 C       31   6 C                                       1.3788236
     4   6 C       32   6 C                                       1.4314715
    32   6 C       33   6 C                                       1.4392737
    33   6 C       34   6 C                                       1.3569477
    34   6 C       35   6 C                                       1.4238206
     7   6 C       36   6 C                                       1.4073326
    32   6 C       37   6 C                                       1.3805973
    36   6 C       37   6 C                                       1.4199668
    11   6 C       39   6 C                                       1.4272140
    39   6 C       40   6 C                                       1.4160825
    38   6 C       41   6 C                                       1.4109675
    40   6 C       41   6 C                                       1.4359726
    41   6 C       42   6 C                                       1.4230883
    15   6 C       43   6 C                                       1.3913637
    39   6 C       44   6 C                                       1.4291396
    43   6 C       44   6 C                                       1.4230923
    42   6 C       45   6 C                                       1.4185951
    44   6 C       45   6 C                                       1.4119379
    45   6 C       46   6 C                                       1.4238666
    18   6 C       47   6 C                                       1.4038758
    48   6 C       49   6 C                                       1.3916448
    21   6 C       51   6 C                                       1.4147101
    47   6 C       52   6 C                                       1.4144100
    51   6 C       52   6 C                                       1.4227151
    50   6 C       53   6 C                                       1.4135414
    52   6 C       53   6 C                                       1.4130625
    53   6 C       54   6 C                                       1.4209703
    25   6 C       55   6 C                                       1.4187510
    51   6 C       56   6 C                                       1.4248574
    55   6 C       56   6 C                                       1.4094439
    54   6 C       57   6 C                                       1.4165772
    56   6 C       57   6 C                                       1.4152948
    57   6 C       58   6 C                                       1.4223085
    29   6 C       59   6 C                                       1.4155516
    55   6 C       60   6 C                                       1.4340639
    59   6 C       60   6 C                                       1.4077958
    58   6 C       61   6 C                                       1.4219436
    60   6 C       61   6 C                                       1.4262308
    62   6 C       63   6 C                                       1.3537220
    35   6 C       64   6 C                                       1.3838939
    64   6 C       65   6 C                                       1.4223056
    65   6 C       66   6 C                                       1.3488882
    66   6 C       67   6 C                                       1.4212400
    38   6 C       68   6 C                                       1.3969720
    69   6 C       70   6 C                                       1.3921795
    42   6 C       72   6 C                                       1.4210401
    68   6 C       73   6 C                                       1.4153581
    72   6 C       73   6 C                                       1.4155472
    71   6 C       74   6 C                                       1.4163316
    73   6 C       74   6 C                                       1.4124533
    74   6 C       75   6 C                                       1.4201387
    46   6 C       76   6 C                                       1.3919482
    72   6 C       77   6 C                                       1.4187752
    76   6 C       77   6 C                                       1.4100881
    75   6 C       78   6 C                                       1.4135368
    77   6 C       78   6 C                                       1.4297061
    78   6 C       79   6 C                                       1.4374600
    50   6 C       80   6 C                                       1.4012125
    79   6 C       81   6 C                                       1.3941623
    81   6 C       82   6 C                                       1.4078849
    54   6 C       83   6 C                                       1.4154685
    80   6 C       84   6 C                                       1.4045085
    83   6 C       84   6 C                                       1.4099811
    82   6 C       85   6 C                                       1.4224199
    84   6 C       85   6 C                                       1.4387029
    85   6 C       86   6 C                                       1.4222484
    58   6 C       87   6 C                                       1.4135996
    83   6 C       88   6 C                                       1.4176647
    87   6 C       88   6 C                                       1.3927680
    86   6 C       89   6 C                                       1.4094106
    88   6 C       89   6 C                                       1.4409140
    89   6 C       90   6 C                                       1.4286248
    90   6 C       92   6 C                                       1.3987931
    92   6 C       93   6 C                                       1.4020403
    91   6 C       94   6 C                                       1.3750412
    93   6 C       95   6 C                                       1.4148235
    94   6 C       95   6 C                                       1.3929956
    67   6 C       96   6 C                                       1.3908108
    96   6 C       97   6 C                                       1.4178199
    97   6 C       98   6 C                                       1.3643782
    98   6 C       99   6 C                                       1.4346303
    71   6 C      100   6 C                                       1.3974294
    99   6 C      101   6 C                                       1.3851365
   101   6 C      102   6 C                                       1.4146526
    75   6 C      103   6 C                                       1.4225236
   100   6 C      104   6 C                                       1.4003607
   103   6 C      104   6 C                                       1.4094709
   102   6 C      105   6 C                                       1.4196517
   105   6 C      106   6 C                                       1.4095648
    79   6 C      107   6 C                                       1.4184483
   103   6 C      108   6 C                                       1.4125783
   107   6 C      108   6 C                                       1.4020543
   106   6 C      109   6 C                                       1.4322663
   108   6 C      109   6 C                                       1.4175100
   109   6 C      110   6 C                                       1.3944601
    82   6 C      111   6 C                                       1.4239787
   107   6 C      112   6 C                                       1.4147161
   111   6 C      112   6 C                                       1.4140995
   110   6 C      113   6 C                                       1.4325406
   112   6 C      113   6 C                                       1.4170715
   113   6 C      114   6 C                                       1.4021814
    86   6 C      115   6 C                                       1.4295133
   111   6 C      116   6 C                                       1.4156576
   115   6 C      116   6 C                                       1.4111820
   114   6 C      117   6 C                                       1.3969256
   116   6 C      117   6 C                                       1.4220676
   117   6 C      118   6 C                                       1.4402409
    90   6 C      119   6 C                                       1.4196893
   115   6 C      120   6 C                                       1.4175509
   119   6 C      120   6 C                                       1.4083431
   118   6 C      121   6 C                                       1.4031334
   120   6 C      121   6 C                                       1.4251394
   121   6 C      122   6 C                                       1.4314601
    93   6 C      123   6 C                                       1.4203408
   119   6 C      124   6 C                                       1.4345965
   123   6 C      124   6 C                                       1.4022480
   122   6 C      125   6 C                                       1.3967573
   126   6 C      127   6 C                                       1.3582464
    99   6 C      128   6 C                                       1.4404714
   128   6 C      129   6 C                                       1.3961039
   129   6 C      130   6 C                                       1.3836751
   130   6 C      131   6 C                                       1.3762220
   102   6 C      132   6 C                                       1.4193978
   128   6 C      133   6 C                                       1.4222941
   132   6 C      133   6 C                                       1.4243272
   131   6 C      134   6 C                                       1.3980113
   133   6 C      134   6 C                                       1.4175158
   134   6 C      135   6 C                                       1.4116988
   106   6 C      136   6 C                                       1.4166715
   132   6 C      137   6 C                                       1.4190272
   136   6 C      137   6 C                                       1.4189873
   135   6 C      138   6 C                                       1.3633560
   137   6 C      138   6 C                                       1.4264807
   110   6 C      139   6 C                                       1.4377347
   136   6 C      140   6 C                                       1.4384644
   139   6 C      140   6 C                                       1.4164611
   140   6 C      141   6 C                                       1.4145286
   141   6 C      142   6 C                                       1.3793762
   139   6 C      143   6 C                                       1.3990783
   142   6 C      144   6 C                                       1.3996656
   143   6 C      144   6 C                                       1.3971753
   144   6 C      145   6 C                                       1.4297920
   118   6 C      146   6 C                                       1.4409643
   146   6 C      147   6 C                                       1.3977857
   145   6 C      148   6 C                                       1.3730218
   147   6 C      148   6 C                                       1.4157333
   146   6 C      150   6 C                                       1.4355182
   149   6 C      150   6 C                                       1.3997514
   150   6 C      151   6 C                                       1.4259053
   151   6 C      152   6 C                                       1.3660132
   149   6 C      154   6 C                                       1.4170718
   153   6 C      154   6 C                                       1.4108751
   152   6 C      155   6 C                                       1.4082650
   154   6 C      155   6 C                                       1.4164761
   155   6 C      156   6 C                                       1.4027921
   153   6 C      157   6 C                                       1.3878087
   156   6 C      158   6 C                                       1.3709173
   157   6 C      158   6 C                                       1.3919464
     1   6 C      159   1 H                                       1.0816689
     2   6 C      160   1 H                                       1.0796865
     3   6 C      161   1 H                                       1.0780729
     8   6 C      163   1 H                                       1.0827438
    12   6 C      164   1 H                                       1.0829916
    16   6 C      165   1 H                                       1.0861262
    22   6 C      167   1 H                                       1.0822254
    26   6 C      168   1 H                                       1.0798816
    33   6 C      169   1 H                                       1.0789707
    34   6 C      170   1 H                                       1.0812507
    65   6 C      171   1 H                                       1.0778959
    66   6 C      172   1 H                                       1.0778842
    97   6 C      173   1 H                                       1.0815078
    98   6 C      174   1 H                                       1.0787557
   129   6 C      175   1 H                                       1.0777045 (min)
   130   6 C      176   1 H                                       1.0800870
   131   6 C      177   1 H                                       1.0799523
   135   6 C      178   1 H                                       1.0829245
   142   6 C      180   1 H                                       1.0826346
   145   6 C      181   1 H                                       1.0837369
   152   6 C      183   1 H                                       1.0820600
   156   6 C      184   1 H                                       1.0798789
   158   6 C      185   1 H                                       1.0799675
    30   6 C      186   1 H                                       1.0800744
    31   6 C      187   1 H                                       1.0807873
    63   6 C      189   1 H                                       1.0816726
    94   6 C      190   1 H                                       1.0833412
    95   6 C      191   1 H                                       1.0830728
   127   6 C      193   1 H                                       1.0812452
   157   6 C      194   1 H                                       1.0784871
    19   6 C      195  15 P                                       1.8113410
    23   6 C      195  15 P                                       1.8048223
   166   1 H      195  15 P                                       1.3998313
    63   6 C      196  15 P                                       1.7904999
   188   1 H      196  15 P                                       1.4159682
    87   6 C      197  15 P                                       1.7824321
    91   6 C      197  15 P                                       1.7738672
    92   6 C      197  15 P                                       1.7717141
   123   6 C      198  15 P                                       1.8025608
   127   6 C      198  15 P                                       1.7680627
   192   1 H      198  15 P                                       1.4075470
   148   6 C      199  15 P                                       1.8200139 (max)
   151   6 C      199  15 P                                       1.8116562
   182   1 H      199  15 P                                       1.4004418
   114   6 C      200  15 P                                       1.7831624
   143   6 C      200  15 P                                       1.7859569
   147   6 C      200  15 P                                       1.7896032
    76   6 C      201  15 P                                       1.7864299
    80   6 C      201  15 P                                       1.7745494
    81   6 C      201  15 P                                       1.7815388
    35   6 C      202  15 P                                       1.7901549
    37   6 C      202  15 P                                       1.7886517
    38   6 C      202  15 P                                       1.7826888
     5   6 C      203  15 P                                       1.8032087
     9   6 C      203  15 P                                       1.8056249
   162   1 H      203  15 P                                       1.4019425
    96   6 C      204  15 P                                       1.7889373
   100   6 C      204  15 P                                       1.7837553
   101   6 C      204  15 P                                       1.7922028
   138   6 C      205  15 P                                       1.8117038
   141   6 C      205  15 P                                       1.8091814
   179   1 H      205  15 P                                       1.4020000
    15   6 C      206  15 P                                       1.7863071
    17   6 C      206  15 P                                       1.7938513
    18   6 C      206  15 P                                       1.7836462

 * 4 distinct bonds (by element types)

   Z      Z             #   av. dist./Å        max./Å        min./Å
   1 H    6 C          30     1.0809096     1.0861262     1.0777045
   6 C    6 C         190     1.4096825     1.4435243     1.3488882
   1 H   15 P           6     1.4046218     1.4159682     1.3998313
   6 C   15 P          29     1.7916595     1.8200139     1.7680627


optimized geometry written to: xtbopt.xyz


           -------------------------------------------------
          | TOTAL ENERGY             -387.748878466313 Eh   |
          | GRADIENT NORM               0.000287251641 Eh/α |
          | HOMO-LUMO GAP               0.036644261965 eV   |
           -------------------------------------------------

------------------------------------------------------------------------
 * finished run on 2025/12/08 at 00:40:27.525     
------------------------------------------------------------------------
 total:
 * wall-time:     0 d,  0 h,  1 min, 14.919 sec
 *  cpu-time:     0 d,  0 h,  4 min, 53.734 sec
 * ratio c/w:     3.921 speedup
 SCF:
 * wall-time:     0 d,  0 h,  0 min,  5.735 sec
 *  cpu-time:     0 d,  0 h,  0 min, 22.656 sec
 * ratio c/w:     3.951 speedup
 ANC optimizer:
 * wall-time:     0 d,  0 h,  1 min,  8.991 sec
 *  cpu-time:     0 d,  0 h,  4 min, 30.422 sec
 * ratio c/w:     3.920 speedup

normal termination of xtb
