206
 energy: -387.703039690753 gnorm: 0.077377729516 xtb: 6.7.1pre (5071a88)
C           -9.09417000000000       -9.65530200000000       -0.62823300000000
C           -8.24603300000000      -10.73936700000000       -0.37334500000000
C           -6.88092200000000      -10.56306600000000       -0.46759900000000
C           -6.32262600000000       -9.29694800000000       -0.76154200000000
C           -8.57666700000000       -8.38955200000000       -0.87317600000000
C           -7.17085800000000       -8.14714400000000       -0.86408400000000
C           -6.58574400000000       -6.80495700000000       -0.88259400000000
C           -9.54196800000000       -4.46063400000000       -0.81501900000000
C           -8.80133200000000       -5.62382600000000       -0.92178700000000
C           -7.38823900000000       -5.61031100000000       -0.77372500000000
C           -6.74962400000000       -4.35786400000000       -0.49223800000000
C           -9.81024600000000       -2.06556300000000       -0.52487400000000
C           -8.97216300000000       -3.23622000000000       -0.46029100000000
C           -7.54663100000000       -3.20228800000000       -0.23187400000000
C           -6.90726300000000       -2.00849100000000        0.19315400000000
C           -9.97864800000000        0.42832700000000       -0.45070600000000
C           -9.39833100000000       -0.82859200000000       -0.12036000000000
C           -7.13942300000000        0.72238600000000        0.38153200000000
C           -9.32626400000000        1.63693400000000       -0.34877700000000
C           -7.93462300000000        1.84158800000000        0.07136100000000
C           -7.32465200000000        3.14917300000000        0.16594500000000
C          -10.22274200000000        5.54284400000000       -0.11070400000000
C           -9.46226500000000        4.41551700000000       -0.26554600000000
C           -8.08724500000000        4.37192900000000        0.15012000000000
C           -7.49949500000000        5.58309900000000        0.62261200000000
C          -10.50588000000000        7.85310700000000        0.70850900000000
C           -9.69590600000000        6.72634000000000        0.47463500000000
C           -8.31003100000000        6.74663100000000        0.81724200000000
C           -7.75077000000000        7.92285000000000        1.41194000000000
C           -9.95833400000000        8.98476900000000        1.30178100000000
C           -8.61345800000000        9.01740300000000        1.65819000000000
C           -4.91397900000000       -9.13648000000000       -1.02815500000000
C           -4.02987300000000      -10.29333800000000       -1.13760500000000
C           -2.66511200000000      -10.26187400000000       -1.10499100000000
C           -1.90847800000000       -9.03582400000000       -1.10584000000000
C           -5.17554500000000       -6.66412600000000       -0.93192400000000
C           -4.41807600000000       -7.85329400000000       -1.17351200000000
C           -2.16886400000000       -6.30629800000000       -0.90656400000000
C           -5.31481800000000       -4.23908100000000       -0.42428000000000
C           -4.50669400000000       -5.37958000000000       -0.70733800000000
C           -3.06044800000000       -5.23967700000000       -0.61522500000000
C           -2.47407600000000       -4.00383700000000       -0.18342900000000
C           -5.52616400000000       -1.82305400000000        0.20010500000000
C           -4.71017100000000       -2.96917400000000       -0.08957600000000
C           -3.30034500000000       -2.85970900000000        0.04086700000000
C           -2.70721200000000       -1.61936400000000        0.45935800000000
C           -5.73102000000000        0.73703800000000        0.45807600000000
C           -4.92379900000000       -0.49645800000000        0.46976700000000
C           -3.53578500000000       -0.39877400000000        0.60433800000000
C           -2.92179700000000        0.92929600000000        0.73240300000000
C           -5.92571700000000        3.21228500000000        0.45092000000000
C           -5.12080500000000        2.02208900000000        0.49215300000000
C           -3.70731400000000        2.11373900000000        0.63815800000000
C           -3.07909500000000        3.39472800000000        0.75633200000000
C           -6.09351400000000        5.64703500000000        0.88985700000000
C           -5.30777700000000        4.47816600000000        0.72655100000000
C           -3.88932100000000        4.56312200000000        0.87152600000000
C           -3.28171500000000        5.83697000000000        1.10578500000000
C           -6.35558300000000        7.94621100000000        1.73696600000000
C           -5.50188200000000        6.89137700000000        1.34295600000000
C           -4.05987100000000        7.02452800000000        1.32556000000000
C           -3.49877700000000        8.41028800000000        1.33564900000000
C           -4.17187100000000        9.50247500000000        1.80781400000000
C           -0.60118500000000       -8.84863900000000       -0.69958900000000
C            0.18480900000000       -9.97363000000000       -0.26960000000000
C            1.51874800000000       -9.87474700000000       -0.08191700000000
C            2.22426100000000       -8.64471800000000       -0.31974400000000
C           -0.79609000000000       -6.30097500000000       -0.61495400000000
C            0.02889900000000       -7.51554500000000       -0.65483500000000
C            1.41519700000000       -7.41592400000000       -0.48895600000000
C            2.02270600000000       -6.09217500000000       -0.32336800000000
C           -1.04925500000000       -3.92074500000000       -0.03083800000000
C           -0.21376900000000       -5.06075500000000       -0.22002900000000
C            1.19789700000000       -4.94950800000000       -0.08896200000000
C            1.80002500000000       -3.67433500000000        0.16120300000000
C           -1.33306900000000       -1.61489200000000        0.69411700000000
C           -0.45613100000000       -2.68669600000000        0.37415100000000
C            0.98032900000000       -2.53609200000000        0.40382900000000
C            1.63114300000000       -1.23515300000000        0.48902000000000
C           -1.53416300000000        1.08912700000000        0.92059200000000
C            0.92893400000000       -0.06056000000000        0.76205600000000
C            1.43497100000000        1.24248900000000        0.53316200000000
C           -1.65055100000000        3.48116200000000        0.72462000000000
C           -0.85293300000000        2.30955800000000        0.75188500000000
C            0.59728700000000        2.40658900000000        0.60198000000000
C            1.18015400000000        3.69054300000000        0.33708600000000
C           -1.85665700000000        5.84511300000000        1.04410500000000
C           -1.02345700000000        4.75279500000000        0.75391000000000
C            0.39495500000000        4.87425200000000        0.43102200000000
C            1.00688000000000        6.12824000000000        0.06854600000000
C           -2.16439700000000        8.60713400000000        0.77799700000000
C            0.29308300000000        7.34129600000000        0.18776700000000
C            0.65622900000000        8.54778300000000       -0.43785200000000
C           -1.57756100000000        9.67569700000000        0.07290300000000
C           -0.28347100000000        9.64325600000000       -0.45127800000000
C            3.60971200000000       -8.64362300000000       -0.35320300000000
C            4.51225200000000       -9.72107300000000       -0.03727700000000
C            5.83512100000000       -9.53315800000000        0.26606900000000
C            6.49121000000000       -8.24702400000000        0.47626400000000
C            3.41451300000000       -5.90752800000000       -0.33584500000000
C            5.85445600000000       -7.07575400000000        0.10133700000000
C            6.31584200000000       -5.76363700000000        0.41917900000000
C            3.23154800000000       -3.55031300000000        0.16447900000000
C            4.04904400000000       -4.69445800000000       -0.00290000000000
C            5.49837800000000       -4.60363000000000        0.23039100000000
C            6.09151100000000       -3.32335500000000        0.40603600000000
C            3.03887900000000       -1.11289000000000        0.26742600000000
C            3.84741000000000       -2.26612100000000        0.21203600000000
C            5.27387500000000       -2.14400100000000        0.19873000000000
C            5.86318300000000       -0.88454300000000        0.02221700000000
C            2.82182900000000        1.36338600000000        0.18478000000000
C            3.62006600000000        0.18205700000000        0.13528500000000
C            5.01775800000000        0.28717900000000       -0.12104700000000
C            5.52061400000000        1.55898100000000       -0.46627200000000
C            2.57189100000000        3.80840300000000       -0.03197500000000
C            3.39132300000000        2.64645800000000       -0.06649300000000
C            4.78281500000000        2.75180900000000       -0.39452400000000
C            5.39540600000000        4.05627500000000       -0.63099900000000
C            2.32769800000000        6.21943700000000       -0.46426300000000
C            3.14176400000000        5.05936900000000       -0.43032800000000
C            4.54348400000000        5.17633800000000       -0.74047700000000
C            5.05660600000000        6.46465500000000       -1.16473900000000
C            1.92390400000000        8.58160600000000       -1.09347300000000
C            2.80482200000000        7.47752700000000       -1.01509800000000
C            4.20509700000000        7.54688600000000       -1.43055500000000
C            4.76457500000000        8.77794300000000       -2.02168000000000
C            4.03244300000000        9.90239100000000       -2.24050000000000
C            7.78193700000000       -8.14277700000000        1.13048100000000
C            8.51759200000000       -9.26663200000000        1.54660200000000
C            9.77880500000000       -9.13919300000000        2.12716400000000
C           10.33858200000000       -7.88281200000000        2.31102200000000
C            7.62154900000000       -5.64060000000000        0.98480100000000
C            8.33882200000000       -6.83751400000000        1.33207700000000
C            9.63291000000000       -6.73049300000000        1.92170600000000
C           10.18123000000000       -5.43360900000000        2.12146700000000
C            7.45853800000000       -3.18138000000000        0.80336900000000
C            8.19848500000000       -4.34677600000000        1.18757800000000
C            9.52123200000000       -4.29056000000000        1.76283600000000
C            7.30813000000000       -0.78062200000000        0.16743500000000
C            8.05813300000000       -1.85217600000000        0.73963000000000
C            9.39291800000000       -1.56161000000000        1.14827800000000
C            9.97032500000000       -0.31852900000000        0.92992100000000
C            7.96974000000000        0.41616200000000       -0.15238200000000
C            9.28254800000000        0.69952200000000        0.24372800000000
C            9.83480900000000        2.03308400000000        0.10920700000000
C            6.84860600000000        4.25901000000000       -0.61772300000000
C            7.73428700000000        3.17730600000000       -0.53403600000000
C            9.12149000000000        3.18217800000000       -0.16561800000000
C            6.50157300000000        6.62294800000000       -1.26262000000000
C            7.36358900000000        5.60896900000000       -0.81644500000000
C            8.77816000000000        5.87682400000000       -0.74589400000000
C            9.30173600000000        7.01035000000000       -1.30867300000000
C            6.20575800000000        8.82884800000000       -2.33954100000000
C            7.05488100000000        7.81881200000000       -1.82230500000000
C            8.46925300000000        7.97420800000000       -1.93198100000000
C            9.00931700000000        9.07486600000000       -2.63067300000000
C            6.77506900000000        9.85653900000000       -3.09561100000000
C            8.16451800000000        9.98237800000000       -3.23862200000000
H          -10.17082800000000       -9.80664100000000       -0.63445400000000
H           -8.65953300000000      -11.71548900000000       -0.13792100000000
H           -6.23076600000000      -11.41424500000000       -0.30944100000000
H          -10.67211100000000       -7.14410000000000       -0.37359200000000
H          -10.61177400000000       -4.48820000000000       -1.00962700000000
H          -10.77525700000000       -2.18218400000000       -1.01642300000000
H          -10.95602000000000        0.40741000000000       -0.93387600000000
H          -11.42811400000000        2.94437300000000       -0.61713400000000
H          -11.26216300000000        5.54959600000000       -0.43219700000000
H          -11.55590800000000        7.81975000000000        0.43128900000000
H           -4.49090900000000      -11.27284100000000       -1.16843800000000
H           -2.14622100000000      -11.21463800000000       -1.04428100000000
H           -0.30289600000000      -10.93080700000000       -0.12715600000000
H            2.08083300000000      -10.75537600000000        0.20613800000000
H            4.13655700000000      -10.73926800000000        0.01777500000000
H            6.40811200000000      -10.42780800000000        0.47773100000000
H            8.11142900000000      -10.26214900000000        1.41613000000000
H           10.32092700000000      -10.02914100000000        2.43307400000000
H           11.32076300000000       -7.77395000000000        2.76258900000000
H           11.16527700000000       -5.36886800000000        2.58202900000000
H           11.49580200000000       -2.85317700000000        1.35324600000000
H           10.97011100000000       -0.11510900000000        1.30787600000000
H           10.87414700000000        2.14036700000000        0.41402800000000
H           10.99598700000000        4.77044400000000       -0.61499700000000
H           10.37435100000000        7.18938400000000       -1.29202300000000
H           10.08841100000000        9.17733600000000       -2.70444700000000
H            8.56790000000000       10.80425800000000       -3.82271700000000
H          -10.58225500000000        9.85424000000000        1.49180700000000
H           -8.20821000000000        9.91018600000000        2.12043300000000
H           -5.19717700000000        8.54494000000000        3.84137200000000
H           -3.73978300000000       10.49046800000000        1.67625300000000
H           -2.17676300000000       10.55686200000000       -0.14355900000000
H            0.01434000000000       10.54299100000000       -0.97736400000000
H            2.18933400000000       11.08839100000000       -1.13203900000000
H            4.52529600000000       10.79449900000000       -2.60940000000000
H            6.14629100000000       10.58374200000000       -3.59557900000000
P          -10.14248500000000        3.02356000000000       -1.21453100000000
P           -5.70091200000000        9.32935600000000        2.74285800000000
P           -1.06848400000000        7.36581900000000        1.24469700000000
P            2.26795000000000       10.05146000000000       -2.10965300000000
P            9.87024300000000        4.80492800000000        0.25177600000000
P            7.14894200000000        1.61570300000000       -1.19155500000000
P           -0.62095200000000       -0.26145000000000        1.62518100000000
P           -2.78085200000000       -7.67309800000000       -1.87643000000000
P           -9.72712700000000       -7.10266000000000       -1.43527500000000
P            4.44696400000000       -7.20336600000000       -1.00901200000000
P           10.34799500000000       -2.71875000000000        2.18340800000000
P           -7.95429100000000       -0.76389100000000        0.93964700000000
206
 energy: -387.724405307806 gnorm: 0.042839379177 xtb: 6.7.1pre (5071a88)
C           -9.07732479606257       -9.63340206801006       -0.62984908474674
C           -8.23805321229933      -10.71429710574897       -0.37623666453973
C           -6.87925585979741      -10.53968402736845       -0.46839637118729
C           -6.31608053358335       -9.28005225974507       -0.75722769517774
C           -8.55645694153249       -8.37035736900239       -0.86173199995240
C           -7.15528141063480       -8.13057997183333       -0.85902306600321
C           -6.57295462260017       -6.79596031528504       -0.87224295879970
C           -9.52259045226408       -4.45955489840823       -0.81063332856258
C           -8.78230946595298       -5.62277607415732       -0.90410558154894
C           -7.37282124439278       -5.60569054621651       -0.76633185364340
C           -6.73969104617354       -4.35351314987385       -0.49174743845088
C           -9.78596146184868       -2.06457184667096       -0.52675633717650
C           -8.95619215450536       -3.23424229768803       -0.45916284926516
C           -7.53596402882475       -3.20038080872513       -0.23462423558468
C           -6.89782522467843       -2.00470110728334        0.17947733209502
C           -9.95118023000198        0.43176574340445       -0.45104184624008
C           -9.37091444963787       -0.82466484825939       -0.13054521545228
C           -7.12822735071993        0.72101927465423        0.37251111811707
C           -9.30832633217577        1.64126764904210       -0.33140784734350
C           -7.92254802304539        1.84361631557949        0.07582695541609
C           -7.31359411162540        3.14377080299489        0.16898632319838
C          -10.20170442149824        5.53452443237868       -0.10446950262440
C           -9.44415656705220        4.40491944860304       -0.24807202626861
C           -8.07299834048879        4.36236526573953        0.15935663721393
C           -7.48834112266945        5.57137112978278        0.62912105953457
C          -10.47946471833678        7.84107103154402        0.71138394206685
C           -9.67590704737269        6.71404600975543        0.47858208139112
C           -8.29585128455732        6.73077267488596        0.81890374379466
C           -7.73981892248661        7.90242664413321        1.40958575095865
C           -9.93364662552962        8.96740132936738        1.30090048463976
C           -8.59485212364167        8.99650276232473        1.65273165334014
C           -4.91156519711785       -9.12258716390147       -1.02515591670223
C           -4.02909121954189      -10.26868816022260       -1.14093461274968
C           -2.67054363039796      -10.23501855684586       -1.09948235515178
C           -1.91462450785124       -9.01590396978866       -1.09088261799074
C           -5.16708947924907       -6.65096309073216       -0.92066127416565
C           -4.41291096061105       -7.83895747554413       -1.15954033672664
C           -2.17007328877170       -6.30103538545888       -0.88648890766447
C           -5.30919781952617       -4.23339972747634       -0.42010394563017
C           -4.50186524553712       -5.37220527380267       -0.69807381284112
C           -3.06081068363403       -5.23322889344516       -0.60548488771547
C           -2.47218688229012       -3.99959239097105       -0.17973710565751
C           -5.51620285043521       -1.81895741884404        0.19561366494526
C           -4.70630977583961       -2.96525069623930       -0.09183509380469
C           -3.29791368047980       -2.85571231545426        0.03827141894362
C           -2.70896623478511       -1.61684358758361        0.45493097180545
C           -5.72090218950847        0.73287237426692        0.45467720536253
C           -4.91753190705322       -0.49648713050999        0.45813541495838
C           -3.53130589480525       -0.39896659707522        0.59207101669510
C           -2.92090091928849        0.92495006458776        0.72536290512386
C           -5.91908232949027        3.20434450049599        0.45405375110677
C           -5.11464621390427        2.01766103144211        0.48896168117353
C           -3.70281551686148        2.10939729397913        0.63272573758682
C           -3.07505621981928        3.38866179743304        0.74978259547871
C           -6.08595305674744        5.63624391136354        0.88949784495944
C           -5.30260537250237        4.46841235614794        0.72676004540853
C           -3.88756176837577        4.55377916380159        0.86817374089608
C           -3.28235031058868        5.82828521649286        1.09362675222840
C           -6.35015742541080        7.92466398551648        1.72899057832436
C           -5.49230292667450        6.87733848125935        1.32987819876641
C           -4.05698537256107        7.00867541173491        1.31844970936487
C           -3.49945988812405        8.38640561707894        1.32740714166420
C           -4.17070009820633        9.46761091289237        1.81115332476845
C           -0.60057039775710       -8.82765445255407       -0.69768322166984
C            0.18431855868320       -9.94576487482122       -0.27163246165229
C            1.51598427684758       -9.84678223717567       -0.08515341206796
C            2.22018314981378       -8.62377592905573       -0.31994794778810
C           -0.79374735603212       -6.29568108938980       -0.60918598298532
C            0.02827846254619       -7.50380087108113       -0.64654454612548
C            1.41234130523796       -7.40463208815394       -0.48075489579013
C            2.01878532225037       -6.08750581594437       -0.31758056561458
C           -1.04881665918388       -3.91783977584978       -0.03386896160721
C           -0.21324927084267       -5.05723378251563       -0.21655935820995
C            1.19715854449076       -4.94593778773077       -0.08644454404127
C            1.79959451682481       -3.67160371796402        0.15715583468945
C           -1.33116116904810       -1.61384914761005        0.67701145070978
C           -0.45342121714210       -2.68493069018301        0.36387560871610
C            0.98063527981729       -2.53445468774803        0.39383096857515
C            1.63037373019674       -1.23892684503497        0.48365379769045
C           -1.53202076076200        1.08747278126643        0.90236540273717
C            0.92648285928506       -0.05863866155829        0.74446053113554
C            1.43401554102778        1.24471616084496        0.52548908966895
C           -1.64782557503739        3.47680783374785        0.71503473237140
C           -0.84781995141927        2.30895991376325        0.74336567389519
C            0.59723335337057        2.40703946902031        0.59270211196197
C            1.17845209258141        3.68755903303702        0.32729817870649
C           -1.85858393840101        5.83787040765332        1.02148794172043
C           -1.01987891684632        4.74772494006201        0.74083542896791
C            0.39634535367518        4.87019652972711        0.42888871243547
C            1.00853224087811        6.12036095323753        0.06749127398281
C           -2.16843863288738        8.59017763067007        0.76262531678443
C            0.29166672650974        7.33022660757880        0.18309264915838
C            0.65788314897635        8.53899683643747       -0.43186411701426
C           -1.57115616808192        9.65778720544888        0.07363637421428
C           -0.27759374732202        9.62954176917830       -0.43836611715529
C            3.60839019449086       -8.62260704584829       -0.33795587531500
C            4.51121052913182       -9.69345579725412       -0.03035523621544
C            5.83027608413617       -9.50960782825403        0.26377885718678
C            6.48643547553830       -8.23520310996138        0.47819463476808
C            3.41134162143318       -5.90360922639609       -0.31698900651295
C            5.84529170289747       -7.06380830794934        0.11226823420853
C            6.30732158015625       -5.75337602366138        0.42142840685821
C            3.22876323054703       -3.54761487329369        0.16575590476933
C            4.04795714299859       -4.69016135625730        0.00436560649442
C            5.49038843952793       -4.59752413665969        0.23471432041507
C            6.08183541371970       -3.32013206943937        0.40783101252368
C            3.03500789630841       -1.11329672004004        0.26290480692026
C            3.84371444111667       -2.26641572861411        0.21113215356338
C            5.26721712215143       -2.14334161911689        0.20486648852639
C            5.85451878605748       -0.88427961250207        0.02865789693193
C            2.81987165529807        1.36333404514503        0.18222320191578
C            3.61522837680194        0.18143700370786        0.13682748989486
C            5.01282360363906        0.28515182437814       -0.11323408763971
C            5.51494681752150        1.55874783210445       -0.44895318987919
C            2.56985333456688        3.80645729940345       -0.03306643609671
C            3.38918941052781        2.64649654401483       -0.06305466366270
C            4.77800602324923        2.75339076999033       -0.38904483504939
C            5.38877128413605        4.05137479361349       -0.62839745068418
C            2.32736638982126        6.21360821732352       -0.46618915886253
C            3.14109775108379        5.05413216073155       -0.42863950936902
C            4.53920725151072        5.17190094524031       -0.73339283295881
C            5.05073063597547        6.45487882032843       -1.15685262563125
C            1.92599860388851        8.57100573516085       -1.07787275669674
C            2.80562105722194        7.46609949136298       -1.01143362476929
C            4.19999795863452        7.53596982643636       -1.42227882905525
C            4.75823668508848        8.75813416090431       -2.01193894144117
C            4.02479083624533        9.88418668493396       -2.21579700005770
C            7.77274398272812       -8.12873242209492        1.13084904255638
C            8.51112292538315       -9.24559535551633        1.54421363329131
C            9.76585711367360       -9.11887271216263        2.12042349790112
C           10.32108033835319       -7.86898395786952        2.30254308782492
C            7.61118514626638       -5.63258288434632        0.98251381713708
C            8.32592815130845       -6.82642452793278        1.32758614876378
C            9.61686343146508       -6.72020880600950        1.91358153104449
C           10.16358934594428       -5.42602120200984        2.10693360189043
C            7.44691883988769       -3.17875559550971        0.79689471210027
C            8.18447293658890       -4.34092280187118        1.17803731878211
C            9.50547493030130       -4.28576560286838        1.73974187939179
C            7.29353858512937       -0.78216657819982        0.17052433013918
C            8.04167366627416       -1.85497846500272        0.73355465193262
C            9.37688220723240       -1.56749375545679        1.12839309283256
C            9.95069353622787       -0.32154256888078        0.92723003085819
C            7.95300304702220        0.41918043833648       -0.13805982389019
C            9.26712938067776        0.70204192905752        0.25054652605902
C            9.81419979473348        2.03126544111451        0.11112654913857
C            6.83295570971249        4.25206020477181       -0.62350867591033
C            7.71847745135768        3.17186101488877       -0.52638951225218
C            9.10256703274688        3.17554945084186       -0.17101281731711
C            6.48883022673086        6.61068446327002       -1.26064967142158
C            7.34762489895968        5.59335194772448       -0.81933579961492
C            8.75772545188111        5.85584656839659       -0.75722606241335
C            9.28030379673427        6.99522042005594       -1.30753203442401
C            6.19509748193620        8.81667636151247       -2.32395150653687
C            7.04149934897662        7.80372086177189       -1.81551472213629
C            8.45118149693559        7.95798375075977       -1.92745988237470
C            8.98920073646022        9.05820832402337       -2.62095610416032
C            6.76699907562595        9.83951620207843       -3.07848479776620
C            8.14924459975793        9.96046711968745       -3.22643096597036
H          -10.15141919645236       -9.78269407769831       -0.63985283026511
H           -8.65290826348022      -11.68749521977630       -0.14401023676859
H           -6.23652486311290      -11.39291818086640       -0.31089003114881
H          -10.62426880730029       -7.13936474003897       -0.37243953994928
H          -10.59017576658503       -4.49625856000396       -1.00445080819444
H          -10.75016131120053       -2.18214671414732       -1.01280818827234
H          -10.92848556930395        0.41678326803028       -0.93074618069464
H          -11.38408386043006        2.94281742462745       -0.59416768997756
H          -11.23734734120521        5.54118033789846       -0.42986712182752
H          -11.52677303116196        7.81337114322138        0.43579657187316
H           -4.48844226858040      -11.24682499304167       -1.17276637576814
H           -2.15162780907121      -11.18514584596629       -1.04007459927096
H           -0.30148769683721      -10.90152109905211       -0.13206525267564
H            2.07702685358168      -10.72601278707349        0.19984281090969
H            4.13564192909421      -10.70935446826712        0.02200160158916
H            6.40252979854164      -10.40323008216529        0.47169537753788
H            8.11178933845562      -10.24077165995764        1.41555591118886
H           10.30751874681250      -10.00611610475819        2.42528623591767