206
 energy: -387.748878466313 gnorm: 0.000287251641 xtb: 6.7.1pre (5071a88)
C           -8.99645703836566       -9.50931404996287       -0.53828623299425
C           -8.15446013452513      -10.56347391099878       -0.20780765873684
C           -6.79901712245900      -10.40043695966152       -0.34086668417395
C           -6.24804383253569       -9.16931243576820       -0.72988007192291
C           -8.47851103810992       -8.26983750865005       -0.85703884709095
C           -7.08462367216156       -8.03231145500028       -0.87041316225277
C           -6.50799078746548       -6.71353463624562       -0.92158770509991
C           -9.46186095415416       -4.41691464663934       -0.83993413166290
C           -8.71156140969970       -5.56563477981055       -0.95613405539538
C           -7.30919232435642       -5.53699147311404       -0.81755850229787
C           -6.68644130652805       -4.29393896597464       -0.52804811872238
C           -9.72046815227219       -2.04010730307958       -0.53126193108836
C           -8.90033303960897       -3.20189180152846       -0.46524146280330
C           -7.48675517671078       -3.15966700373162       -0.24464157096009
C           -6.85578334544344       -1.97577304831902        0.18607487504107
C           -9.86679286363196        0.42859346687333       -0.48485396503091
C           -9.30115886471424       -0.80978934238473       -0.12202686132554
C           -7.07573542338079        0.70982783760271        0.37105201907828
C           -9.22619863603189        1.63452743013650       -0.36938695214978
C           -7.85662908883395        1.82635700377361        0.04442801384593
C           -7.24317953882489        3.11289425615739        0.10912883223051
C          -10.14128380827268        5.46843831910040       -0.12979602332971
C           -9.36926611806140        4.35509398366615       -0.29811314008965
C           -8.00687302220567        4.31742676431835        0.10476288886095
C           -7.43095278526606        5.51704024757870        0.58654074847573
C          -10.42935547703222        7.74525531866453        0.74411363874002
C           -9.62440476937241        6.63142523159650        0.47811662620707
C           -8.24626917185584        6.65484594631002        0.79903688282089
C           -7.69214041909989        7.82295335252539        1.38106499124006
C           -9.88535069789641        8.86813864351619        1.33640495468983
C           -8.54396217903680        8.90645645792958        1.65320574978737
C           -4.86422681329187       -9.02523088844024       -1.06663094651913
C           -4.01168532804266      -10.17583505243746       -1.21082347481715
C           -2.65624576370264      -10.14294998605615       -1.15597084634359
C           -1.91423798919873       -8.92794518094682       -1.13469963671756
C           -5.10937953436313       -6.56765337319814       -0.97806764472365
C           -4.36360701017968       -7.74917788261487       -1.23130358254291
C           -2.15323719877390       -6.23611329087570       -0.93396617961230
C           -5.26596098088496       -4.17417713601544       -0.45853432256610
C           -4.45921015497550       -5.30075812127007       -0.75052323393031
C           -3.03286936563184       -5.17084434766220       -0.64712429850321
C           -2.44964995439792       -3.95468895503778       -0.19325089635241
C           -5.47681558334091       -1.79054254761311        0.19156310253136
C           -4.66953608228571       -2.92146378624558       -0.11585906664648
C           -3.26856797587641       -2.81717616530007        0.02549455140813
C           -2.68583173185960       -1.59463230560802        0.46504068309240
C           -5.67336258655660        0.72523252082515        0.43413888779559
C           -4.87900598490803       -0.48840065133758        0.45277286435375
C           -3.49743669512629       -0.39303763632483        0.59005716711344
C           -2.88856874118502        0.91586346736732        0.70997979778583
C           -5.85691830938848        3.18036911464039        0.38322957078182
C           -5.06255198650684        2.00094179028743        0.42852054013337
C           -3.66007251613496        2.09255883447719        0.57481761298787
C           -3.03665959346045        3.36496832336404        0.68199390960121
C           -6.03582538393627        5.59173350131800        0.83330908787675
C           -5.24530741791276        4.43936817177565        0.64982263417245
C           -3.83962394079955        4.52705577807569        0.78919239179337
C           -3.23398275401413        5.78827063758086        1.04511586576011
C           -6.30400936035346        7.87339528660741        1.65370717199975
C           -5.44720204388671        6.82509019355048        1.26792692735420
C           -4.02626000111827        6.94779998581868        1.26807718866039
C           -3.45616716599624        8.28993874867781        1.29273421080224
C           -4.09051321371422        9.38435460773556        1.77483572946872
C           -0.61315974423922       -8.74596568839428       -0.69968139517375
C            0.13668326314565       -9.85245117115514       -0.21349403858692
C            1.46436420575488       -9.76005101726593        0.00610671303070
C            2.17763282416652       -8.55923700041187       -0.25698331722002
C           -0.79017193284027       -6.23918374577726       -0.62806743952269
C            0.01672111437386       -7.44078023849317       -0.65086216212634
C            1.39274747339948       -7.35279416583619       -0.45857767424918
C            1.99845894309505       -6.05011353780513       -0.29740382324003
C           -1.04052614016523       -3.87999904180543       -0.02548277460085
C           -0.21618578388795       -5.01674744329957       -0.20447841086536
C            1.18491078356267       -4.91597877247432       -0.05683668235535
C            1.78449681149747       -3.65343210142422        0.19469066925528
C           -1.31570176897982       -1.59507583672925        0.71052643459602
C           -0.44851941699444       -2.66212269861787        0.39787031116508
C            0.97366705015927       -2.52181156850930        0.43979472381679
C            1.61466881779912       -1.23854355046388        0.53269697414378
C           -1.51220915406263        1.07799050865514        0.91672920810762
C            0.91465523174122       -0.06272045279827        0.79936020671475
C            1.42449228921406        1.22968663325767        0.57156699031230
C           -1.62435433584143        3.45947796271723        0.68553035235482
C           -0.83126497267566        2.29582238715832        0.75596744582950
C            0.59970431887994        2.38666662643568        0.63789976529034
C            1.18058477847879        3.66035936992233        0.38675268102975
C           -1.82073704248276        5.81827658788346        1.05509903433928
C           -1.00094818715917        4.73019987765820        0.76555165769239
C            0.41321861056824        4.83608181546782        0.51029882439462
C            1.01216657955877        6.08661203546343        0.16619991312496
C           -2.10631967091906        8.47348851178967        0.78876601622871
C            0.30092292841673        7.28066057133630        0.32432091310636
C            0.63824903296415        8.45635143819112       -0.36101012829196
C           -1.61357552449738        9.47352998173675       -0.01613044500549
C           -0.29965135162743        9.50921531005839       -0.47739639130104
C            3.56842757893010       -8.56576411590632       -0.25825611002511
C            4.44233248941142       -9.61999180759160        0.10931294828918
C            5.77559506147964       -9.45235195732327        0.34560797974708
C            6.44692857820516       -8.19142621984742        0.47805208795205
C            3.38509452355495       -5.87690727767107       -0.30446100471490
C            5.80257162075638       -7.02527065580390        0.09925403917613
C            6.26495909309389       -5.72224546148258        0.39852764635685
C            3.20210768383002       -3.53531719309648        0.19358256813888
C            4.01929110650289       -4.66944071934384        0.01307483046295
C            5.44710220938336       -4.57484257523396        0.22535954638387
C            6.03099403291547       -3.30354051412948        0.39779532046946
C            3.00651913002650       -1.11326937035786        0.28968622038140
C            3.80991620124546       -2.26065245138515        0.22787023494830
C            5.22187167378851       -2.13826449421721        0.20071865771953
C            5.80658896529464       -0.88788103133637        0.00281605356380
C            2.79801396968811        1.34271427081351        0.21326849152050
C            3.58622270064069        0.17012799952873        0.15457088075485
C            4.97108960766529        0.26825368689053       -0.12934136928567
C            5.47144278796686        1.53047853597209       -0.47940928903629
C            2.55638021651146        3.77034374491594        0.01446478520775
C            3.36553214567212        2.61531654056568       -0.03671664023205
C            4.73767414881333        2.71626094428731       -0.39631717365297
C            5.33908179704741        4.00305744904278       -0.63455442234578
C            2.30719076457155        6.16512142508290       -0.41022525622163
C            3.11237879206871        5.00982344308188       -0.39051160479670
C            4.49536673925017        5.12122161102949       -0.71602151087269
C            5.00372566665206        6.39358915881667       -1.13042437796987
C            1.89718869146424        8.49152685251288       -1.01766919814883
C            2.77926924232606        7.40295810159103       -0.96065153341826
C            4.15614629602783        7.47489725485097       -1.38204417569298
C            4.70606419989933        8.68823374452652       -1.95749943014403
C            3.97977238357119        9.82390108217829       -2.12361041344073
C            7.74474335957778       -8.07492011386062        1.09210476534445
C            8.50194664976674       -9.18420640960920        1.47319911440292
C            9.77186112155154       -9.05142923941672        2.00634433301605
C           10.32182675177746       -7.80170811701527        2.17874365072627
C            7.56625380025469       -5.59481040033114        0.95087009569280
C            8.29401949949287       -6.77568176471776        1.27430111407209
C            9.59655227941190       -6.66112668579787        1.82169146006802
C           10.13035193712144       -5.37028360833020        2.02583671124161
C            7.38646369838100       -3.15517079127906        0.78204303171636
C            8.12621004510266       -4.30708013453239        1.15541268373281
C            9.44095141589664       -4.23878403193828        1.70462810120898
C            7.23515421138654       -0.78532459461193        0.12837207395057
C            7.97308547915616       -1.84356664985778        0.71313078031922
C            9.29766547845209       -1.55362913165784        1.11601382412667
C            9.87825347904478       -0.32158604379994        0.89768901498320
C            7.89566066670846        0.40389683329967       -0.19858852571779
C            9.20732327187632        0.68427755310079        0.19259714080404
C            9.75265372823029        1.99888522599663        0.05575353684557
C            6.76715989568107        4.19531498503621       -0.63732432060845
C            7.65216549957478        3.11586796007771       -0.56408628217567
C            9.02132770785132        3.13146072579932       -0.20429164607600
C            6.42784008505351        6.54597512400688       -1.23628997385544
C            7.28229508020978        5.52472384156497       -0.80471607688011
C            8.68189955350211        5.78823274990336       -0.73488801336283
C            9.20651433318881        6.92753697957838       -1.27595806909626
C            6.12839374684486        8.74452563680463       -2.27909725234754
C            6.97692426160717        7.73345018638046       -1.78080973552192
C            8.38056816325301        7.88534497260228       -1.89533408329629
C            8.91119462238261        8.98250644124662       -2.58995449050560
C            6.68947897742450        9.76299618284047       -3.03666828471264
C            8.06772625918708        9.87945546290607       -3.19282874248564
H          -10.06929594118617       -9.64724029248991       -0.53896700452079
H           -8.56582487128921      -11.51070295718827        0.10724602263528
H           -6.14727633872511      -11.23401156022165       -0.13440021344601
H          -10.53506481551774       -7.05396493844968       -0.44725559707738
H          -10.52614905418823       -4.46686231762365       -1.03262554304428
H          -10.66716948747976       -2.14231791501669       -1.04718851532234
H          -10.81964773099639        0.41196072608282       -1.00587292996139
H          -11.27453745674337        2.90137308974180       -0.58839341135560
H          -11.17228930325474        5.46292667598740       -0.45874737906040
H          -11.47723813500185        7.70967755678374        0.48561740554470
H           -4.48980829046124      -11.14156413926584       -1.26507569302503
H           -2.13078238744660      -11.08560649867474       -1.08971584685913
H           -0.36621811532533      -10.79289993038917       -0.05695136673096
H            2.01028529359000      -10.63078788258370        0.33110164930973
H            4.03644019663434      -10.60842060657307        0.27640257784481
H            6.33325521897033      -10.34002738402882        0.60009009778560
H            8.10847010561103      -10.17946256495569        1.34635976608503
H           10.32870930023097       -9.93401206418353        2.28483183333231
H           11.31055520679703       -7.68513416383395        2.59722106977139
H           11.11740555900220       -5.28422699199212        2.46292316937884
H           11.34662424413471       -2.80399233897794        1.36254039726867
H           10.87052144602520       -0.13133459298696        1.28666981840991
H           10.78571967519268        2.12598088321484        0.35759263425190
H           10.82575514251353        4.67323726470175       -0.67170945157476
H           10.27413326026923        7.10040178450858       -1.24188145034118
H            9.98328051633629        9.08801354056100       -2.66504311040567
H            8.46561536935496       10.69427509069307       -3.77941453696889
H          -10.51027428568034        9.72323100506456        1.54817879145268
H           -8.12564665364621        9.79381275520863        2.10676039512967
H           -5.29428682599134        8.60913047635507        3.69908746341717
H           -3.60833965353332       10.35010804283375        1.70523403367828
H           -2.29758313630182       10.22832017366671       -0.38498455172429
H           -0.02434098203611       10.34471652964623       -1.10920993672855
H            2.23663779334049       10.92175225784402       -0.92107637388578
H            4.45894762382155       10.72007116688702       -2.49288163772861
H            6.06509053024927       10.48824131606679       -3.53395371731503
P          -10.04702293359258        2.98390543274540       -1.25616875175918
P           -5.70144171457852        9.33723785388402        2.55495018575325
P           -0.98843085788476        7.31837717074835        1.53886386632953
P            2.22564315450252        9.98519841435715       -1.97175916656847
P            9.77160949889756        4.72655226324208        0.24870969074481
P            7.07139131985040        1.57525171473642       -1.26542931923963
P           -0.62476984748892       -0.25900631796157        1.67430154854767
P           -2.73986453110738       -7.57074613499953       -1.95993025785725
P           -9.61537248928126       -7.02921356814232       -1.50508163725845
P            4.39791037802744       -7.16751631484207       -1.00468585306348
P           10.22215636308597       -2.67800098521238        2.19037001459683
P           -7.88873618558990       -0.75528205078815        0.98250604278675
