      -----------------------------------------------------------      
     |                   =====================                   |     
     |                           x T B                           |     
     |                   =====================                   |     
     |                         S. Grimme                         |     
     |          Mulliken Center for Theoretical Chemistry        |     
     |                    University of Bonn                     |     
      -----------------------------------------------------------      

   * xtb version 6.7.1pre (5071a88) compiled by 'Marcel@Raven' on 2024-07-23

   xtb is free software: you can redistribute it and/or modify it under
   the terms of the GNU Lesser General Public License as published by
   the Free Software Foundation, either version 3 of the License, or
   (at your option) any later version.
   
   xtb is distributed in the hope that it will be useful,
   but WITHOUT ANY WARRANTY; without even the implied warranty of
   MERCHANTABILITY or FITNESS FOR A PARTICULAR PURPOSE.  See the
   GNU Lesser General Public License for more details.
   
   Cite this work as:
   * C. Bannwarth, E. Caldeweyher, S. Ehlert, A. Hansen, P. Pracht,
     J. Seibert, S. Spicher, S. Grimme, WIREs Comput. Mol. Sci., 2020, 11,
     e01493. DOI: 10.1002/wcms.1493
   
   for GFN2-xTB:
   * C. Bannwarth, S. Ehlert and S. Grimme., J. Chem. Theory Comput., 2019,
     15, 1652-1671. DOI: 10.1021/acs.jctc.8b01176
   for GFN1-xTB:
   * S. Grimme, C. Bannwarth, P. Shushkov, J. Chem. Theory Comput., 2017,
     13, 1989-2009. DOI: 10.1021/acs.jctc.7b00118
   for GFN0-xTB:
   * P. Pracht, E. Caldeweyher, S. Ehlert, S. Grimme, ChemRxiv, 2019, preprint.
     DOI: 10.26434/chemrxiv.8326202.v1
   for GFN-FF:
   * S. Spicher and S. Grimme, Angew. Chem. Int. Ed., 2020, 59, 15665-15673.
     DOI: 10.1002/anie.202004239
   
   for ALPB and GBSA implicit solvation:
   * S. Ehlert, M. Stahn, S. Spicher, S. Grimme, J. Chem. Theory Comput.,
     2021, 17, 4250-4261. DOI: 10.1021/acs.jctc.1c00471
   
   for ddCOSMO and CPCM-X implicit solvation:
   * M. Stahn, S. Ehlert, S. Grimme, J. Phys. Chem. A,
     2023, XX, XXXX-XXXX. DOI: 10.1021/acs.jpca.3c04382
   
   for DFT-D4:
   * E. Caldeweyher, C. Bannwarth and S. Grimme, J. Chem. Phys., 2017,
     147, 034112. DOI: 10.1063/1.4993215
   * E. Caldeweyher, S. Ehlert, A. Hansen, H. Neugebauer, S. Spicher,
     C. Bannwarth and S. Grimme, J. Chem. Phys., 2019, 150, 154122.
     DOI: 10.1063/1.5090222
   * E. Caldeweyher, J.-M. Mewes, S. Ehlert and S. Grimme, Phys. Chem. Chem. Phys.
     2020, 22, 8499-8512. DOI: 10.1039/D0CP00502A
   
   for sTDA-xTB:
   * S. Grimme and C. Bannwarth, J. Chem. Phys., 2016, 145, 054103.
     DOI: 10.1063/1.4959605
   
   in the mass-spec context:
   * V. Asgeirsson, C. Bauer and S. Grimme, Chem. Sci., 2017, 8, 4879.
     DOI: 10.1039/c7sc00601b
   * J. Koopman and S. Grimme, ACS Omega 2019, 4, 12, 15120-15133.
     DOI: 10.1021/acsomega.9b02011
   
   for metadynamics refer to:
   * S. Grimme, J. Chem. Theory Comput., 2019, 155, 2847-2862
     DOI: 10.1021/acs.jctc.9b00143
   
   for SPH calculations refer to:
   * S. Spicher and S. Grimme, J. Chem. Theory Comput., 2021, 17, 1701-1714
     DOI: 10.1021/acs.jctc.0c01306
   
   for ONIOM refer to:
   * C. Plett, A. Katbashev, S. Ehlert, S. Grimme, M. Bursch,
     Phys. Chem. Chem. Phys., 2023, 25, 17860-17868. DOI: 10.1039/D3CP02178E
   
   for DIPRO refer to:
   * J. Kohn, N. Gildemeister, S. Grimme, D. Fazzi, A. Hansen,
     J. Chem. Phys., 2023, just accepted.
   
   for PTB refer to:
   * S. Grimme, M. Mueller, A. Hansen, J. Chem. Phys., 2023, 158, 124111.
     DOI: 10.1063/5.0137838
   
   with help from (in alphabetical order)
   P. Atkinson, C. Bannwarth, F. Bohle, G. Brandenburg, E. Caldeweyher
   M. Checinski, S. Dohm, S. Ehlert, S. Ehrlich, I. Gerasimov, C. Hölzer
   A. Katbashev, J. Kohn, J. Koopman, C. Lavigne, S. Lehtola, F. März, M. Müller,
   F. Musil, H. Neugebauer, J. Pisarek, C. Plett, P. Pracht, F. Pultar,
   J. Seibert, P. Shushkov, S. Spicher, M. Stahn, M. Steiner, T. Strunk,
   J. Stückrath, T. Rose, and J. Unsleber
   
 * started run on 2025/12/08 at 00:47:27.764     
   ID    Z sym.   atoms
    1    6 C      1-4, 6-20, 22-107, 109-147, 149-159, 161-170
    2    7 N      5, 21, 108, 148, 160
    3    1 H      171-205

           -------------------------------------------------
          |                Calculation Setup                |
           -------------------------------------------------

          program call               : xtb "C:\Users\LENOVO GAMING\Documents\GitHub\molecular-conductivity-sim\results\2nm-5Ndoped-3percent\xtbopt.xyz" --sp
          coordinate file            : C:\Users\LENOVO GAMING\Documents\GitHub\molecular-conductivity-sim\results\2nm-5Ndoped-3percent\xtbopt.xyz
          omp threads                :                    16


           -------------------------------------------------
          |                 G F N 2 - x T B                 |
           -------------------------------------------------

        Reference                      10.1021/acs.jctc.8b01176
      * Hamiltonian:
        H0-scaling (s, p, d)           1.850000    2.230000    2.230000
        zeta-weighting                 0.500000
      * Dispersion:
        s8                             2.700000
        a1                             0.520000
        a2                             5.000000
        s9                             5.000000
      * Repulsion:
        kExp                           1.500000    1.000000
        rExp                           1.000000
      * Coulomb:
        alpha                          2.000000
        third order                    shell-resolved
        anisotropic                    true
        a3                             3.000000
        a5                             4.000000
        cn-shift                       1.200000
        cn-exp                         4.000000
        max-rad                        5.000000

q/qsh data taken from xtbrestart
CAMM data taken from xtbrestart

          ...................................................
          :                      SETUP                      :
          :.................................................:
          :  # basis functions                 715          :
          :  # atomic orbitals                 715          :
          :  # shells                          375          :
          :  # electrons                       720          :
          :  max. iterations                   250          :
          :  Hamiltonian                  GFN2-xTB          :
          :  restarted?                       true          :
          :  GBSA solvation                  false          :
          :  PC potential                    false          :
          :  electronic temp.          300.0000000     K    :
          :  accuracy                    1.0000000          :
          :  -> integral cutoff          0.2500000E+02      :
          :  -> integral neglect         0.1000000E-07      :
          :  -> SCF convergence          0.1000000E-05 Eh   :
          :  -> wf. convergence          0.1000000E-03 e    :
          :  Broyden damping             0.4000000          :
          :  net charge                          0          :
          :  unpaired electrons                  0          :
          ...................................................

 iter      E             dE          RMSdq      gap      omega  full diag
   1   -394.9108205 -0.394911E+03  0.229E-05    0.06       0.0  T
   2   -394.9108205  0.977616E-08  0.145E-04    0.06      48.2  T
   3   -394.9108205 -0.692455E-08  0.809E-05    0.06      86.3  T

   *** convergence criteria satisfied after 3 iterations ***

         #    Occupation            Energy/Eh            Energy/eV
      -------------------------------------------------------------
         1        2.0000           -0.7145374             -19.4436
       ...           ...                  ...                  ...
       354        2.0000           -0.3572430              -9.7211
       355        2.0000           -0.3561884              -9.6924
       356        2.0000           -0.3469297              -9.4404
       357        2.0000           -0.3408148              -9.2740
       358        2.0000           -0.3321591              -9.0385
       359        2.0000           -0.3315125              -9.0209
       360        1.5299           -0.3146094              -8.5610 (HOMO)
       361        0.4700           -0.3123670              -8.4999 (LUMO)
       362        0.0000           -0.3028579              -8.2412
       363                         -0.2944988              -8.0137
       364                         -0.2887525              -7.8574
       365                         -0.2798895              -7.6162
       ...                                ...                  ...
       715                          0.7978209              21.7098
      -------------------------------------------------------------
                  HL-Gap            0.0022424 Eh            0.0610 eV
             Fermi-level           -0.3134882 Eh           -8.5304 eV

 SCC (total)                   0 d,  0 h,  0 min,  0.681 sec
 SCC setup                      ...        0 min,  0.003 sec (  0.441%)
 Dispersion                     ...        0 min,  0.024 sec (  3.524%)
 classical contributions        ...        0 min,  0.000 sec (  0.000%)
 integral evaluation            ...        0 min,  0.050 sec (  7.342%)
 iterations                     ...        0 min,  0.414 sec ( 60.793%)
 molecular gradient             ...        0 min,  0.179 sec ( 26.285%)
 printout                       ...        0 min,  0.011 sec (  1.615%)

         :::::::::::::::::::::::::::::::::::::::::::::::::::::
         ::                     SUMMARY                     ::
         :::::::::::::::::::::::::::::::::::::::::::::::::::::
         :: total energy            -387.384262842246 Eh    ::
         :: gradient norm              0.000806883542 Eh/a0 ::
         :: HOMO-LUMO gap              0.061019150204 eV    ::
         ::.................................................::
         :: SCC energy              -394.928145058849 Eh    ::
         :: -> isotropic ES            0.032273196064 Eh    ::
         :: -> anisotropic ES          0.023724567877 Eh    ::
         :: -> anisotropic XC          0.128870024105 Eh    ::
         :: -> dispersion             -0.495345568943 Eh    ::
         :: repulsion energy           7.543882216603 Eh    ::
         :: add. restraining           0.000000000000 Eh    ::
         :: total charge              -0.000000000000 e     ::
         :::::::::::::::::::::::::::::::::::::::::::::::::::::

           -------------------------------------------------
          |                Property Printout                |
           -------------------------------------------------

    * Orbital Energies and Occupations

         #    Occupation            Energy/Eh            Energy/eV
      -------------------------------------------------------------
         1        2.0000           -0.7145374             -19.4436
       ...           ...                  ...                  ...
       348        2.0000           -0.3772605             -10.2658
       349        2.0000           -0.3770630             -10.2604
       350        2.0000           -0.3746796             -10.1956
       351        2.0000           -0.3742245             -10.1832
       352        2.0000           -0.3674087              -9.9977
       353        2.0000           -0.3586590              -9.7596
       354        2.0000           -0.3572430              -9.7211
       355        2.0000           -0.3561884              -9.6924
       356        2.0000           -0.3469297              -9.4404
       357        2.0000           -0.3408148              -9.2740
       358        2.0000           -0.3321591              -9.0385
       359        2.0000           -0.3315125              -9.0209
       360        1.5299           -0.3146094              -8.5610 (HOMO)
       361        0.4700           -0.3123670              -8.4999 (LUMO)
       362        0.0000           -0.3028579              -8.2412
       363                         -0.2944988              -8.0137
       364                         -0.2887525              -7.8574
       365                         -0.2798895              -7.6162
       366                         -0.2742085              -7.4616
       367                         -0.2684385              -7.3046
       368                         -0.2667602              -7.2589
       369                         -0.2611259              -7.1056
       370                         -0.2575951              -7.0095
       371                         -0.2550485              -6.9402
       ...                                ...                  ...
       715                          0.7978209              21.7098
      -------------------------------------------------------------
                  HL-Gap            0.0022424 Eh            0.0610 eV
             Fermi-level           -0.3134882 Eh           -8.5304 eV

     #   Z          covCN         q      C6AA      α(0)
     1   6 C        2.920    -0.067    29.656     8.930
     2   6 C        2.917    -0.029    28.727     8.789
     3   6 C        2.920    -0.050    29.245     8.868
     4   6 C        2.978     0.005    27.899     8.664
     5   7 N        2.706    -0.124    23.690     7.229
     6   6 C        2.917     0.068    26.472     8.437
     7   6 C        2.996    -0.009    28.223     8.715
     8   6 C        2.989     0.003    27.940     8.671
     9   6 C        2.920    -0.080    30.009     8.983
    10   6 C        2.909     0.063    26.585     8.455
    11   6 C        2.994    -0.007    28.184     8.709
    12   6 C        2.992    -0.000    28.029     8.685
    13   6 C        2.922    -0.051    29.270     8.872
    14   6 C        2.975     0.012    27.737     8.639
    15   6 C        2.995    -0.007    28.193     8.710
    16   6 C        2.990     0.001    28.002     8.680
    17   6 C        2.922    -0.060    29.481     8.904
    18   6 C        2.971     0.012    27.754     8.641
    19   6 C        2.996    -0.004    28.112     8.697
    20   6 C        2.991    -0.002    28.073     8.691
    21   7 N        1.847    -0.283    28.185     7.868
    22   6 C        2.941     0.092    25.956     8.356
    23   6 C        2.996    -0.010    28.252     8.719
    24   6 C        3.000     0.007    27.852     8.657
    25   6 C        2.925    -0.055    29.360     8.886
    26   6 C        2.942     0.091    25.968     8.358
    27   6 C        2.997    -0.012    28.292     8.725
    28   6 C        2.988    -0.002    28.070     8.691
    29   6 C        2.921    -0.036    28.903     8.816
    30   6 C        2.977     0.012    27.747     8.640
    31   6 C        2.996    -0.003    28.077     8.692
    32   6 C        2.974     0.005    27.908     8.666
    33   6 C        2.911    -0.031    28.778     8.797
    34   6 C        2.921    -0.038    28.953     8.824
    35   6 C        2.978     0.002    27.971     8.675
    36   6 C        2.918    -0.036    28.900     8.816
    37   6 C        2.918    -0.041    29.015     8.833
    38   6 C        2.979     0.002    27.969     8.675
    39   6 C        2.989    -0.007    28.191     8.710
    40   6 C        2.989     0.002    27.978     8.677
    41   6 C        2.989     0.003    27.960     8.674
    42   6 C        2.986    -0.000    28.032     8.685
    43   6 C        2.991    -0.001    28.050     8.688
    44   6 C        2.989    -0.001    28.053     8.688
    45   6 C        2.989    -0.001    28.034     8.685
    46   6 C        2.989    -0.000    28.026     8.684
    47   6 C        2.990     0.001    27.995     8.679
    48   6 C        2.990    -0.001    28.049     8.688
    49   6 C        2.990    -0.002    28.074     8.692
    50   6 C        2.991    -0.002    28.055     8.689
    51   6 C        2.993    -0.001    28.052     8.688
    52   6 C        2.992    -0.001    28.032     8.685
    53   6 C        2.991    -0.001    28.051     8.688
    54   6 C        2.991    -0.002    28.063     8.690
    55   6 C        2.994    -0.006    28.150     8.703
    56   6 C        2.993    -0.001    28.041     8.686
    57   6 C        2.991     0.001    28.006     8.681
    58   6 C        2.990    -0.000    28.031     8.685
    59   6 C        2.989     0.000    28.012     8.682
    60   6 C        2.990    -0.002    28.060     8.689
    61   6 C        2.990     0.000    28.018     8.683
    62   6 C        2.986    -0.001    28.056     8.689
    63   6 C        2.977     0.006    27.883     8.662
    64   6 C        2.990     0.001    27.996     8.679
    65   6 C        2.990     0.000    28.012     8.682
    66   6 C        2.978     0.003    27.954     8.673
    67   6 C        2.918    -0.037    28.919     8.819
    68   6 C        2.918    -0.037    28.919     8.818
    69   6 C        2.979     0.005    27.912     8.666
    70   6 C        2.919    -0.035    28.874     8.812
    71   6 C        2.918    -0.043    29.078     8.843
    72   6 C        2.983    -0.010    28.253     8.719
    73   6 C        2.987    -0.003    28.082     8.693
    74   6 C        2.991     0.001    27.985     8.678
    75   6 C        2.994     0.007    27.857     8.658
    76   6 C        2.986    -0.011    28.274     8.722
    77   6 C        2.989    -0.000    28.021     8.683
    78   6 C        2.987    -0.003    28.090     8.694
    79   6 C        2.988    -0.002    28.066     8.690
    80   6 C        2.990    -0.001    28.045     8.687
    81   6 C        2.990     0.000    28.017     8.683
    82   6 C        2.990    -0.002    28.057     8.689
    83   6 C        2.990    -0.001    28.044     8.687
    84   6 C        2.991    -0.002    28.063     8.690
    85   6 C        2.991    -0.001    28.036     8.686
    86   6 C        2.991    -0.000    28.023     8.684
    87   6 C        2.991    -0.000    28.030     8.685
    88   6 C        2.990    -0.002    28.072     8.691
    89   6 C        2.989    -0.001    28.045     8.687
    90   6 C        2.989    -0.001    28.054     8.688
    91   6 C        2.989     0.000    28.010     8.682
    92   6 C        2.989    -0.001    28.044     8.687
    93   6 C        2.986     0.000    28.019     8.683
    94   6 C        2.987    -0.002    28.069     8.691
    95   6 C        2.987    -0.000    28.028     8.684
    96   6 C        2.986    -0.002    28.060     8.689
    97   6 C        2.979     0.005    27.907     8.665
    98   6 C        2.990     0.001    27.999     8.680
    99   6 C        2.990     0.001    28.001     8.680
   100   6 C        2.979     0.003    27.953     8.673
   101   6 C        2.919    -0.038    28.935     8.821
   102   6 C        2.919    -0.037    28.918     8.818
   103   6 C        2.931     0.051    26.853     8.498
   104   6 C        2.920    -0.051    29.268     8.872
   105   6 C        2.919    -0.029    28.732     8.790
   106   6 C        2.982    -0.006    28.163     8.705
   107   6 C        2.932     0.043    27.029     8.526
   108   7 N        2.752     0.041    20.522     6.728
   109   6 C        2.935     0.053    26.801     8.490
   110   6 C        2.988    -0.016    28.404     8.742
   111   6 C        2.990    -0.000    28.028     8.684
   112   6 C        2.988    -0.012    28.312     8.728
   113   6 C        2.993     0.005    27.907     8.666
   114   6 C        2.994    -0.005    28.147     8.703
   115   6 C        2.991     0.000    28.008     8.681
   116   6 C        2.991    -0.004    28.110     8.697
   117   6 C        2.992     0.000    28.009     8.681
   118   6 C        2.992    -0.003    28.098     8.695
   119   6 C        2.991    -0.000    28.028     8.684
   120   6 C        2.991    -0.002    28.058     8.689
   121   6 C        2.992     0.001    28.005     8.681
   122   6 C        2.992    -0.003    28.096     8.695
   123   6 C        2.989    -0.000    28.026     8.684
   124   6 C        2.990    -0.002    28.077     8.692
   125   6 C        2.991     0.001    27.987     8.678
   126   6 C        2.992    -0.005    28.126     8.700
   127   6 C        2.986    -0.000    28.023     8.683
   128   6 C        2.988    -0.002    28.070     8.691
   129   6 C        2.989    -0.000    28.031     8.685
   130   6 C        2.988    -0.003    28.102     8.696
   131   6 C        2.979     0.004    27.920     8.667
   132   6 C        2.990     0.001    28.008     8.681
   133   6 C        2.990     0.001    27.996     8.679
   134   6 C        2.978     0.003    27.963     8.674
   135   6 C        2.919    -0.038    28.954     8.824
   136   6 C        2.919    -0.037    28.908     8.817
   137   6 C        2.978     0.002    27.968     8.675
   138   6 C        2.921    -0.046    29.147     8.853
   139   6 C        2.914    -0.029    28.728     8.789
   140   6 C        2.921    -0.044    29.090     8.845
   141   6 C        2.989    -0.001    28.034     8.685
   142   6 C        2.997    -0.005    28.127     8.700
   143   6 C        2.983     0.015    27.664     8.628
   144   6 C        2.921    -0.083    30.080     8.994
   145   6 C        2.993     0.008    27.826     8.653
   146   6 C        2.996    -0.011    28.275     8.723
   147   6 C        2.910     0.066    26.516     8.444
   148   7 N        2.705    -0.122    23.644     7.222
   149   6 C        2.993     0.003    27.948     8.672
   150   6 C        2.996    -0.015    28.372     8.738
   151   6 C        2.910     0.066    26.512     8.443
   152   6 C        2.920    -0.082    30.044     8.989
   153   6 C        2.993     0.001    27.992     8.679
   154   6 C        2.996    -0.013    28.326     8.731
   155   6 C        2.979     0.017    27.623     8.621
   156   6 C        2.920    -0.082    30.064     8.992
   157   6 C        2.993     0.004    27.919     8.668
   158   6 C        2.996    -0.013    28.330     8.731
   159   6 C        2.910     0.069    26.458     8.434
   160   7 N        2.705    -0.122    23.646     7.222
   161   6 C        2.989     0.000    28.011     8.682
   162   6 C        2.995    -0.009    28.230     8.716
   163   6 C        2.910     0.064    26.577     8.453
   164   6 C        2.921    -0.080    30.011     8.984
   165   6 C        2.976     0.006    27.884     8.662
   166   6 C        2.995    -0.004    28.121     8.699
   167   6 C        2.983     0.013    27.718     8.636
   168   6 C        2.921    -0.043    29.075     8.843
   169   6 C        2.921    -0.042    29.048     8.838
   170   6 C        2.913    -0.031    28.763     8.794
   171   1 H        0.926     0.023     2.685     2.562
   172   1 H        0.926     0.030     2.580     2.512
   173   1 H        0.926     0.031     2.578     2.511
   174   1 H        0.860     0.165     1.306     1.790
   175   1 H        0.926     0.021     2.716     2.577
   176   1 H        0.926     0.028     2.609     2.526
   177   1 H        0.926     0.042     2.425     2.435
   178   1 H        0.926     0.044     2.394     2.419
   179   1 H        0.926     0.031     2.568     2.506
   180   1 H        0.926     0.033     2.546     2.495
   181   1 H        0.926     0.029     2.593     2.518
   182   1 H        0.926     0.038     2.474     2.460
   183   1 H        0.926     0.032     2.556     2.500
   184   1 H        0.926     0.053     2.278     2.360
   185   1 H        0.926     0.050     2.324     2.384
   186   1 H        0.926     0.028     2.613     2.528
   187   1 H        0.926     0.030     2.585     2.514
   188   1 H        0.926     0.030     2.591     2.517
   189   1 H        0.926     0.024     2.678     2.559
   190   1 H        0.860     0.166     1.298     1.785
   191   1 H        0.926     0.021     2.717     2.578
   192   1 H        0.926     0.020     2.730     2.584
   193   1 H        0.860     0.164     1.310     1.793
   194   1 H        0.926     0.020     2.732     2.585
   195   1 H        0.926     0.025     2.657     2.549
   196   1 H        0.926     0.026     2.641     2.542
   197   1 H        0.926     0.026     2.641     2.541
   198   1 H        0.926     0.028     2.612     2.527
   199   1 H        0.926     0.032     2.560     2.502
   200   1 H        0.926     0.031     2.571     2.507
   201   1 H        0.926     0.032     2.556     2.500
   202   1 H        0.926     0.032     2.560     2.502
   203   1 H        0.926     0.032     2.560     2.502
   204   1 H        0.926     0.032     2.558     2.501
   205   1 H        0.926     0.029     2.602     2.523

 Mol. C6AA /au·bohr⁶  :     911142.581663
 Mol. C8AA /au·bohr⁸  :   25128125.374832
 Mol. α(0) /au        :       1557.965578


Wiberg/Mayer (AO) data.
largest (>0.10) Wiberg bond orders for each atom

 ---------------------------------------------------------------------------
     #   Z sym  total        # sym  WBO       # sym  WBO       # sym  WBO
 ---------------------------------------------------------------------------
     1   6 C    3.959 --     2 C    1.409     6 C    1.374   171 H    0.968
     2   6 C    3.977 --     3 C    1.471     1 C    1.409   172 H    0.971
     3   6 C    3.960 --     2 C    1.471     4 C    1.337   173 H    0.963
     4   6 C    3.972 --     3 C    1.337     7 C    1.293    35 C    1.148
     5   7 N    3.491 --     6 C    1.156    10 C    1.130   174 H    0.938
     6   6 C    3.961 --     1 C    1.374     7 C    1.255     5 N    1.156
     7   6 C    3.972 --     4 C    1.293     6 C    1.255     8 C    1.187
     8   6 C    3.954 --    11 C    1.279    39 C    1.277     7 C    1.187
     9   6 C    3.915 --    10 C    1.481    14 C    1.235   175 H    0.965
    10   6 C    3.948 --     9 C    1.481    11 C    1.181     5 N    1.130
    11   6 C    3.938 --     8 C    1.279    12 C    1.260    10 C    1.181
    12   6 C    3.971 --    15 C    1.267    11 C    1.260    43 C    1.229
    13   6 C    3.842 --    14 C    1.387    18 C    1.299   176 H    0.967
    14   6 C    3.975 --    13 C    1.387     9 C    1.235    15 C    1.198
    15   6 C    3.936 --    12 C    1.267    16 C    1.259    14 C    1.198
    16   6 C    3.975 --    19 C    1.277    15 C    1.259    47 C    1.221
    17   6 C    3.798 --    18 C    1.339    22 C    1.316   177 H    0.967
    18   6 C    3.978 --    17 C    1.339    13 C    1.299    19 C    1.187
    19   6 C    3.935 --    16 C    1.277    20 C    1.257    18 C    1.187
    20   6 C    3.973 --    23 C    1.277    19 C    1.257    51 C    1.223
    21   7 N    2.871 --    22 C    1.332    26 C    1.326
    22   6 C    3.968 --    21 N    1.332    17 C    1.316    23 C    1.163
    23   6 C    3.928 --    20 C    1.277    24 C    1.265    22 C    1.163
    24   6 C    3.972 --    27 C    1.266    23 C    1.265    55 C    1.230
    25   6 C    3.793 --    30 C    1.328    26 C    1.324   178 H    0.967
    26   6 C    3.973 --    21 N    1.326    25 C    1.324    27 C    1.162
    27   6 C    3.946 --    28 C    1.283    24 C    1.266    26 C    1.162
    28   6 C    3.974 --    27 C    1.283    31 C    1.243    59 C    1.229
    29   6 C    3.895 --    33 C    1.496    30 C    1.278   179 H    0.969
    30   6 C    3.984 --    25 C    1.328    29 C    1.278    31 C    1.216
    31   6 C    3.949 --    32 C    1.272    28 C    1.243    30 C    1.216
    32   6 C    3.978 --    34 C    1.377    31 C    1.272    63 C    1.138
    33   6 C    3.982 --    29 C    1.496    34 C    1.393   197 H    0.970
    34   6 C    3.889 --    33 C    1.393    32 C    1.377   198 H    0.963
    35   6 C    3.951 --    36 C    1.319    40 C    1.287     4 C    1.148
    36   6 C    3.963 --    37 C    1.517    35 C    1.319   180 H    0.961
    37   6 C    3.952 --    36 C    1.517    38 C    1.309   181 H    0.961
    38   6 C    3.957 --    37 C    1.309    41 C    1.280    69 C    1.173
    39   6 C    3.963 --     8 C    1.277    44 C    1.245    40 C    1.215
    40   6 C    3.980 --    35 C    1.287    41 C    1.253    39 C    1.215
    41   6 C    3.973 --    38 C    1.280    40 C    1.253    42 C    1.218
    42   6 C    3.955 --    45 C    1.262    73 C    1.261    41 C    1.218
    43   6 C    3.960 --    44 C    1.271    48 C    1.241    12 C    1.229
    44   6 C    3.965 --    43 C    1.271    39 C    1.245    45 C    1.229
    45   6 C    3.951 --    42 C    1.262    46 C    1.250    44 C    1.229
    46   6 C    3.963 --    45 C    1.250    77 C    1.248    49 C    1.248
    47   6 C    3.948 --    48 C    1.265    52 C    1.252    16 C    1.221
    48   6 C    3.964 --    47 C    1.265    49 C    1.241    43 C    1.241
    49   6 C    3.954 --    50 C    1.252    46 C    1.248    48 C    1.241
    50   6 C    3.961 --    53 C    1.253    49 C    1.252    81 C    1.241
    51   6 C    3.951 --    56 C    1.259    52 C    1.256    20 C    1.223
    52   6 C    3.967 --    51 C    1.256    47 C    1.252    53 C    1.241
    53   6 C    3.954 --    50 C    1.253    54 C    1.247    52 C    1.241
    54   6 C    3.961 --    57 C    1.261    53 C    1.247    85 C    1.237
    55   6 C    3.950 --    60 C    1.254    56 C    1.252    24 C    1.230
    56   6 C    3.966 --    51 C    1.259    55 C    1.252    57 C    1.237
    57   6 C    3.950 --    54 C    1.261    58 C    1.241    56 C    1.237
    58   6 C    3.964 --    61 C    1.255    89 C    1.250    57 C    1.241
    59   6 C    3.936 --    60 C    1.276    28 C    1.229    64 C    1.226
    60   6 C    3.968 --    59 C    1.276    55 C    1.254    61 C    1.219
    61   6 C    3.957 --    62 C    1.269    58 C    1.255    60 C    1.219
    62   6 C    3.961 --    61 C    1.269    93 C    1.254    65 C    1.220
    63   6 C    3.946 --    67 C    1.336    64 C    1.282    32 C    1.138
    64   6 C    3.981 --    63 C    1.282    65 C    1.249    59 C    1.226
    65   6 C    3.976 --    66 C    1.283    64 C    1.249    62 C    1.220
    66   6 C    3.964 --    68 C    1.326    65 C    1.283    97 C    1.156
    67   6 C    3.969 --    68 C    1.498    63 C    1.336   199 H    0.962
    68   6 C    3.951 --    67 C    1.498    66 C    1.326   200 H    0.961
    69   6 C    3.936 --    70 C    1.305    74 C    1.269    38 C    1.173
    70   6 C    3.954 --    71 C    1.529    69 C    1.305   182 H    0.960
    71   6 C    3.942 --    70 C    1.529    72 C    1.289   183 H    0.959
    72   6 C    3.947 --    71 C    1.289    75 C    1.263   103 C    1.193
    73   6 C    3.956 --    42 C    1.261    78 C    1.254    74 C    1.224
    74   6 C    3.976 --    69 C    1.269    75 C    1.260    73 C    1.224
    75   6 C    3.968 --    72 C    1.263    74 C    1.260    76 C    1.219
    76   6 C    3.951 --   107 C    1.257    79 C    1.256    75 C    1.219
    77   6 C    3.958 --    78 C    1.253    46 C    1.248    82 C    1.243
    78   6 C    3.957 --    73 C    1.254    77 C    1.253    79 C    1.235
    79   6 C    3.949 --    76 C    1.256    80 C    1.245    78 C    1.235
    80   6 C    3.959 --   111 C    1.256    83 C    1.245    79 C    1.245
    81   6 C    3.953 --    82 C    1.257    86 C    1.243    50 C    1.241
    82   6 C    3.957 --    81 C    1.257    83 C    1.244    77 C    1.243
    83   6 C    3.954 --    84 C    1.252    80 C    1.245    82 C    1.244
    84   6 C    3.956 --    83 C    1.252   115 C    1.247    87 C    1.244
    85   6 C    3.956 --    90 C    1.256    86 C    1.251    54 C    1.237
    86   6 C    3.960 --    87 C    1.251    85 C    1.251    81 C    1.243
    87   6 C    3.958 --    86 C    1.251    88 C    1.250    84 C    1.244
    88   6 C    3.957 --    91 C    1.257    87 C    1.250   119 C    1.237
    89   6 C    3.960 --    94 C    1.256    58 C    1.250    90 C    1.239
    90   6 C    3.957 --    85 C    1.256    91 C    1.249    89 C    1.239
    91   6 C    3.955 --    88 C    1.257    90 C    1.249    92 C    1.238
    92   6 C    3.962 --   123 C    1.255    95 C    1.254    91 C    1.238
    93   6 C    3.954 --    94 C    1.266    62 C    1.254    98 C    1.221
    94   6 C    3.960 --    93 C    1.266    89 C    1.256    95 C    1.222
    95   6 C    3.959 --    96 C    1.269    92 C    1.254    94 C    1.222
    96   6 C    3.957 --    95 C    1.269   127 C    1.255    99 C    1.218
    97   6 C    3.955 --   101 C    1.321    98 C    1.283    66 C    1.156
    98   6 C    3.978 --    97 C    1.283    99 C    1.251    93 C    1.221
    99   6 C    3.978 --   100 C    1.285    98 C    1.251    96 C    1.218
   100   6 C    3.957 --   102 C    1.321    99 C    1.285   131 C    1.156
   101   6 C    3.961 --   102 C    1.511    97 C    1.321   201 H    0.961
   102   6 C    3.960 --   101 C    1.511   100 C    1.321   202 H    0.960
   103   6 C    3.884 --   104 C    1.305    72 C    1.193   108 N    1.170
   104   6 C    3.942 --   105 C    1.511   103 C    1.305   184 H    0.956
   105   6 C    3.935 --   104 C    1.511   106 C    1.297   185 H    0.959
   106   6 C    3.922 --   105 C    1.297   109 C    1.285   137 C    1.147
   107   6 C    3.926 --   112 C    1.262    76 C    1.257   108 N    1.147
   108   7 N    3.685 --   103 C    1.170   109 C    1.153   107 C    1.147
   109   6 C    3.941 --   106 C    1.285   110 C    1.248   108 N    1.153
   110   6 C    3.952 --   113 C    1.256   109 C    1.248   141 C    1.219
   111   6 C    3.956 --    80 C    1.256   116 C    1.244   112 C    1.240
   112   6 C    3.943 --   107 C    1.262   111 C    1.240   113 C    1.228
   113   6 C    3.965 --   110 C    1.256   114 C    1.254   112 C    1.228
   114   6 C    3.966 --   145 C    1.259   113 C    1.254   117 C    1.229
   115   6 C    3.958 --   116 C    1.252    84 C    1.247   120 C    1.245
   116   6 C    3.953 --   115 C    1.252   111 C    1.244   117 C    1.243
   117   6 C    3.961 --   118 C    1.273   116 C    1.243   114 C    1.229
   118   6 C    3.950 --   117 C    1.273   121 C    1.241   149 C    1.224
   119   6 C    3.960 --   124 C    1.263   120 C    1.246    88 C    1.237
   120   6 C    3.960 --   121 C    1.253   119 C    1.246   115 C    1.245
   121   6 C    3.962 --   122 C    1.254   120 C    1.253   118 C    1.241
   122   6 C    3.954 --   125 C    1.265   121 C    1.254   153 C    1.220
   123   6 C    3.960 --   128 C    1.258    92 C    1.255   124 C    1.232
   124   6 C    3.953 --   119 C    1.263   125 C    1.246   123 C    1.232
   125   6 C    3.962 --   122 C    1.265   124 C    1.246   126 C    1.234
   126   6 C    3.967 --   157 C    1.270   129 C    1.240   125 C    1.234
   127   6 C    3.960 --   128 C    1.268    96 C    1.255   132 C    1.220
   128   6 C    3.957 --   127 C    1.268   123 C    1.258   129 C    1.217
   129   6 C    3.969 --   130 C    1.291   126 C    1.240   128 C    1.217
   130   6 C    3.956 --   129 C    1.291   161 C    1.231   133 C    1.215
   131   6 C    3.963 --   135 C    1.328   132 C    1.281   100 C    1.156
   132   6 C    3.978 --   131 C    1.281   133 C    1.252   127 C    1.220
   133   6 C    3.981 --   134 C    1.288   132 C    1.252   130 C    1.215
   134   6 C    3.953 --   136 C    1.336   133 C    1.288   165 C    1.135
   135   6 C    3.956 --   136 C    1.499   131 C    1.328   203 H    0.961
   136   6 C    3.969 --   135 C    1.499   134 C    1.336   204 H    0.961
   137   6 C    3.976 --   138 C    1.374   142 C    1.258   106 C    1.147
   138   6 C    3.925 --   139 C    1.410   137 C    1.374   186 H    0.962
   139   6 C    3.981 --   140 C    1.476   138 C    1.410   187 H    0.971
   140   6 C    3.932 --   139 C    1.476   143 C    1.310   188 H    0.969
   141   6 C    3.972 --   146 C    1.282   142 C    1.248   110 C    1.219
   142   6 C    3.976 --   137 C    1.258   141 C    1.248   143 C    1.240
   143   6 C    3.984 --   140 C    1.310   144 C    1.263   142 C    1.240
   144   6 C    3.932 --   147 C    1.456   143 C    1.263   189 H    0.965
   145   6 C    3.955 --   114 C    1.259   150 C    1.244   146 C    1.243
   146   6 C    3.937 --   141 C    1.282   145 C    1.243   147 C    1.192
   147   6 C    3.960 --   144 C    1.456   146 C    1.192   148 N    1.145
   148   7 N    3.485 --   147 C    1.145   151 C    1.144   190 H    0.938
   149   6 C    3.971 --   150 C    1.270   154 C    1.261   118 C    1.224
   150   6 C    3.940 --   149 C    1.270   145 C    1.244   151 C    1.202
   151   6 C    3.949 --   152 C    1.441   150 C    1.202   148 N    1.144
   152   6 C    3.930 --   151 C    1.441   155 C    1.280   191 H    0.966
   153   6 C    3.973 --   158 C    1.290   154 C    1.246   122 C    1.220
   154   6 C    3.959 --   149 C    1.261   153 C    1.246   155 C    1.228
   155   6 C    3.972 --   156 C    1.300   152 C    1.280   154 C    1.228
   156   6 C    3.930 --   159 C    1.419   155 C    1.300   192 H    0.966
   157   6 C    3.956 --   126 C    1.270   162 C    1.255   158 C    1.220
   158   6 C    3.943 --   153 C    1.290   157 C    1.220   159 C    1.209
   159   6 C    3.948 --   156 C    1.419   158 C    1.209   160 N    1.159
   160   7 N    3.482 --   159 C    1.159   163 C    1.131   193 H    0.938
   161   6 C    3.974 --   162 C    1.284   166 C    1.237   130 C    1.231
   162   6 C    3.950 --   161 C    1.284   157 C    1.255   163 C    1.186
   163   6 C    3.960 --   164 C    1.474   162 C    1.186   160 N    1.131
   164   6 C    3.931 --   163 C    1.474   167 C    1.251   194 H    0.965
   165   6 C    3.981 --   169 C    1.386   166 C    1.265   134 C    1.135
   166   6 C    3.977 --   165 C    1.265   167 C    1.244   161 C    1.237
   167   6 C    3.984 --   168 C    1.317   164 C    1.251   166 C    1.244
   168   6 C    3.942 --   170 C    1.476   167 C    1.317   195 H    0.969
   169   6 C    3.939 --   170 C    1.409   165 C    1.386   205 H    0.963
   170   6 C    3.982 --   168 C    1.476   169 C    1.409   196 H    0.971
   171   1 H    0.999 --     1 C    0.968
   172   1 H    0.998 --     2 C    0.971
   173   1 H    0.999 --     3 C    0.963
   174   1 H    0.972 --     5 N    0.938
   175   1 H    0.998 --     9 C    0.965
   176   1 H    0.998 --    13 C    0.967
   177   1 H    0.997 --    17 C    0.967
   178   1 H    0.997 --    25 C    0.967
   179   1 H    0.998 --    29 C    0.969
   180   1 H    0.998 --    36 C    0.961
   181   1 H    0.998 --    37 C    0.961
   182   1 H    0.998 --    70 C    0.960
   183   1 H    0.998 --    71 C    0.959
   184   1 H    0.996 --   104 C    0.956
   185   1 H    0.997 --   105 C    0.959
   186   1 H    0.999 --   138 C    0.962
   187   1 H    0.998 --   139 C    0.971
   188   1 H    0.998 --   140 C    0.969
   189   1 H    0.998 --   144 C    0.965
   190   1 H    0.971 --   148 N    0.938
   191   1 H    0.998 --   152 C    0.966
   192   1 H    0.998 --   156 C    0.966
   193   1 H    0.972 --   160 N    0.938
   194   1 H    0.998 --   164 C    0.965
   195   1 H    0.998 --   168 C    0.969
   196   1 H    0.998 --   170 C    0.971
   197   1 H    0.998 --    33 C    0.970
   198   1 H    0.999 --    34 C    0.963
   199   1 H    0.998 --    67 C    0.962
   200   1 H    0.998 --    68 C    0.961
   201   1 H    0.998 --   101 C    0.961
   202   1 H    0.998 --   102 C    0.960
   203   1 H    0.998 --   135 C    0.961
   204   1 H    0.998 --   136 C    0.961
   205   1 H    0.999 --   169 C    0.963
 ---------------------------------------------------------------------------

Topologies differ in total number of bonds
Writing topology from bond orders to xtbtopo.mol

molecular dipole:
                 x           y           z       tot (Debye)
 q only:        4.265      -4.335       0.007
   full:        4.990      -4.560       0.006      17.181
molecular quadrupole (traceless):
                xx          xy          yy          xz          yz          zz
 q only:        4.780      16.254      33.824       0.090      -0.307     -38.604
  q+dip:       45.711      22.846      74.454       0.038      -0.319    -120.165
   full:       14.560      22.906      43.349       0.077      -0.311     -57.909


           -------------------------------------------------
          | TOTAL ENERGY             -387.384262842246 Eh   |
          | GRADIENT NORM               0.000806883542 Eh/α |
          | HOMO-LUMO GAP               0.061019150204 eV   |
           -------------------------------------------------

------------------------------------------------------------------------
 * finished run on 2025/12/08 at 00:47:28.579     
------------------------------------------------------------------------
 total:
 * wall-time:     0 d,  0 h,  0 min,  0.813 sec
 *  cpu-time:     0 d,  0 h,  0 min, 11.594 sec
 * ratio c/w:    14.260 speedup
 SCF:
 * wall-time:     0 d,  0 h,  0 min,  0.686 sec
 *  cpu-time:     0 d,  0 h,  0 min, 10.219 sec
 * ratio c/w:    14.896 speedup

normal termination of xtb
