      -----------------------------------------------------------      
     |                   =====================                   |     
     |                           x T B                           |     
     |                   =====================                   |     
     |                         S. Grimme                         |     
     |          Mulliken Center for Theoretical Chemistry        |     
     |                    University of Bonn                     |     
      -----------------------------------------------------------      

   * xtb version 6.7.1pre (5071a88) compiled by 'Marcel@Raven' on 2024-07-23

   xtb is free software: you can redistribute it and/or modify it under
   the terms of the GNU Lesser General Public License as published by
   the Free Software Foundation, either version 3 of the License, or
   (at your option) any later version.
   
   xtb is distributed in the hope that it will be useful,
   but WITHOUT ANY WARRANTY; without even the implied warranty of
   MERCHANTABILITY or FITNESS FOR A PARTICULAR PURPOSE.  See the
   GNU Lesser General Public License for more details.
   
   Cite this work as:
   * C. Bannwarth, E. Caldeweyher, S. Ehlert, A. Hansen, P. Pracht,
     J. Seibert, S. Spicher, S. Grimme, WIREs Comput. Mol. Sci., 2020, 11,
     e01493. DOI: 10.1002/wcms.1493
   
   for GFN2-xTB:
   * C. Bannwarth, S. Ehlert and S. Grimme., J. Chem. Theory Comput., 2019,
     15, 1652-1671. DOI: 10.1021/acs.jctc.8b01176
   for GFN1-xTB:
   * S. Grimme, C. Bannwarth, P. Shushkov, J. Chem. Theory Comput., 2017,
     13, 1989-2009. DOI: 10.1021/acs.jctc.7b00118
   for GFN0-xTB:
   * P. Pracht, E. Caldeweyher, S. Ehlert, S. Grimme, ChemRxiv, 2019, preprint.
     DOI: 10.26434/chemrxiv.8326202.v1
   for GFN-FF:
   * S. Spicher and S. Grimme, Angew. Chem. Int. Ed., 2020, 59, 15665-15673.
     DOI: 10.1002/anie.202004239
   
   for ALPB and GBSA implicit solvation:
   * S. Ehlert, M. Stahn, S. Spicher, S. Grimme, J. Chem. Theory Comput.,
     2021, 17, 4250-4261. DOI: 10.1021/acs.jctc.1c00471
   
   for ddCOSMO and CPCM-X implicit solvation:
   * M. Stahn, S. Ehlert, S. Grimme, J. Phys. Chem. A,
     2023, XX, XXXX-XXXX. DOI: 10.1021/acs.jpca.3c04382
   
   for DFT-D4:
   * E. Caldeweyher, C. Bannwarth and S. Grimme, J. Chem. Phys., 2017,
     147, 034112. DOI: 10.1063/1.4993215
   * E. Caldeweyher, S. Ehlert, A. Hansen, H. Neugebauer, S. Spicher,
     C. Bannwarth and S. Grimme, J. Chem. Phys., 2019, 150, 154122.
     DOI: 10.1063/1.5090222
   * E. Caldeweyher, J.-M. Mewes, S. Ehlert and S. Grimme, Phys. Chem. Chem. Phys.
     2020, 22, 8499-8512. DOI: 10.1039/D0CP00502A
   
   for sTDA-xTB:
   * S. Grimme and C. Bannwarth, J. Chem. Phys., 2016, 145, 054103.
     DOI: 10.1063/1.4959605
   
   in the mass-spec context:
   * V. Asgeirsson, C. Bauer and S. Grimme, Chem. Sci., 2017, 8, 4879.
     DOI: 10.1039/c7sc00601b
   * J. Koopman and S. Grimme, ACS Omega 2019, 4, 12, 15120-15133.
     DOI: 10.1021/acsomega.9b02011
   
   for metadynamics refer to:
   * S. Grimme, J. Chem. Theory Comput., 2019, 155, 2847-2862
     DOI: 10.1021/acs.jctc.9b00143
   
   for SPH calculations refer to:
   * S. Spicher and S. Grimme, J. Chem. Theory Comput., 2021, 17, 1701-1714
     DOI: 10.1021/acs.jctc.0c01306
   
   for ONIOM refer to:
   * C. Plett, A. Katbashev, S. Ehlert, S. Grimme, M. Bursch,
     Phys. Chem. Chem. Phys., 2023, 25, 17860-17868. DOI: 10.1039/D3CP02178E
   
   for DIPRO refer to:
   * J. Kohn, N. Gildemeister, S. Grimme, D. Fazzi, A. Hansen,
     J. Chem. Phys., 2023, just accepted.
   
   for PTB refer to:
   * S. Grimme, M. Mueller, A. Hansen, J. Chem. Phys., 2023, 158, 124111.
     DOI: 10.1063/5.0137838
   
   with help from (in alphabetical order)
   P. Atkinson, C. Bannwarth, F. Bohle, G. Brandenburg, E. Caldeweyher
   M. Checinski, S. Dohm, S. Ehlert, S. Ehrlich, I. Gerasimov, C. Hölzer
   A. Katbashev, J. Kohn, J. Koopman, C. Lavigne, S. Lehtola, F. März, M. Müller,
   F. Musil, H. Neugebauer, J. Pisarek, C. Plett, P. Pracht, F. Pultar,
   J. Seibert, P. Shushkov, S. Spicher, M. Stahn, M. Steiner, T. Strunk,
   J. Stückrath, T. Rose, and J. Unsleber
   
 * started run on 2025/12/08 at 00:47:05.010     
   ID    Z sym.   atoms
    1    6 C      1-4, 6-20, 22-107, 109-147, 149-159, 161-170
    2    7 N      5, 21, 108, 148, 160
    3    1 H      171-205

           -------------------------------------------------
          |                Calculation Setup                |
           -------------------------------------------------

          program call               : xtb "C:\Users\LENOVO GAMING\Documents\GitHub\molecular-conductivity-sim\dataset\2nm-5Ndoped-3percent.xyz" --opt --parallel 4
          coordinate file            : C:\Users\LENOVO GAMING\Documents\GitHub\molecular-conductivity-sim\dataset\2nm-5Ndoped-3percent.xyz
          omp threads                :                     4


           -------------------------------------------------
          |                 G F N 2 - x T B                 |
           -------------------------------------------------

        Reference                      10.1021/acs.jctc.8b01176
      * Hamiltonian:
        H0-scaling (s, p, d)           1.850000    2.230000    2.230000
        zeta-weighting                 0.500000
      * Dispersion:
        s8                             2.700000
        a1                             0.520000
        a2                             5.000000
        s9                             5.000000
      * Repulsion:
        kExp                           1.500000    1.000000
        rExp                           1.000000
      * Coulomb:
        alpha                          2.000000
        third order                    shell-resolved
        anisotropic                    true
        a3                             3.000000
        a5                             4.000000
        cn-shift                       1.200000
        cn-exp                         4.000000
        max-rad                        5.000000


          ...................................................
          :                      SETUP                      :
          :.................................................:
          :  # basis functions                 715          :
          :  # atomic orbitals                 715          :
          :  # shells                          375          :
          :  # electrons                       720          :
          :  max. iterations                   250          :
          :  Hamiltonian                  GFN2-xTB          :
          :  restarted?                      false          :
          :  GBSA solvation                  false          :
          :  PC potential                    false          :
          :  electronic temp.          300.0000000     K    :
          :  accuracy                    1.0000000          :
          :  -> integral cutoff          0.2500000E+02      :
          :  -> integral neglect         0.1000000E-07      :
          :  -> SCF convergence          0.1000000E-05 Eh   :
          :  -> wf. convergence          0.1000000E-03 e    :
          :  Broyden damping             0.4000000          :
          :  net charge                          0          :
          :  unpaired electrons                  0          :
          ...................................................

 iter      E             dE          RMSdq      gap      omega  full diag
   1   -394.0094474 -0.394009E+03  0.483E+00    0.50       0.0  T
   2   -391.0723413  0.293711E+01  0.352E+00    0.10       1.0  T
   3   -319.1109864  0.719614E+02  0.651E+00    0.05       1.0  T
   4   -284.0097827  0.351012E+02  0.766E+00    0.07       1.0  T
   5   -386.2777739 -0.102268E+03  0.337E+00    0.21       1.0  T
   6   -393.2624700 -0.698470E+01  0.175E+00    0.38       1.0  T
   7   -393.4876206 -0.225151E+00  0.126E+00    0.10       1.0  T
   8   -394.1842142 -0.696594E+00  0.988E-01    0.22       1.0  T
   9   -394.3298036 -0.145589E+00  0.773E-01    0.18       1.0  T
  10   -394.3674551 -0.376515E-01  0.614E-01    0.14       1.0  T
  11   -394.4005546 -0.330995E-01  0.421E-01    0.10       1.0  T
  12   -394.4084108 -0.785618E-02  0.287E-01    0.14       1.0  T
  13   -394.3909462  0.174646E-01  0.361E-01    0.01       1.0  T
  14   -394.4231044 -0.321582E-01  0.179E-01    0.04       1.0  T
  15   -394.4224148  0.689613E-03  0.124E-01    0.04       1.0  T
  16   -394.4265638 -0.414904E-02  0.378E-02    0.05       1.0  T
  17   -394.4272721 -0.708324E-03  0.370E-02    0.07       1.0  T
  18   -394.4272318  0.403707E-04  0.400E-02    0.07       1.0  T
  19   -394.4271516  0.801338E-04  0.381E-02    0.07       1.0  T
  20   -394.4272894 -0.137725E-03  0.287E-02    0.07       1.0  T
  21   -394.4275674 -0.278078E-03  0.958E-03    0.07       1.0  T
  22   -394.4275995 -0.320699E-04  0.443E-03    0.06       1.6  T
  23   -394.4276079 -0.844717E-05  0.318E-03    0.06       2.2  T
  24   -394.4276113 -0.332323E-05  0.190E-03    0.06       3.7  T
  25   -394.4276120 -0.746306E-06  0.810E-04    0.06       8.6  T
  26   -394.4276123 -0.329533E-06  0.456E-04    0.06      15.3  T

   *** convergence criteria satisfied after 26 iterations ***

         #    Occupation            Energy/Eh            Energy/eV
      -------------------------------------------------------------
         1        2.0000           -0.7080189             -19.2662
       ...           ...                  ...                  ...
       354        2.0000           -0.3572455              -9.7211
       355        2.0000           -0.3559421              -9.6857
       356        2.0000           -0.3472091              -9.4480
       357        2.0000           -0.3409166              -9.2768
       358        2.0000           -0.3332595              -9.0685
       359        2.0000           -0.3316743              -9.0253
       360        1.5450           -0.3145237              -8.5586 (HOMO)
       361        0.4547           -0.3122001              -8.4954 (LUMO)
       362        0.0003           -0.3049921              -8.2993
       363                         -0.2950312              -8.0282
       364                         -0.2897720              -7.8851
       365                         -0.2808537              -7.6424
       ...                                ...                  ...
       715                          0.7637272              20.7821
      -------------------------------------------------------------
                  HL-Gap            0.0023236 Eh            0.0632 eV
             Fermi-level           -0.3133623 Eh           -8.5270 eV

 SCC (total)                   0 d,  0 h,  0 min,  5.407 sec
 SCC setup                      ...        0 min,  0.004 sec (  0.074%)
 Dispersion                     ...        0 min,  0.017 sec (  0.314%)
 classical contributions        ...        0 min,  0.001 sec (  0.018%)
 integral evaluation            ...        0 min,  0.098 sec (  1.812%)
 iterations                     ...        0 min,  4.810 sec ( 88.959%)
 molecular gradient             ...        0 min,  0.458 sec (  8.471%)
 printout                       ...        0 min,  0.019 sec (  0.351%)

         :::::::::::::::::::::::::::::::::::::::::::::::::::::
         ::                     SUMMARY                     ::
         :::::::::::::::::::::::::::::::::::::::::::::::::::::
         :: total energy            -387.358397420272 Eh    ::
         :: gradient norm              0.062831803932 Eh/a0 ::
         :: HOMO-LUMO gap              0.063228825786 eV    ::
         ::.................................................::
         :: SCC energy              -394.444539149628 Eh    ::
         :: -> isotropic ES            0.031391772542 Eh    ::
         :: -> anisotropic ES          0.024609201401 Eh    ::
         :: -> anisotropic XC          0.138126802050 Eh    ::
         :: -> dispersion             -0.488628745286 Eh    ::
         :: repulsion energy           7.086141729356 Eh    ::
         :: add. restraining           0.000000000000 Eh    ::
         :: total charge              -0.000000000028 e     ::
         :::::::::::::::::::::::::::::::::::::::::::::::::::::

      ----------------------------------------------------------- 
     |                   =====================                   |
     |                        A N C O P T                        |
     |                   =====================                   |
     |               Approximate Normal Coordinate               |
     |                Rational Function Optimizer                |
      ----------------------------------------------------------- 
      ----------------------------------------------------------- 
     |                   =====================                   |
     |                        A N C O P T                        |
     |                   =====================                   |
     |               Approximate Normal Coordinate               |
     |                Rational Function Optimizer                |
      ----------------------------------------------------------- 

          ...................................................
          :                      SETUP                      :
          :.................................................:
          :   optimization level            normal          :
          :   max. optcycles                   615          :
          :   ANC micro-cycles                  20          :
          :   degrees of freedom               609          :
          :.................................................:
          :   RF solver                   davidson          :
          :   write xtbopt.log                true          :
          :   linear?                        false          :
          :   energy convergence         0.5000000E-05 Eh   :
          :   grad. convergence          0.1000000E-02 Eh/α :
          :   maxmium RF displ.          1.0000000          :
          :   Hlow (freq-cutoff)         0.1000000E-01      :
          :   Hmax (freq-cutoff)         5.0000000          :
          :   S6 in model hess.         20.0000000          :
          ...................................................

generating ANC from exact Hessian ...
Using Lindh-Hessian (1995)
 Shifting diagonal of input Hessian by   9.941473478212139E-003
 Lowest  eigenvalues of input Hessian
    0.000000    0.000000    0.000000    0.000000    0.000000    0.000000
    0.010000    0.010079    0.010096    0.010208    0.010232    0.010658
    0.010699    0.010786    0.010815    0.011039    0.011658    0.011725
 Highest eigenvalues
    2.148102    2.159432    2.168993    2.200778    2.202071    2.226330
 

........................................................................
.............................. CYCLE    1 ..............................
........................................................................

 iter      E             dE          RMSdq      gap      omega  full diag
   1   -394.4276124 -0.394428E+03  0.209E-04    0.06       0.0  T
   2   -394.4276122  0.176550E-06  0.576E-04    0.06      12.1  T
   3   -394.4276123 -0.102906E-06  0.399E-04    0.06      17.5  T
     SCC iter.                  ...        0 min,  0.557 sec
     gradient                   ...        0 min,  0.457 sec
 * total energy  :  -387.3583974 Eh     change       -0.9799805E-10 Eh
   gradient norm :     0.0628447 Eh/α   predicted     0.0000000E+00 (-100.00%)
   displ. norm   :     0.5498933 α      lambda       -0.1918522E-01
   maximum displ.:     0.4897939 α      in ANC's #45, #90, #186, ...

........................................................................
.............................. CYCLE    2 ..............................
........................................................................

 iter      E             dE          RMSdq      gap      omega  full diag
   1   -394.6085160 -0.394609E+03  0.953E-02    0.06       0.0  T
   2   -394.5820743  0.264417E-01  0.238E-01    0.18       1.0  T
   3   -394.6026774 -0.206030E-01  0.122E-01    0.04       1.0  T
   4   -394.6041689 -0.149158E-02  0.112E-01    0.10       1.0  T
   5   -394.6080734 -0.390451E-02  0.560E-02    0.06       1.0  T
   6   -394.6089486 -0.875150E-03  0.226E-02    0.07       1.0  T
   7   -394.6090688 -0.120173E-03  0.139E-02    0.07       1.0  T
   8   -394.6091678 -0.989814E-04  0.195E-03    0.06       3.6  T
   9   -394.6091659  0.186891E-05  0.225E-03    0.06       3.1  T
  10   -394.6091681 -0.219614E-05  0.624E-04    0.06      11.2  T
  11   -394.6091682 -0.135556E-06  0.327E-04    0.06      21.3  T
  12   -394.6091683 -0.522102E-07  0.564E-05    0.06     123.8  T
     SCC iter.                  ...        0 min,  2.208 sec
     gradient                   ...        0 min,  0.456 sec
 * total energy  :  -387.3733795 Eh     change       -0.1498207E-01 Eh
   gradient norm :     0.0304915 Eh/α   predicted    -0.1249369E-01 ( -16.61%)
   displ. norm   :     0.6230418 α      lambda       -0.1151317E-01
   maximum displ.:     0.5936878 α      in ANC's #45, #77, #90, ...

........................................................................
.............................. CYCLE    3 ..............................
........................................................................

 iter      E             dE          RMSdq      gap      omega  full diag
   1   -394.7766320 -0.394777E+03  0.882E-02    0.05       0.0  T
   2   -394.7489275  0.277045E-01  0.241E-01    0.18       1.0  T
   3   -394.7722409 -0.233133E-01  0.109E-01    0.04       1.0  T
   4   -394.7749848 -0.274390E-02  0.718E-02    0.08       1.0  T
   5   -394.7766266 -0.164180E-02  0.472E-02    0.06       1.0  T
   6   -394.7771708 -0.544280E-03  0.199E-02    0.07       1.0  T
   7   -394.7773162 -0.145364E-03  0.600E-03    0.06       1.2  T
   8   -394.7773323 -0.160749E-04  0.167E-03    0.06       4.2  T
   9   -394.7773296  0.269598E-05  0.261E-03    0.06       2.7  T
  10   -394.7773328 -0.327010E-05  0.497E-04    0.06      14.0  T
  11   -394.7773329 -0.102552E-06  0.140E-04    0.06      49.8  T
  12   -394.7773329  0.484391E-08  0.151E-04    0.06      46.1  T
     SCC iter.                  ...        0 min,  2.163 sec
     gradient                   ...        0 min,  0.444 sec
 * total energy  :  -387.3815423 Eh     change       -0.8162795E-02 Eh
   gradient norm :     0.0100077 Eh/α   predicted    -0.7991180E-02 (  -2.10%)
   displ. norm   :     0.4570449 α      lambda       -0.3750818E-02
   maximum displ.:     0.4468198 α      in ANC's #45, #27, #26, ...

........................................................................
.............................. CYCLE    4 ..............................
........................................................................

 iter      E             dE          RMSdq      gap      omega  full diag
   1   -394.8765730 -0.394877E+03  0.579E-02    0.06       0.0  T
   2   -394.8697953  0.677777E-02  0.121E-01    0.10       1.0  T
   3   -394.8663845  0.341078E-02  0.145E-01    0.04       1.0  T
   4   -394.8759197 -0.953518E-02  0.414E-02    0.07       1.0  T
   5   -394.8761282 -0.208560E-03  0.379E-02    0.07       1.0  T
   6   -394.8765950 -0.466721E-03  0.123E-02    0.06       1.0  T
   7   -394.8766458 -0.508164E-04  0.642E-03    0.06       1.1  T
   8   -394.8766649 -0.190976E-04  0.178E-03    0.06       3.9  T
   9   -394.8766659 -0.100213E-05  0.549E-04    0.06      12.7  T
  10   -394.8766659 -0.190246E-07  0.464E-04    0.06      15.1  T
  11   -394.8766660 -0.108758E-06  0.103E-04    0.06      67.6  T
     SCC iter.                  ...        0 min,  1.994 sec
     gradient                   ...        0 min,  0.448 sec
 * total energy  :  -387.3839424 Eh     change       -0.2400104E-02 Eh
   gradient norm :     0.0078154 Eh/α   predicted    -0.2267685E-02 (  -5.52%)
   displ. norm   :     0.1849991 α      lambda       -0.5303057E-03
   maximum displ.:     0.1786943 α      in ANC's #45, #27, #26, ...

........................................................................
.............................. CYCLE    5 ..............................
........................................................................

 iter      E             dE          RMSdq      gap      omega  full diag
   1   -394.9095616 -0.394910E+03  0.266E-02    0.06       0.0  T
   2   -394.9088929  0.668729E-03  0.401E-02    0.05       1.0  T
   3   -394.9074457  0.144715E-02  0.660E-02    0.08       1.0  T
   4   -394.9093243 -0.187857E-02  0.270E-02    0.06       1.0  T
   5   -394.9094678 -0.143468E-03  0.141E-02    0.07       1.0  T
   6   -394.9095653 -0.975181E-04  0.246E-03    0.06       2.8  T
   7   -394.9095683 -0.300014E-05  0.439E-04    0.06      15.9  T
   8   -394.9095683 -0.110930E-08  0.346E-04    0.06      20.2  T
   9   -394.9095683 -0.256794E-07  0.205E-04    0.06      34.1  T
     SCC iter.                  ...        0 min,  1.644 sec
     gradient                   ...        0 min,  0.459 sec
 * total energy  :  -387.3842408 Eh     change       -0.2983972E-03 Eh
   gradient norm :     0.0042731 Eh/α   predicted    -0.2742301E-03 (  -8.10%)
   displ. norm   :     0.0265432 α      lambda       -0.2867321E-04
   maximum displ.:     0.0188562 α      in ANC's #45, #26, #27, ...

........................................................................
.............................. CYCLE    6 ..............................
........................................................................

 iter      E             dE          RMSdq      gap      omega  full diag
   1   -394.9116544 -0.394912E+03  0.671E-03    0.06       0.0  T
   2   -394.9108159  0.838498E-03  0.407E-02    0.05       1.0  T
   3   -394.9116553 -0.839327E-03  0.463E-03    0.06       1.5  T
   4   -394.9116548  0.497712E-06  0.379E-03    0.06       1.8  T
   5   -394.9116535  0.130190E-05  0.430E-03    0.06       1.6  T
   6   -394.9116599 -0.647553E-05  0.456E-04    0.06      15.3  T
   7   -394.9116600 -0.480377E-07  0.254E-04    0.06      27.5  T
   8   -394.9116600 -0.354753E-07  0.651E-05    0.06     107.3  T
     SCC iter.                  ...        0 min,  1.432 sec
     gradient                   ...        0 min,  0.556 sec
 * total energy  :  -387.3842591 Eh     change       -0.1829951E-04 Eh
   gradient norm :     0.0016710 Eh/α   predicted    -0.1435206E-04 ( -21.57%)
   displ. norm   :     0.0205171 α      lambda       -0.5955484E-05
   maximum displ.:     0.0109419 α      in ANC's #26, #14, #21, ...

........................................................................
.............................. CYCLE    7 ..............................
........................................................................

 iter      E             dE          RMSdq      gap      omega  full diag
   1   -394.9108168 -0.394911E+03  0.496E-03    0.06       0.0  T
   2   -394.9102567  0.560070E-03  0.331E-02    0.05       1.0  T
   3   -394.9108137 -0.556986E-03  0.445E-03    0.06       1.6  T
   4   -394.9108175 -0.380019E-05  0.289E-03    0.06       2.4  T
   5   -394.9108174  0.423379E-07  0.315E-03    0.06       2.2  T
   6   -394.9108205 -0.305842E-05  0.363E-04    0.06      19.3  T
   7   -394.9108205 -0.416303E-07  0.888E-05    0.06      78.7  T
   8   -394.9108205 -0.259115E-08  0.366E-05    0.06     190.6  T
     SCC iter.                  ...        0 min,  1.478 sec
     gradient                   ...        0 min,  0.478 sec
 * total energy  :  -387.3842628 Eh     change       -0.3763263E-05 Eh
   gradient norm :     0.0008099 Eh/α   predicted    -0.3006503E-05 ( -20.11%)
   displ. norm   :     0.0093083 α      lambda       -0.1025131E-05
   maximum displ.:     0.0046607 α      in ANC's #14, #20, #18, ...

   *** GEOMETRY OPTIMIZATION CONVERGED AFTER 7 ITERATIONS ***

------------------------------------------------------------------------
 total energy gain   :        -0.0258654 Eh      -16.2308 kcal/mol
 total RMSD          :         0.1258460 a0        0.0666 Å
 total power (kW/mol):        -9.7013804 (step)   -4.2566 (real)
------------------------------------------------------------------------

 ANCopt (total)                0 d,  0 h,  0 min, 15.954 sec
 optimizer setup                ...        0 min,  0.005 sec (  0.031%)
 model hessian                  ...        0 min,  0.210 sec (  1.316%)
 ANC generation                 ...        0 min,  0.090 sec (  0.564%)
 coordinate transformation      ...        0 min,  0.001 sec (  0.006%)
 single point calculation       ...        0 min, 15.616 sec ( 97.881%)
 optimization log               ...        0 min,  0.021 sec (  0.132%)
 hessian update                 ...        0 min,  0.003 sec (  0.019%)
 rational function              ...        0 min,  0.003 sec (  0.019%)

================
 final structure:
================
205
 xtb: 6.7.1pre (5071a88)
C          -10.21964920026566       -8.13258483889990       -0.01279965789237
C           -9.59433881217000       -9.36951766684516       -0.01507012232383
C           -8.22073966964575       -9.47180660206670       -0.01393541996039
C           -7.41036058407926       -8.32763380561918       -0.01039510730264
N          -10.04511978115846       -5.74475230504354       -0.00767477298021
C           -9.45063978413714       -6.97820440234893       -0.00968354982386
C           -8.04044871547310       -7.06692708016152       -0.00861734430365
C           -7.27098105241028       -5.86512315998450       -0.00591726685058
C          -10.00428698020292       -3.34907324734395       -0.00364121951720
C           -9.35526561452046       -4.55485932002296       -0.00519170676647
C           -7.93065669880920       -4.62250237255541       -0.00439042092700
C           -7.19149203114866       -3.42220230358453       -0.00220511942666
C           -9.92314377348502       -0.89176702442750       -0.00039964476101
C           -9.28577336903074       -2.12668182037143       -0.00158046489462
C           -7.85963699343465       -2.18133109941432       -0.00098490994169
C           -7.11499345492801       -0.98400497516668        0.00064284906577
C           -9.84508284430385        1.56584153379513        0.00154371033072
C           -9.20870051743342        0.31917729182715        0.00092811027835
C           -7.77971579870391        0.25646975993127        0.00136559706543
C           -7.03083137273399        1.44996322989470        0.00232216355131
N           -9.77009369199885        3.93825167509716        0.00223696574709
C           -9.12278003214564        2.76675173406451        0.00217706021357
C           -7.69046261189418        2.68899156847773        0.00253063031400
C           -6.94524585944004        3.88152323443379        0.00290080913871
C           -9.73543751913106        6.30571148222411        0.00203974585384
C           -9.06677242770238        5.07851125263302        0.00237382005874
C           -7.63210444940718        5.10725392552452        0.00269238111635
C           -6.91478560123065        6.31581565680383        0.00264951518814
C           -9.72913608212697        8.75328523855395        0.00122215216860
C           -9.04219528640940        7.52267421473381        0.00183989221628
C           -7.61520211999323        7.54401890513959        0.00215749796030
C           -6.90882249905633        8.76975240275380        0.00188891159240
C           -9.03600046166273        9.93791854644684        0.00087443588227
C           -7.64598437821856        9.95391809930715        0.00120520007188
C           -5.96667994618016       -8.37897747788939       -0.00885993045666
C           -5.27154500411205       -9.59564101506187       -0.00798736034294
C           -3.90457007033101       -9.64526589506969       -0.00865218385700
C           -3.12346195914106       -8.47897030623790       -0.01034928843729
C           -5.86482771268010       -5.92372981195826       -0.00522431931673
C           -5.20877521693571       -7.18570785893092       -0.00702773519999
C           -3.78856210249527       -7.23266124574660       -0.00685037364384
C           -3.03404329619062       -6.02387518797335       -0.00325648466083
C           -5.77427560109255       -3.47875005711034       -0.00141139939696
C           -5.11358410876103       -4.72459063252828       -0.00278318712371
C           -3.69587298395518       -4.77570777404482       -0.00146762602956
C           -2.94737391886444       -3.57471577649921        0.00134717795933
C           -5.69472555865232       -1.03383412060144        0.00128353137437
C           -5.02751083326321       -2.27698857284140        0.00059969842219
C           -3.61263330907702       -2.32539880320535        0.00172986911531
C           -2.86852105286082       -1.12369902793972        0.00306878762629
C           -5.61266336513728        1.40941260286569        0.00272115520678
C           -4.94735685364294        0.16543298689912        0.00248878445559
C           -3.53315685749716        0.12297555702323        0.00304217287480
C           -2.79021287535458        1.32694682041068        0.00350946723022
C           -5.53317957348770        3.85125078391217        0.00317163979758
C           -4.86808362731494        2.60817131317273        0.00324283967576
C           -3.45449235360673        2.57122382000712        0.00342225357846
C           -2.71769745833295        3.78112450267812        0.00348471168590
C           -5.49480172782318        6.29199717590435        0.00293373205126
C           -4.80827066642209        5.06150093729837        0.00325998981280
C           -3.38871814141393        5.02590618694812        0.00338202789111
C           -2.65609433192058        6.23135155915138        0.00335861022467
C           -5.46012122845759        8.74441382204578        0.00230232092763
C           -4.76707062364525        7.51116736465397        0.00283590644850
C           -3.34492919826753        7.47765510571300        0.00318265229070
C           -2.60976527014249        8.68249908717753        0.00326236659712
C           -4.69628796588532        9.91622107748849        0.00213138479695
C           -3.32544576595397        9.88687259383452        0.00262952454436
C           -1.68913719826655       -8.52055330126482       -0.01344495527399
C           -0.97476972166016       -9.72830982514039       -0.03206304405073
C            0.39060786379807       -9.76590943960206       -0.02510230972327
C            1.15553351595048       -8.58505723076058        0.00240034098249
C           -1.62006636975770       -6.06563412594164       -0.00011089564089
C           -0.94838072601174       -7.31630623177216       -0.00317241870011
C            0.46683782303955       -7.35474635911201        0.00290181825596
C            1.22816324624834       -6.15769396923687        0.00808579919859
C           -1.53267153838365       -3.62037812338825        0.00334438145196
C           -0.86605191549796       -4.86883646936617        0.00386554239714
C            0.55352938440702       -4.91274323246629        0.00625200522495
C            1.29011625850494       -3.70494560424537        0.00533245964369
C           -1.45476474788889       -1.16732248144773        0.00374375230943
C           -0.79060442343028       -2.41430760389368        0.00427031753221
C            0.62274068617399       -2.45696374254327        0.00444612341322
C            1.36351719530302       -1.25300077585908        0.00333348468337
C           -1.37596365202209        1.28689583650074        0.00351043988923
C           -0.71235766929556        0.03853295719070        0.00370723024312
C            0.69902003087129       -0.00351031250568        0.00317524647092
C            1.43941736750463        1.20169636553583        0.00236004714975
C           -1.30436235066019        3.74196073139865        0.00327764623971
C           -0.63668512275278        2.49198121743995        0.00326157756017
C            0.77606846440906        2.44953616272572        0.00254824882459
C            1.51995909170845        3.65668886720510        0.00195601276365
C           -1.24014886427458        6.19085720726095        0.00322332338055
C           -0.56646280110973        4.94846089442779        0.00306372061995
C            0.85465018639249        4.90574060124831        0.00241758549345
C            1.60073642877202        6.10520553292483        0.00220062469272
C           -1.16983152847086        8.64243794218109        0.00374086811689
C           -0.49396439278358        7.40174707606591        0.00332756455040
C            0.92648204651653        7.35875459405643        0.00298165729503
C            1.67284618641865        8.55702355258259        0.00334548031402
C           -0.39679637948036        9.81074661173488        0.00461881465038
C            0.97074447796388        9.76948372490859        0.00447148519764
C            2.58388096241465       -8.60078416204922        0.02640082775723
C            3.27259383206394       -9.82041946244663        0.06842656081464
C            4.63330641622940       -9.88524539609874        0.06862171537130
C            5.39258019460215       -8.70852255407344        0.02796984293101
C            2.64467068270210       -6.21167244232565        0.00868401546976
N            3.31056471585203       -7.42790886629985        0.01613339028768
C            4.70028620183017       -7.47468054640024        0.01521689541439
C            5.44795769741240       -6.27229928498392        0.00579091331551
C            2.70049882076004       -3.75213174379416        0.00375799612713
C            3.37277940995902       -5.00082419033478        0.00469631626488
C            4.78699769255818       -5.02825102455673        0.00280064614392
C            5.52307522562480       -3.82527927836996       -0.00026606696640
C            2.77531722980528       -1.29751167807611        0.00189436052206
C            3.44099750049024       -2.54442319989332        0.00171202404523
C            4.85360020363174       -2.57837490986048       -0.00046346471900
C            5.59614788337936       -1.38198431211273       -0.00237658568673
C            2.85366227260748        1.15685182465070        0.00092935279159
C            3.51787839358381       -0.09257897167583        0.00045263530023
C            4.92902472594451       -0.13535988838348       -0.00171999256975
C            5.67362431039601        1.06373740931394       -0.00318194355179
C            2.93285547189584        3.61109222138166        0.00061859736539
C            3.59636243886620        2.35710562142785       -0.00013131597880
C            5.00911303859873        2.30789783988434       -0.00217371501971
C            5.75652617161055        3.51039923819521       -0.00319500423231
C            3.01668446045959        6.05965391160757        0.00104838026490
C            3.67819698627500        4.81240597485452       -0.00001553962551
C            5.09908795476640        4.76449332506018       -0.00185997976094
C            5.85232348978586        5.95263424133987       -0.00240547475282
C            3.11212259067676        8.51083863522070        0.00238547077854
C            3.77598617587322        7.26445986189201        0.00089448394154
C            5.19653324897347        7.21487927517574       -0.00076752164828
C            5.95705202233113        8.40556154661861       -0.00085857915003
C            3.89502384517197        9.67186675638644        0.00265118387361
C            5.26445123174116        9.62055801013161        0.00110319200408
C            6.83575377149528       -8.75719627508805        0.01074291050523
C            7.55116287693927       -9.95520493702138        0.00020732747528
C            8.93785235453456       -9.95972447344091       -0.01015318594482
C            9.65086161753637       -8.78415758846532       -0.01081463871682
C            6.87055741061806       -6.31155938363098        0.00330296137497
C            7.56187208152381       -7.54345449745387        0.00291351740108
C            8.98251815905061       -7.55139708481450       -0.00565834366042
C            9.68944877746336       -6.33008584779940       -0.00942715337835
C            6.93064448431126       -3.86498278843890       -0.00249695398895
C            7.59953141667628       -5.10736114397273       -0.00181602372564
C            9.02349558956929       -5.13082024275825       -0.00671899681614
N            9.69840124646766       -3.93446067911039       -0.00967029341248
C            7.01372725068027       -1.42386245377628       -0.00497758860686
C            7.67406959445227       -2.66508261044277       -0.00545675485118
C            9.09373845672137       -2.70167133613429       -0.00860164916844
C            9.82189408393594       -1.53329535291621       -0.01071718187951
C            7.09195067763083        1.01265785060083       -0.00572237065132
C            7.76277214016315       -0.23034494879399       -0.00683757166463
C            9.18245600853555       -0.27642093657989       -0.00962465661403
C            9.89986425760390        0.93278006252816       -0.01108899369566
C            7.16292517874398        3.45580797033601       -0.00554602186948
C            7.82968789593064        2.20496733506241       -0.00700207708795
C            9.24776663031827        2.14955675279224       -0.00965359502760
N            9.93436504371303        3.33396385691537       -0.01067131698288
C            7.27064151311763        5.89612838035808       -0.00458326049005
C            7.91663998249206        4.64627460979818       -0.00635142573028
C            9.33993994760431        4.57636307709738       -0.00884808945648
C           10.08241029405781        5.72638703524149       -0.00937122488021
C            7.40417228523134        8.35057406005751       -0.00300128518081
C            8.04069373509410        7.08566760119187       -0.00500142322988
C            9.45828902346620        6.99548124718077       -0.00737092341905
C           10.21467768612917        8.17477793510091       -0.00763690665483
C            8.20531549080971        9.49088262049302       -0.00330764688992
C            9.58911868543931        9.39934383239394       -0.00558379612945
H          -11.29759952026371       -8.06037876241151       -0.01361112919072
H          -10.19676134380322      -10.26598674854820       -0.01780917016309
H           -7.78076888692449      -10.45495709661926       -0.01609036270888
H          -11.05423464454239       -5.70506862558979       -0.00849748390728
H          -11.08481815911657       -3.31683976385711       -0.00420383843702
H          -11.00342351817071       -0.85594801703039       -0.00075049407310
H          -10.92286805657374        1.61890721817149        0.00127842780863
H          -10.81455022750181        6.30329049125601        0.00179366161769
H          -10.80924554637631        8.74637786398709        0.00097425819078
H           -5.81431971269600      -10.52677494491672       -0.00639434697627
H           -3.43386886719039      -10.61469991448207       -0.00622078987871
H           -1.50200811093036      -10.66732509321731       -0.05469001693314
H            0.86217502283736      -10.73316429638207       -0.04718107020388
H            2.71251020426444      -10.73590378538647        0.10418273615633
H            5.11005268191145      -10.84857194685385        0.10314221823978
H            7.04510440395547      -10.90609906770001       -0.00298758255356
H            9.46017749418485      -10.90536241938075       -0.01764875313607
H           10.73059696432522       -8.79621659077863       -0.01712131006643
H           10.76968788274900       -6.35297544700754       -0.01482522317439
H           10.70788425934226       -3.96694820473063       -0.01288637475162
H           10.90218992810099       -1.57252428190866       -0.01313322040759
H           10.98060803989484        0.90399777050383       -0.01320401097416
H           10.94388196255417        3.29935739558952       -0.01248622051050
H           11.16242361378565        5.67784495396198       -0.01125087746000
H           11.29303265866380        8.10827075180062       -0.00943820391952
H           10.17857686144429       10.30510835072019       -0.00575416086469
H           -9.57193872763216       10.87659475382432        0.00033052135729
H           -7.15062042367044       10.91135535810954        0.00089507108251
H           -5.18180993466416       10.87878417821055        0.00158979136184
H           -2.80297530465729       10.82966830640252        0.00238286895052
H           -0.87286709315565       10.77750381480765        0.00547180459967
H            1.50342605367880       10.70624596486498        0.00515226044996
H            3.42812996922447       10.64311753439562        0.00404342240984
H            5.80589400522941       10.55261566715860        0.00136146808337
H            7.76335469994764       10.47379769694704       -0.00178826551253
 
 Bond Distances (Angstroems)
 ---------------------------
C1-C2=1.3860         C1-C6=1.3871         C1-H171=1.0804       C2-C1=1.3860         C2-C3=1.3774         C2-H172=1.0801       
C3-C2=1.3774         C3-C4=1.4021         C3-H173=1.0771       C4-C3=1.4021         C4-C7=1.4094         C4-C35=1.4446        
N5-C6=1.3692         N5-C10=1.3754        N5-H174=1.0099       C6-C1=1.3871         C6-N5=1.3692         C6-C7=1.4130         
C7-C4=1.4094         C7-C6=1.4130         C7-C8=1.4270         C8-C7=1.4270         C8-C11=1.4069        C8-C39=1.4074        
C9-C10=1.3694        C9-C14=1.4179        C9-H175=1.0810       C10-N5=1.3754        C10-C9=1.3694        C10-C11=1.4262       
C11-C8=1.4069        C11-C10=1.4262       C11-C12=1.4096       C12-C11=1.4096       C12-C15=1.4093       C12-C43=1.4183       
C13-C14=1.3897       C13-C18=1.4060       C13-H176=1.0809      C14-C9=1.4179        C14-C13=1.3897       C14-C15=1.4272       
C15-C12=1.4093       C15-C14=1.4272       C15-C16=1.4100       C16-C15=1.4100       C16-C19=1.4074       C16-C47=1.4211       
C17-C18=1.3997       C17-C22=1.4014       C17-H177=1.0791      C18-C13=1.4060       C18-C17=1.3997       C18-C19=1.4304       
C19-C16=1.4074       C19-C18=1.4304       C19-C20=1.4090       C20-C19=1.4090       C20-C23=1.4037       C20-C51=1.4187       
N21-C22=1.3384       N21-C26=1.3397       C22-C17=1.4014       C22-N21=1.3384       C22-C23=1.4344       C23-C20=1.4037       
C23-C22=1.4344       C23-C24=1.4062       C24-C23=1.4062       C24-C27=1.4051       C24-C55=1.4124       C25-C26=1.3975       
C25-C30=1.4006       C25-H178=1.0791      C26-N21=1.3397       C26-C25=1.3975       C26-C27=1.4350       C27-C24=1.4051       
C27-C26=1.4350       C27-C28=1.4054       C28-C27=1.4054       C28-C31=1.4139       C28-C59=1.4202       C29-C30=1.4094       
C29-C33=1.3725       C29-H179=1.0801      C30-C25=1.4006       C30-C29=1.4094       C30-C31=1.4272       C31-C28=1.4139       
C31-C30=1.4272       C31-C32=1.4147       C32-C31=1.4147       C32-C34=1.3949       C32-C63=1.4489       C33-C29=1.3725       
C33-C34=1.3901       C33-H197=1.0809      C34-C32=1.3949       C34-C33=1.3901       C34-H198=1.0780      C35-C4=1.4446        
C35-C36=1.4012       C35-C40=1.4136       C36-C35=1.4012       C36-C37=1.3679       C36-H180=1.0778      C37-C36=1.3679       
C37-C38=1.4037       C37-H181=1.0777      C38-C37=1.4037       C38-C41=1.4127       C38-C69=1.4349       C39-C8=1.4074        
C39-C40=1.4223       C39-C44=1.4150       C40-C35=1.4136       C40-C39=1.4223       C40-C41=1.4210       C41-C38=1.4127       
C41-C40=1.4210       C41-C42=1.4249       C42-C41=1.4249       C42-C45=1.4128       C42-C73=1.4146       C43-C12=1.4183       
C43-C44=1.4102       C43-C48=1.4149       C44-C39=1.4150       C44-C43=1.4102       C44-C45=1.4186       C45-C42=1.4128       
C45-C44=1.4186       C45-C46=1.4151       C46-C45=1.4151       C46-C49=1.4154       C46-C77=1.4154       C47-C16=1.4211       
C47-C48=1.4109       C47-C52=1.4131       C48-C43=1.4149       C48-C47=1.4109       C48-C49=1.4157       C49-C46=1.4154       
C49-C48=1.4157       C49-C50=1.4134       C50-C49=1.4134       C50-C53=1.4128       C50-C81=1.4144       C51-C20=1.4187       
C51-C52=1.4107       C51-C56=1.4112       C52-C47=1.4131       C52-C51=1.4107       C52-C53=1.4148       C53-C50=1.4128       
C53-C52=1.4148       C53-C54=1.4147       C54-C53=1.4147       C54-C57=1.4105       C54-C85=1.4148       C55-C24=1.4124       
C55-C56=1.4098       C55-C60=1.4107       C56-C51=1.4112       C56-C55=1.4098       C56-C57=1.4141       C57-C54=1.4105       
C57-C56=1.4141       C57-C58=1.4166       C58-C57=1.4166       C58-C61=1.4141       C58-C89=1.4139       C59-C28=1.4202       
C59-C60=1.4091       C59-C64=1.4198       C60-C55=1.4107       C60-C59=1.4091       C60-C61=1.4200       C61-C58=1.4141       
C61-C60=1.4200       C61-C62=1.4106       C62-C61=1.4106       C62-C65=1.4240       C62-C93=1.4165       C63-C32=1.4489       
C63-C64=1.4146       C63-C67=1.3988       C64-C59=1.4198       C64-C63=1.4146       C64-C65=1.4225       C65-C62=1.4240       
C65-C64=1.4225       C65-C66=1.4114       C66-C65=1.4114       C66-C68=1.4010       C66-C97=1.4405       C67-C63=1.3988       
C67-C68=1.3712       C67-H199=1.0781      C68-C66=1.4010       C68-C67=1.3712       C68-H200=1.0779      C69-C38=1.4349       
C69-C70=1.4033       C69-C74=1.4139       C70-C69=1.4033       C70-C71=1.3659       C70-H182=1.0771      C71-C70=1.3659       
C71-C72=1.4072       C71-H183=1.0763      C72-C71=1.4072       C72-C75=1.4100       C72-C103=1.4286      C73-C42=1.4146       
C73-C74=1.4196       C73-C78=1.4145       C74-C69=1.4139       C74-C73=1.4196       C74-C75=1.4158       C75-C72=1.4100       
C75-C74=1.4158       C75-C76=1.4187       C76-C75=1.4187       C76-C79=1.4160       C76-C107=1.4175      C77-C46=1.4154       
C77-C78=1.4153       C77-C82=1.4161       C78-C73=1.4145       C78-C77=1.4153       C78-C79=1.4203       C79-C76=1.4160       
C79-C78=1.4203       C79-C80=1.4147       C80-C79=1.4147       C80-C83=1.4152       C80-C111=1.4112      C81-C50=1.4144       
C81-C82=1.4128       C81-C86=1.4161       C82-C77=1.4161       C82-C81=1.4128       C82-C83=1.4140       C83-C80=1.4152       
C83-C82=1.4140       C83-C84=1.4136       C84-C83=1.4136       C84-C87=1.4152       C84-C115=1.4125      C85-C54=1.4148       
C85-C86=1.4138       C85-C90=1.4138       C86-C81=1.4161       C86-C85=1.4138       C86-C87=1.4120       C87-C84=1.4152       
C87-C86=1.4120       C87-C88=1.4145       C88-C87=1.4145       C88-C91=1.4132       C88-C119=1.4150      C89-C58=1.4139       
C89-C90=1.4171       C89-C94=1.4143       C90-C85=1.4138       C90-C89=1.4171       C90-C91=1.4134       C91-C88=1.4132       
C91-C90=1.4134       C91-C92=1.4180       C92-C91=1.4180       C92-C95=1.4152       C92-C123=1.4136      C93-C62=1.4165       
C93-C94=1.4133       C93-C98=1.4223       C94-C89=1.4143       C94-C93=1.4133       C94-C95=1.4218       C95-C92=1.4152       
C95-C94=1.4218       C95-C96=1.4126       C96-C95=1.4126       C96-C99=1.4234       C96-C127=1.4167      C97-C66=1.4405       
C97-C98=1.4128       C97-C101=1.4009      C98-C93=1.4223       C98-C97=1.4128       C98-C99=1.4211       C99-C96=1.4234       
C99-C98=1.4211       C99-C100=1.4117      C100-C99=1.4117      C100-C102=1.4011     C100-C131=1.4400     C101-C97=1.4009      
C101-C102=1.3682     C101-H201=1.0776     C102-C100=1.4011     C102-C101=1.3682     C102-H202=1.0776     C103-C72=1.4286      
C103-C104=1.4013     C103-N108=1.3798     C104-C103=1.4013     C104-C105=1.3623     C104-H184=1.0738     C105-C104=1.3623     
C105-C106=1.4010     C105-H185=1.0754     C106-C105=1.4010     C106-C109=1.4148     C106-C137=1.4441     C107-C76=1.4175      
C107-N108=1.3866     C107-C112=1.4129     N108-C103=1.3798     N108-C107=1.3866     N108-C109=1.3905     C109-C106=1.4148     
C109-N108=1.3905     C109-C110=1.4159     C110-C109=1.4159     C110-C113=1.4087     C110-C141=1.4231     C111-C80=1.4112      
C111-C112=1.4182     C111-C116=1.4167     C112-C107=1.4129     C112-C111=1.4182     C112-C113=1.4145     C113-C110=1.4087     
C113-C112=1.4145     C113-C114=1.4103     C114-C113=1.4103     C114-C117=1.4153     C114-C145=1.4081     C115-C84=1.4125      
C115-C116=1.4135     C115-C120=1.4154     C116-C111=1.4167     C116-C115=1.4135     C116-C117=1.4130     C117-C114=1.4153     
C117-C116=1.4130     C117-C118=1.4081     C118-C117=1.4081     C118-C121=1.4139     C118-C149=1.4182     C119-C88=1.4150      
C119-C120=1.4150     C119-C124=1.4115     C120-C115=1.4154     C120-C119=1.4150     C120-C121=1.4118     C121-C118=1.4139     
C121-C120=1.4118     C121-C122=1.4115     C122-C121=1.4115     C122-C125=1.4105     C122-C153=1.4192     C123-C92=1.4136      
C123-C124=1.4187     C123-C128=1.4138     C124-C119=1.4115     C124-C123=1.4187     C124-C125=1.4136     C125-C122=1.4105     
C125-C124=1.4136     C125-C126=1.4159     C126-C125=1.4159     C126-C129=1.4160     C126-C157=1.4075     C127-C96=1.4167      
C127-C128=1.4118     C127-C132=1.4241     C128-C123=1.4138     C128-C127=1.4118     C128-C129=1.4217     C129-C126=1.4160     
C129-C128=1.4217     C129-C130=1.4068     C130-C129=1.4068     C130-C133=1.4224     C130-C161=1.4194     C131-C100=1.4400     
C131-C132=1.4122     C131-C135=1.4003     C132-C127=1.4241     C132-C131=1.4122     C132-C133=1.4214     C133-C130=1.4224     
C133-C132=1.4214     C133-C134=1.4128     C134-C133=1.4128     C134-C136=1.3985     C134-C165=1.4482     C135-C131=1.4003     
C135-C136=1.3704     C135-H203=1.0776     C136-C134=1.3985     C136-C135=1.3704     C136-H204=1.0779     C137-C106=1.4441     
C137-C138=1.3954     C137-C142=1.4144     C138-C137=1.3954     C138-C139=1.3867     C138-H186=1.0772     C139-C138=1.3867     
C139-C140=1.3749     C139-H187=1.0803     C140-C139=1.3749     C140-C143=1.4023     C140-H188=1.0798     C141-C110=1.4231     
C141-C142=1.4126     C141-C146=1.4077     C142-C137=1.4144     C142-C141=1.4126     C142-C143=1.4207     C143-C140=1.4023     
C143-C142=1.4207     C143-C144=1.4112     C144-C143=1.4112     C144-C147=1.3718     C144-H189=1.0805     C145-C114=1.4081     
C145-C146=1.4110     C145-C150=1.4115     C146-C141=1.4077     C146-C145=1.4110     C146-C147=1.4242     C147-C144=1.3718     
C147-C146=1.4242     C147-N148=1.3736     N148-C147=1.3736     N148-C151=1.3731     N148-H190=1.0100     C149-C118=1.4182     
C149-C150=1.4059     C149-C154=1.4091     C150-C145=1.4115     C150-C149=1.4059     C150-C151=1.4201     C151-N148=1.3731     
C151-C150=1.4201     C151-C152=1.3767     C152-C151=1.3767     C152-C155=1.4102     C152-H191=1.0810     C153-C122=1.4192     
C153-C154=1.4125     C153-C158=1.4021     C154-C149=1.4091     C154-C153=1.4125     C154-C155=1.4204     C155-C152=1.4102     
C155-C154=1.4204     C155-C156=1.4060     C156-C155=1.4060     C156-C159=1.3805     C156-H192=1.0811     C157-C126=1.4075     
C157-C158=1.4175     C157-C162=1.4090     C158-C153=1.4021     C158-C157=1.4175     C158-C159=1.4192     C159-C156=1.3805     
C159-C158=1.4192     C159-N160=1.3690     N160-C159=1.3690     N160-C163=1.3773     N160-H193=1.0101     C161-C130=1.4194     
C161-C162=1.4069     C161-C166=1.4170     C162-C157=1.4090     C162-C161=1.4069     C162-C163=1.4250     C163-N160=1.3773     
C163-C162=1.4250     C163-C164=1.3689     C164-C163=1.3689     C164-C167=1.4143     C164-H194=1.0811     C165-C134=1.4482     
C165-C166=1.4160     C165-C169=1.3936     C166-C161=1.4170     C166-C165=1.4160     C166-C167=1.4205     C167-C164=1.4143     
C167-C166=1.4205     C167-C168=1.4010     C168-C167=1.4010     C168-C170=1.3751     C168-H195=1.0804     C169-C165=1.3936     
C169-C170=1.3868     C169-H205=1.0777     C170-C168=1.3751     C170-C169=1.3868     C170-H196=1.0807     H171-C1=1.0804       
H172-C2=1.0801       H173-C3=1.0771       H174-N5=1.0099       H175-C9=1.0810       H176-C13=1.0809      H177-C17=1.0791      
H178-C25=1.0791      H179-C29=1.0801      H180-C36=1.0778      H181-C37=1.0777      H182-C70=1.0771      H183-C71=1.0763      
H184-C104=1.0738     H185-C105=1.0754     H186-C138=1.0772     H187-C139=1.0803     H188-C140=1.0798     H189-C144=1.0805     
H190-N148=1.0100     H191-C152=1.0810     H192-C156=1.0811     H193-N160=1.0101     H194-C164=1.0811     H195-C168=1.0804     
H196-C170=1.0807     H197-C33=1.0809      H198-C34=1.0780      H199-C67=1.0781      H200-C68=1.0779      H201-C101=1.0776     
H202-C102=1.0776     H203-C135=1.0776     H204-C136=1.0779     H205-C169=1.0777     
 C  H  Rav=1.0788 sigma=0.0018  Rmin=1.0738  Rmax=1.0811    32
 C  C  Rav=1.4108 sigma=0.0141  Rmin=1.3623  Rmax=1.4489   226
 N  H  Rav=1.0100 sigma=0.0001  Rmin=1.0099  Rmax=1.0101     3
 N  C  Rav=1.3702 sigma=0.0160  Rmin=1.3384  Rmax=1.3905    11
 
 selected bond angles (degree)
 --------------------
C6-C1-C2=119.51                H171-C1-C2=120.65              H171-C1-C6=119.84              C3-C2-C1=121.08                
H172-C2-C1=119.28              H172-C2-C3=119.64              C4-C3-C2=121.05                H173-C3-C2=118.37              
H173-C3-C4=120.58              C7-C4-C3=118.14                C35-C4-C3=123.27               C35-C4-C7=118.59               
C10-N5-C6=124.16               H174-N5-C6=117.98              H174-N5-C10=117.85             N5-C6-C1=120.60                
C7-C6-C1=120.07                C7-C6-N5=119.33                C6-C7-C4=120.16                C8-C7-C4=120.81                
C8-C7-C6=119.03                C11-C8-C7=119.41               C39-C8-C7=120.24               C39-C8-C11=120.35              
C14-C9-C10=121.26              H175-C9-C10=120.00             H175-C9-C14=118.74             C9-C10-N5=121.60               
C11-C10-N5=117.39              C11-C10-C9=121.01              
 
 selected dihedral angles (degree)
 ---------------------------------
C3-C2-C1-C6=  0.00            C3-C2-C1-H171=180.01          H172-C2-C1-C6=180.02          H172-C2-C1-H171=  0.00        
C4-C3-C2-C1=  0.00            C4-C3-C2-H172=180.00          H173-C3-C2-C1=180.02          H173-C3-C2-H172=  0.00        
C7-C4-C3-C2=359.97            C7-C4-C3-H173=179.96          C35-C4-C3-C2=179.99           C35-C4-C3-H173=359.97         
N5-C6-C1-C2=179.99            N5-C6-C1-H171=  0.00          C7-C6-C1-C2=  0.00            C7-C6-C1-H171=180.00          
C1-C6-N5-C10=180.03           C1-C6-N5-H174=  0.00          C7-C6-N5-C10=  0.03           C7-C6-N5-H174=180.00          
C6-C7-C4-C3=  0.03            C6-C7-C4-C35=180.02           C8-C7-C4-C3=180.04            C8-C7-C4-C35=  0.03           
C4-C7-C6-C1=  0.00            C4-C7-C6-N5=179.99            C8-C7-C6-C1=179.98            C8-C7-C6-N5=  0.00            
C11-C8-C7-C4=179.99           C11-C8-C7-C6=  0.00           C39-C8-C7-C4=  0.00           C39-C8-C7-C6=180.02           
C9-C10-N5-C6=179.98           C9-C10-N5-H174=  0.00         C11-C10-N5-C6=  0.00          C11-C10-N5-H174=180.02        
N5-C10-C9-C14=180.02          N5-C10-C9-H175=  0.00         C11-C10-C9-C14=  0.00         C11-C10-C9-H175=180.00        
           -------------------------------------------------
          |                Final Singlepoint                |
           -------------------------------------------------

          ...................................................
          :                      SETUP                      :
          :.................................................:
          :  # basis functions                 715          :
          :  # atomic orbitals                 715          :
          :  # shells                          375          :
          :  # electrons                       720          :
          :  max. iterations                   250          :
          :  Hamiltonian                  GFN2-xTB          :
          :  restarted?                      false          :
          :  GBSA solvation                  false          :
          :  PC potential                    false          :
          :  electronic temp.          300.0000000     K    :
          :  accuracy                    1.0000000          :
          :  -> integral cutoff          0.2500000E+02      :
          :  -> integral neglect         0.1000000E-07      :
          :  -> SCF convergence          0.1000000E-05 Eh   :
          :  -> wf. convergence          0.1000000E-03 e    :
          :  Broyden damping             0.4000000          :
          :  net charge                          0          :
          :  unpaired electrons                  0          :
          ...................................................

 iter      E             dE          RMSdq      gap      omega  full diag
   1   -394.9108205 -0.394911E+03  0.636E-05    0.06       0.0  T
   2   -394.9108202  0.303668E-06  0.766E-04    0.06       9.1  T
   3   -394.9108205 -0.305282E-06  0.305E-05    0.06     229.3  T

   *** convergence criteria satisfied after 3 iterations ***

         #    Occupation            Energy/Eh            Energy/eV
      -------------------------------------------------------------
         1        2.0000           -0.7145390             -19.4436
       ...           ...                  ...                  ...
       354        2.0000           -0.3572428              -9.7211
       355        2.0000           -0.3561883              -9.6924
       356        2.0000           -0.3469298              -9.4404
       357        2.0000           -0.3408147              -9.2740
       358        2.0000           -0.3321584              -9.0385
       359        2.0000           -0.3315124              -9.0209
       360        1.5298           -0.3146089              -8.5609 (HOMO)
       361        0.4702           -0.3123672              -8.4999 (LUMO)
       362        0.0000           -0.3028588              -8.2412
       363                         -0.2944991              -8.0137
       364                         -0.2887529              -7.8574
       365                         -0.2798895              -7.6162
       ...                                ...                  ...
       715                          0.7978211              21.7098
      -------------------------------------------------------------
                  HL-Gap            0.0022417 Eh            0.0610 eV
             Fermi-level           -0.3134881 Eh           -8.5304 eV

 SCC (total)                   0 d,  0 h,  0 min,  1.158 sec
 SCC setup                      ...        0 min,  0.006 sec (  0.518%)
 Dispersion                     ...        0 min,  0.012 sec (  1.036%)
 classical contributions        ...        0 min,  0.001 sec (  0.086%)
 integral evaluation            ...        0 min,  0.078 sec (  6.736%)
 iterations                     ...        0 min,  0.583 sec ( 50.345%)
 molecular gradient             ...        0 min,  0.458 sec ( 39.551%)
 printout                       ...        0 min,  0.020 sec (  1.727%)

         :::::::::::::::::::::::::::::::::::::::::::::::::::::
         ::                     SUMMARY                     ::
         :::::::::::::::::::::::::::::::::::::::::::::::::::::
         :: total energy            -387.384262844722 Eh    ::
         :: gradient norm              0.000810261670 Eh/a0 ::
         :: HOMO-LUMO gap              0.060999904549 eV    ::
         ::.................................................::
         :: SCC energy              -394.928145061325 Eh    ::
         :: -> isotropic ES            0.032262708076 Eh    ::
         :: -> anisotropic ES          0.023724517105 Eh    ::
         :: -> anisotropic XC          0.128870377835 Eh    ::
         :: -> dispersion             -0.495345627057 Eh    ::
         :: repulsion energy           7.543882216603 Eh    ::
         :: add. restraining           0.000000000000 Eh    ::
         :: total charge              -0.000000000000 e     ::
         :::::::::::::::::::::::::::::::::::::::::::::::::::::

           -------------------------------------------------
          |                Property Printout                |
           -------------------------------------------------

    * Orbital Energies and Occupations

         #    Occupation            Energy/Eh            Energy/eV
      -------------------------------------------------------------
         1        2.0000           -0.7145390             -19.4436
       ...           ...                  ...                  ...
       348        2.0000           -0.3772602             -10.2658
       349        2.0000           -0.3770626             -10.2604
       350        2.0000           -0.3746794             -10.1955
       351        2.0000           -0.3742243             -10.1832
       352        2.0000           -0.3674086              -9.9977
       353        2.0000           -0.3586590              -9.7596
       354        2.0000           -0.3572428              -9.7211
       355        2.0000           -0.3561883              -9.6924
       356        2.0000           -0.3469298              -9.4404
       357        2.0000           -0.3408147              -9.2740
       358        2.0000           -0.3321584              -9.0385
       359        2.0000           -0.3315124              -9.0209
       360        1.5298           -0.3146089              -8.5609 (HOMO)
       361        0.4702           -0.3123672              -8.4999 (LUMO)
       362        0.0000           -0.3028588              -8.2412
       363                         -0.2944991              -8.0137
       364                         -0.2887529              -7.8574
       365                         -0.2798895              -7.6162
       366                         -0.2742088              -7.4616
       367                         -0.2684386              -7.3046
       368                         -0.2667604              -7.2589
       369                         -0.2611261              -7.1056
       370                         -0.2575953              -7.0095
       371                         -0.2550484              -6.9402
       ...                                ...                  ...
       715                          0.7978211              21.7098
      -------------------------------------------------------------
                  HL-Gap            0.0022417 Eh            0.0610 eV
             Fermi-level           -0.3134881 Eh           -8.5304 eV

     #   Z          covCN         q      C6AA      α(0)
     1   6 C        2.920    -0.067    29.656     8.930
     2   6 C        2.917    -0.029    28.727     8.789
     3   6 C        2.920    -0.050    29.245     8.868
     4   6 C        2.978     0.005    27.899     8.664
     5   7 N        2.706    -0.124    23.690     7.229
     6   6 C        2.917     0.068    26.472     8.437
     7   6 C        2.996    -0.009    28.223     8.715
     8   6 C        2.989     0.003    27.940     8.671
     9   6 C        2.920    -0.080    30.009     8.983
    10   6 C        2.909     0.063    26.585     8.455
    11   6 C        2.994    -0.007    28.184     8.709
    12   6 C        2.992    -0.000    28.029     8.685
    13   6 C        2.922    -0.051    29.270     8.872
    14   6 C        2.975     0.012    27.737     8.639
    15   6 C        2.995    -0.007    28.193     8.710
    16   6 C        2.990     0.001    28.002     8.680
    17   6 C        2.922    -0.060    29.481     8.904
    18   6 C        2.971     0.012    27.754     8.641
    19   6 C        2.996    -0.004    28.112     8.697
    20   6 C        2.991    -0.002    28.073     8.691
    21   7 N        1.847    -0.283    28.185     7.868
    22   6 C        2.941     0.092    25.956     8.356
    23   6 C        2.996    -0.010    28.252     8.719
    24   6 C        3.000     0.007    27.852     8.657
    25   6 C        2.925    -0.055    29.360     8.886
    26   6 C        2.942     0.091    25.968     8.358
    27   6 C        2.997    -0.012    28.292     8.725
    28   6 C        2.988    -0.002    28.070     8.691
    29   6 C        2.921    -0.036    28.903     8.816
    30   6 C        2.977     0.012    27.747     8.640
    31   6 C        2.996    -0.003    28.077     8.692
    32   6 C        2.974     0.005    27.908     8.666
    33   6 C        2.911    -0.031    28.778     8.797
    34   6 C        2.921    -0.038    28.953     8.824
    35   6 C        2.978     0.002    27.971     8.675
    36   6 C        2.918    -0.036    28.900     8.816
    37   6 C        2.918    -0.041    29.015     8.833
    38   6 C        2.979     0.002    27.969     8.675
    39   6 C        2.989    -0.007    28.191     8.710
    40   6 C        2.989     0.002    27.978     8.677
    41   6 C        2.989     0.003    27.960     8.674
    42   6 C        2.986    -0.000    28.032     8.685
    43   6 C        2.991    -0.001    28.050     8.688
    44   6 C        2.989    -0.001    28.053     8.688
    45   6 C        2.989    -0.001    28.034     8.685
    46   6 C        2.989    -0.000    28.026     8.684
    47   6 C        2.990     0.001    27.995     8.679
    48   6 C        2.990    -0.001    28.049     8.688
    49   6 C        2.990    -0.002    28.074     8.692
    50   6 C        2.991    -0.002    28.055     8.689
    51   6 C        2.993    -0.001    28.052     8.688
    52   6 C        2.992    -0.001    28.032     8.685
    53   6 C        2.991    -0.001    28.051     8.688
    54   6 C        2.991    -0.002    28.063     8.690
    55   6 C        2.994    -0.006    28.150     8.703
    56   6 C        2.993    -0.001    28.041     8.686
    57   6 C        2.991     0.001    28.006     8.681
    58   6 C        2.990    -0.000    28.031     8.685
    59   6 C        2.989     0.000    28.012     8.682
    60   6 C        2.990    -0.002    28.060     8.689
    61   6 C        2.990     0.000    28.018     8.683
    62   6 C        2.986    -0.001    28.056     8.689
    63   6 C        2.977     0.006    27.883     8.662
    64   6 C        2.990     0.001    27.996     8.679
    65   6 C        2.990     0.000    28.012     8.682
    66   6 C        2.978     0.003    27.954     8.673
    67   6 C        2.918    -0.037    28.919     8.819
    68   6 C        2.918    -0.037    28.919     8.818
    69   6 C        2.979     0.005    27.912     8.666
    70   6 C        2.919    -0.035    28.874     8.812
    71   6 C        2.918    -0.043    29.078     8.843
    72   6 C        2.983    -0.010    28.253     8.719
    73   6 C        2.987    -0.003    28.082     8.693
    74   6 C        2.991     0.001    27.985     8.678
    75   6 C        2.994     0.007    27.857     8.658
    76   6 C        2.986    -0.011    28.274     8.722
    77   6 C        2.989    -0.000    28.021     8.683
    78   6 C        2.987    -0.003    28.090     8.694
    79   6 C        2.988    -0.002    28.066     8.690
    80   6 C        2.990    -0.001    28.045     8.687
    81   6 C        2.990     0.000    28.017     8.683
    82   6 C        2.990    -0.002    28.057     8.689
    83   6 C        2.990    -0.001    28.044     8.687
    84   6 C        2.991    -0.002    28.063     8.690
    85   6 C        2.991    -0.001    28.036     8.686
    86   6 C        2.991    -0.000    28.023     8.684
    87   6 C        2.991    -0.000    28.030     8.685
    88   6 C        2.990    -0.002    28.072     8.691
    89   6 C        2.989    -0.001    28.045     8.687
    90   6 C        2.989    -0.001    28.054     8.688
    91   6 C        2.989     0.000    28.010     8.682
    92   6 C        2.989    -0.001    28.044     8.687
    93   6 C        2.986     0.000    28.019     8.683
    94   6 C        2.987    -0.002    28.069     8.691
    95   6 C        2.987    -0.000    28.028     8.684
    96   6 C        2.986    -0.002    28.060     8.689
    97   6 C        2.979     0.005    27.907     8.665
    98   6 C        2.990     0.001    27.999     8.680
    99   6 C        2.990     0.001    28.001     8.680
   100   6 C        2.979     0.003    27.953     8.673
   101   6 C        2.919    -0.038    28.935     8.821
   102   6 C        2.919    -0.037    28.918     8.818
   103   6 C        2.931     0.051    26.853     8.498
   104   6 C        2.920    -0.051    29.268     8.872
   105   6 C        2.919    -0.029    28.732     8.790
   106   6 C        2.982    -0.006    28.163     8.705
   107   6 C        2.932     0.043    27.029     8.526
   108   7 N        2.752     0.041    20.522     6.728
   109   6 C        2.935     0.053    26.801     8.490
   110   6 C        2.988    -0.016    28.404     8.742
   111   6 C        2.990    -0.000    28.028     8.684
   112   6 C        2.988    -0.012    28.312     8.728
   113   6 C        2.993     0.005    27.907     8.666
   114   6 C        2.994    -0.005    28.147     8.703
   115   6 C        2.991     0.000    28.008     8.681
   116   6 C        2.991    -0.004    28.110     8.697
   117   6 C        2.992     0.000    28.009     8.681
   118   6 C        2.992    -0.003    28.098     8.695
   119   6 C        2.991    -0.000    28.028     8.684
   120   6 C        2.991    -0.002    28.058     8.689
   121   6 C        2.992     0.001    28.005     8.681
   122   6 C        2.992    -0.003    28.096     8.695
   123   6 C        2.989    -0.000    28.026     8.684
   124   6 C        2.990    -0.002    28.077     8.692
   125   6 C        2.991     0.001    27.987     8.678
   126   6 C        2.992    -0.005    28.126     8.700
   127   6 C        2.986    -0.000    28.023     8.683
   128   6 C        2.988    -0.002    28.070     8.691
   129   6 C        2.989    -0.000    28.031     8.685
   130   6 C        2.988    -0.003    28.102     8.696
   131   6 C        2.979     0.004    27.920     8.667
   132   6 C        2.990     0.001    28.008     8.681
   133   6 C        2.990     0.001    27.996     8.679
   134   6 C        2.978     0.003    27.963     8.674
   135   6 C        2.919    -0.038    28.954     8.824
   136   6 C        2.919    -0.037    28.908     8.817
   137   6 C        2.978     0.002    27.968     8.675
   138   6 C        2.921    -0.046    29.147     8.853
   139   6 C        2.914    -0.029    28.728     8.789
   140   6 C        2.921    -0.044    29.090     8.845
   141   6 C        2.989    -0.001    28.034     8.685
   142   6 C        2.997    -0.005    28.127     8.700
   143   6 C        2.983     0.015    27.664     8.628
   144   6 C        2.921    -0.083    30.080     8.994
   145   6 C        2.993     0.008    27.826     8.653
   146   6 C        2.996    -0.011    28.275     8.723
   147   6 C        2.910     0.066    26.516     8.444
   148   7 N        2.705    -0.122    23.644     7.222
   149   6 C        2.993     0.003    27.948     8.672
   150   6 C        2.996    -0.015    28.372     8.738
   151   6 C        2.910     0.066    26.512     8.443
   152   6 C        2.920    -0.082    30.044     8.989
   153   6 C        2.993     0.001    27.992     8.679
   154   6 C        2.996    -0.013    28.326     8.731
   155   6 C        2.979     0.017    27.623     8.621
   156   6 C        2.920    -0.082    30.064     8.992
   157   6 C        2.993     0.004    27.919     8.668
   158   6 C        2.996    -0.013    28.330     8.731
   159   6 C        2.910     0.069    26.458     8.434
   160   7 N        2.705    -0.122    23.646     7.222
   161   6 C        2.989     0.000    28.011     8.682
   162   6 C        2.995    -0.009    28.230     8.716
   163   6 C        2.910     0.064    26.577     8.453
   164   6 C        2.921    -0.080    30.011     8.984
   165   6 C        2.976     0.006    27.884     8.662
   166   6 C        2.995    -0.004    28.121     8.699
   167   6 C        2.983     0.013    27.718     8.636
   168   6 C        2.921    -0.043    29.075     8.843
   169   6 C        2.921    -0.042    29.048     8.838
   170   6 C        2.913    -0.031    28.763     8.794
   171   1 H        0.926     0.023     2.685     2.562
   172   1 H        0.926     0.030     2.580     2.512
   173   1 H        0.926     0.031     2.578     2.511
   174   1 H        0.860     0.165     1.306     1.790
   175   1 H        0.926     0.021     2.716     2.577
   176   1 H        0.926     0.028     2.609     2.526
   177   1 H        0.926     0.042     2.425     2.435
   178   1 H        0.926     0.044     2.394     2.419
   179   1 H        0.926     0.031     2.568     2.506
   180   1 H        0.926     0.033     2.546     2.495
   181   1 H        0.926     0.029     2.593     2.518
   182   1 H        0.926     0.038     2.474     2.460
   183   1 H        0.926     0.032     2.556     2.500
   184   1 H        0.926     0.053     2.278     2.360
   185   1 H        0.926     0.050     2.324     2.384
   186   1 H        0.926     0.028     2.613     2.528
   187   1 H        0.926     0.030     2.585     2.514
   188   1 H        0.926     0.030     2.591     2.517
   189   1 H        0.926     0.024     2.678     2.559
   190   1 H        0.860     0.166     1.298     1.785
   191   1 H        0.926     0.021     2.717     2.578
   192   1 H        0.926     0.020     2.730     2.584
   193   1 H        0.860     0.164     1.310     1.793
   194   1 H        0.926     0.020     2.732     2.585
   195   1 H        0.926     0.025     2.657     2.549
   196   1 H        0.926     0.026     2.641     2.542
   197   1 H        0.926     0.026     2.641     2.541
   198   1 H        0.926     0.028     2.612     2.527
   199   1 H        0.926     0.032     2.560     2.502
   200   1 H        0.926     0.031     2.571     2.507
   201   1 H        0.926     0.032     2.556     2.500
   202   1 H        0.926     0.032     2.560     2.502
   203   1 H        0.926     0.032     2.560     2.502
   204   1 H        0.926     0.032     2.558     2.501
   205   1 H        0.926     0.029     2.602     2.523

 Mol. C6AA /au·bohr⁶  :     911142.576869
 Mol. C8AA /au·bohr⁸  :   25128125.319571
 Mol. α(0) /au        :       1557.965575


Wiberg/Mayer (AO) data.
largest (>0.10) Wiberg bond orders for each atom

 ---------------------------------------------------------------------------
     #   Z sym  total        # sym  WBO       # sym  WBO       # sym  WBO
 ---------------------------------------------------------------------------
     1   6 C    3.959 --     2 C    1.409     6 C    1.374   171 H    0.968
     2   6 C    3.977 --     3 C    1.471     1 C    1.409   172 H    0.971
     3   6 C    3.960 --     2 C    1.471     4 C    1.337   173 H    0.963
     4   6 C    3.972 --     3 C    1.337     7 C    1.293    35 C    1.148
     5   7 N    3.491 --     6 C    1.156    10 C    1.130   174 H    0.938
     6   6 C    3.961 --     1 C    1.374     7 C    1.255     5 N    1.156
     7   6 C    3.972 --     4 C    1.293     6 C    1.255     8 C    1.187
     8   6 C    3.954 --    11 C    1.279    39 C    1.277     7 C    1.187
     9   6 C    3.915 --    10 C    1.481    14 C    1.235   175 H    0.965
    10   6 C    3.948 --     9 C    1.481    11 C    1.181     5 N    1.130
    11   6 C    3.938 --     8 C    1.279    12 C    1.260    10 C    1.181
    12   6 C    3.971 --    15 C    1.267    11 C    1.260    43 C    1.229
    13   6 C    3.842 --    14 C    1.387    18 C    1.299   176 H    0.967
    14   6 C    3.975 --    13 C    1.387     9 C    1.235    15 C    1.198
    15   6 C    3.936 --    12 C    1.267    16 C    1.259    14 C    1.198
    16   6 C    3.975 --    19 C    1.277    15 C    1.259    47 C    1.221
    17   6 C    3.798 --    18 C    1.339    22 C    1.316   177 H    0.967
    18   6 C    3.978 --    17 C    1.339    13 C    1.299    19 C    1.187
    19   6 C    3.935 --    16 C    1.277    20 C    1.257    18 C    1.187
    20   6 C    3.973 --    23 C    1.277    19 C    1.257    51 C    1.223
    21   7 N    2.871 --    22 C    1.332    26 C    1.327
    22   6 C    3.968 --    21 N    1.332    17 C    1.316    23 C    1.163
    23   6 C    3.928 --    20 C    1.277    24 C    1.265    22 C    1.163
    24   6 C    3.972 --    27 C    1.266    23 C    1.265    55 C    1.230
    25   6 C    3.793 --    30 C    1.328    26 C    1.324   178 H    0.967
    26   6 C    3.973 --    21 N    1.327    25 C    1.324    27 C    1.162
    27   6 C    3.946 --    28 C    1.283    24 C    1.266    26 C    1.162
    28   6 C    3.974 --    27 C    1.283    31 C    1.243    59 C    1.229
    29   6 C    3.895 --    33 C    1.496    30 C    1.278   179 H    0.969
    30   6 C    3.984 --    25 C    1.328    29 C    1.278    31 C    1.216
    31   6 C    3.949 --    32 C    1.272    28 C    1.243    30 C    1.216
    32   6 C    3.978 --    34 C    1.377    31 C    1.272    63 C    1.138
    33   6 C    3.982 --    29 C    1.496    34 C    1.393   197 H    0.970
    34   6 C    3.889 --    33 C    1.393    32 C    1.377   198 H    0.963
    35   6 C    3.951 --    36 C    1.319    40 C    1.287     4 C    1.148
    36   6 C    3.963 --    37 C    1.517    35 C    1.319   180 H    0.961
    37   6 C    3.952 --    36 C    1.517    38 C    1.309   181 H    0.961
    38   6 C    3.957 --    37 C    1.309    41 C    1.280    69 C    1.173
    39   6 C    3.963 --     8 C    1.277    44 C    1.245    40 C    1.215
    40   6 C    3.980 --    35 C    1.287    41 C    1.253    39 C    1.215
    41   6 C    3.973 --    38 C    1.280    40 C    1.253    42 C    1.218
    42   6 C    3.955 --    45 C    1.262    73 C    1.261    41 C    1.218
    43   6 C    3.960 --    44 C    1.271    48 C    1.241    12 C    1.229
    44   6 C    3.965 --    43 C    1.271    39 C    1.245    45 C    1.229
    45   6 C    3.951 --    42 C    1.262    46 C    1.250    44 C    1.229
    46   6 C    3.963 --    45 C    1.250    77 C    1.248    49 C    1.248
    47   6 C    3.948 --    48 C    1.265    52 C    1.252    16 C    1.221
    48   6 C    3.964 --    47 C    1.265    49 C    1.241    43 C    1.241
    49   6 C    3.954 --    50 C    1.252    46 C    1.248    48 C    1.241
    50   6 C    3.961 --    53 C    1.253    49 C    1.252    81 C    1.241
    51   6 C    3.951 --    56 C    1.259    52 C    1.256    20 C    1.223
    52   6 C    3.967 --    51 C    1.256    47 C    1.252    53 C    1.241
    53   6 C    3.954 --    50 C    1.253    54 C    1.247    52 C    1.241
    54   6 C    3.961 --    57 C    1.261    53 C    1.247    85 C    1.237
    55   6 C    3.950 --    60 C    1.254    56 C    1.252    24 C    1.230
    56   6 C    3.966 --    51 C    1.259    55 C    1.252    57 C    1.237
    57   6 C    3.950 --    54 C    1.261    58 C    1.241    56 C    1.237
    58   6 C    3.964 --    61 C    1.255    89 C    1.250    57 C    1.241
    59   6 C    3.936 --    60 C    1.276    28 C    1.229    64 C    1.226
    60   6 C    3.968 --    59 C    1.276    55 C    1.254    61 C    1.219
    61   6 C    3.957 --    62 C    1.269    58 C    1.255    60 C    1.219
    62   6 C    3.961 --    61 C    1.269    93 C    1.254    65 C    1.220
    63   6 C    3.946 --    67 C    1.336    64 C    1.282    32 C    1.138
    64   6 C    3.981 --    63 C    1.282    65 C    1.249    59 C    1.226
    65   6 C    3.976 --    66 C    1.283    64 C    1.249    62 C    1.220
    66   6 C    3.964 --    68 C    1.326    65 C    1.283    97 C    1.156
    67   6 C    3.969 --    68 C    1.498    63 C    1.336   199 H    0.962
    68   6 C    3.951 --    67 C    1.498    66 C    1.326   200 H    0.961
    69   6 C    3.936 --    70 C    1.305    74 C    1.269    38 C    1.173
    70   6 C    3.954 --    71 C    1.529    69 C    1.305   182 H    0.960
    71   6 C    3.942 --    70 C    1.529    72 C    1.289   183 H    0.959
    72   6 C    3.947 --    71 C    1.289    75 C    1.263   103 C    1.193
    73   6 C    3.956 --    42 C    1.261    78 C    1.254    74 C    1.224
[...]
    19   6 C       20   6 C                                       1.4089911
    17   6 C       22   6 C                                       1.4013948
    21   7 N       22   6 C                                       1.3384422
    20   6 C       23   6 C                                       1.4036755
    22   6 C       23   6 C                                       1.4344268
    23   6 C       24   6 C                                       1.4062291
    21   7 N       26   6 C                                       1.3397213
    25   6 C       26   6 C                                       1.3975457
    24   6 C       27   6 C                                       1.4050590
    26   6 C       27   6 C                                       1.4349560 (max)
    27   6 C       28   6 C                                       1.4054068
    25   6 C       30   6 C                                       1.4005654
    29   6 C       30   6 C                                       1.4093587
    28   6 C       31   6 C                                       1.4138837
    30   6 C       31   6 C                                       1.4271530
    31   6 C       32   6 C                                       1.4147068
    29   6 C       33   6 C                                       1.3725136
    32   6 C       34   6 C                                       1.3948680
    33   6 C       34   6 C                                       1.3901083
    35   6 C       36   6 C                                       1.4012437
    36   6 C       37   6 C                                       1.3678757
    37   6 C       38   6 C                                       1.4037017
     8   6 C       39   6 C                                       1.4073744
    35   6 C       40   6 C                                       1.4136179
    39   6 C       40   6 C                                       1.4223210
    38   6 C       41   6 C                                       1.4126773
    40   6 C       41   6 C                                       1.4209892
    41   6 C       42   6 C                                       1.4249476
    12   6 C       43   6 C                                       1.4183445
    39   6 C       44   6 C                                       1.4150293
    43   6 C       44   6 C                                       1.4101894
    42   6 C       45   6 C                                       1.4127788
    44   6 C       45   6 C                                       1.4186331
    45   6 C       46   6 C                                       1.4151470
    16   6 C       47   6 C                                       1.4211420
    43   6 C       48   6 C                                       1.4148826
    47   6 C       48   6 C                                       1.4108895
    46   6 C       49   6 C                                       1.4154022
    48   6 C       49   6 C                                       1.4157060
    49   6 C       50   6 C                                       1.4134311
    20   6 C       51   6 C                                       1.4187478
    47   6 C       52   6 C                                       1.4130829
    51   6 C       52   6 C                                       1.4107156
    50   6 C       53   6 C                                       1.4127769
    52   6 C       53   6 C                                       1.4148374
    53   6 C       54   6 C                                       1.4147484
    24   6 C       55   6 C                                       1.4123909
    51   6 C       56   6 C                                       1.4111775
    55   6 C       56   6 C                                       1.4098225
    54   6 C       57   6 C                                       1.4104938
    56   6 C       57   6 C                                       1.4140742
    57   6 C       58   6 C                                       1.4165898
    28   6 C       59   6 C                                       1.4201838
    55   6 C       60   6 C                                       1.4107440
    59   6 C       60   6 C                                       1.4090587
    58   6 C       61   6 C                                       1.4141254
    60   6 C       61   6 C                                       1.4199989
    61   6 C       62   6 C                                       1.4106157
    59   6 C       64   6 C                                       1.4198482
    63   6 C       64   6 C                                       1.4146436
    62   6 C       65   6 C                                       1.4239966
    64   6 C       65   6 C                                       1.4225364
    65   6 C       66   6 C                                       1.4114232
    63   6 C       67   6 C                                       1.3987759
    66   6 C       68   6 C                                       1.4009693
    67   6 C       68   6 C                                       1.3711565
    38   6 C       69   6 C                                       1.4349309
    69   6 C       70   6 C                                       1.4033331
    70   6 C       71   6 C                                       1.3659131
    71   6 C       72   6 C                                       1.4072242
    42   6 C       73   6 C                                       1.4145971
    69   6 C       74   6 C                                       1.4138731
    73   6 C       74   6 C                                       1.4196310
    72   6 C       75   6 C                                       1.4099529
    74   6 C       75   6 C                                       1.4157537
    75   6 C       76   6 C                                       1.4186536
    46   6 C       77   6 C                                       1.4154407
    73   6 C       78   6 C                                       1.4145242
    77   6 C       78   6 C                                       1.4152846
    76   6 C       79   6 C                                       1.4159933
    78   6 C       79   6 C                                       1.4202623
    79   6 C       80   6 C                                       1.4146860
    50   6 C       81   6 C                                       1.4144295
    77   6 C       82   6 C                                       1.4160759
    81   6 C       82   6 C                                       1.4128275
    80   6 C       83   6 C                                       1.4152208
    82   6 C       83   6 C                                       1.4139888
    83   6 C       84   6 C                                       1.4136047
    54   6 C       85   6 C                                       1.4148164
    81   6 C       86   6 C                                       1.4160706
    85   6 C       86   6 C                                       1.4137833
    84   6 C       87   6 C                                       1.4151973
    86   6 C       87   6 C                                       1.4120040
    87   6 C       88   6 C                                       1.4144654
    58   6 C       89   6 C                                       1.4138778
    85   6 C       90   6 C                                       1.4137765
    89   6 C       90   6 C                                       1.4171246
    88   6 C       91   6 C                                       1.4132007
    90   6 C       91   6 C                                       1.4133914
    91   6 C       92   6 C                                       1.4179533
    62   6 C       93   6 C                                       1.4165245
    89   6 C       94   6 C                                       1.4142626
    93   6 C       94   6 C                                       1.4132947
    92   6 C       95   6 C                                       1.4151914
    94   6 C       95   6 C                                       1.4217552
    95   6 C       96   6 C                                       1.4125726
    93   6 C       98   6 C                                       1.4223382
    97   6 C       98   6 C                                       1.4128378
    96   6 C       99   6 C                                       1.4233781
    98   6 C       99   6 C                                       1.4210971
    99   6 C      100   6 C                                       1.4117041
    97   6 C      101   6 C                                       1.4009031
   100   6 C      102   6 C                                       1.4010739
   101   6 C      102   6 C                                       1.3681634
    72   6 C      103   6 C                                       1.4286358
   103   6 C      104   6 C                                       1.4012859
   104   6 C      105   6 C                                       1.3622560
   105   6 C      106   6 C                                       1.4010090
    76   6 C      107   6 C                                       1.4175358
   103   6 C      108   7 N                                       1.3797868
   107   6 C      108   7 N                                       1.3866152
   106   6 C      109   6 C                                       1.4148498
   108   7 N      109   6 C                                       1.3905088
   109   6 C      110   6 C                                       1.4159176
    80   6 C      111   6 C                                       1.4111727
   107   6 C      112   6 C                                       1.4129091
   111   6 C      112   6 C                                       1.4181662
   110   6 C      113   6 C                                       1.4087347
   112   6 C      113   6 C                                       1.4144856
   113   6 C      114   6 C                                       1.4103053
    84   6 C      115   6 C                                       1.4125024
   111   6 C      116   6 C                                       1.4166520
   115   6 C      116   6 C                                       1.4134776
   114   6 C      117   6 C                                       1.4152624
   116   6 C      117   6 C                                       1.4130125
   117   6 C      118   6 C                                       1.4080950
    88   6 C      119   6 C                                       1.4149566
   115   6 C      120   6 C                                       1.4153665
   119   6 C      120   6 C                                       1.4150127
   118   6 C      121   6 C                                       1.4139047
   120   6 C      121   6 C                                       1.4117965
   121   6 C      122   6 C                                       1.4114763
    92   6 C      123   6 C                                       1.4136327
   119   6 C      124   6 C                                       1.4114582
   123   6 C      124   6 C                                       1.4187053
   122   6 C      125   6 C                                       1.4105005
   124   6 C      125   6 C                                       1.4136089
   125   6 C      126   6 C                                       1.4158522
    96   6 C      127   6 C                                       1.4166811
   123   6 C      128   6 C                                       1.4137501
   127   6 C      128   6 C                                       1.4118172
   126   6 C      129   6 C                                       1.4159729
   128   6 C      129   6 C                                       1.4216999
   129   6 C      130   6 C                                       1.4067847
   127   6 C      132   6 C                                       1.4241127
   131   6 C      132   6 C                                       1.4121535
   130   6 C      133   6 C                                       1.4224368
   132   6 C      133   6 C                                       1.4214132
   133   6 C      134   6 C                                       1.4128388
   131   6 C      135   6 C                                       1.4003289
   134   6 C      136   6 C                                       1.3985408
   135   6 C      136   6 C                                       1.3703893
   137   6 C      138   6 C                                       1.3954018
   138   6 C      139   6 C                                       1.3867357
   139   6 C      140   6 C                                       1.3748965
   110   6 C      141   6 C                                       1.4231437
   137   6 C      142   6 C                                       1.4143828
   141   6 C      142   6 C                                       1.4126153
   140   6 C      143   6 C                                       1.4022868
   142   6 C      143   6 C                                       1.4206943
   143   6 C      144   6 C                                       1.4111579
   114   6 C      145   6 C                                       1.4081310
   141   6 C      146   6 C                                       1.4076658
   145   6 C      146   6 C                                       1.4109977
   144   6 C      147   6 C                                       1.3717650
   146   6 C      147   6 C                                       1.4241660
   147   6 C      148   7 N                                       1.3736022
   118   6 C      149   6 C                                       1.4182003
   145   6 C      150   6 C                                       1.4115419
   149   6 C      150   6 C                                       1.4059446
   148   7 N      151   6 C                                       1.3730944
   150   6 C      151   6 C                                       1.4201439
   151   6 C      152   6 C                                       1.3767054
   122   6 C      153   6 C                                       1.4192483
   149   6 C      154   6 C                                       1.4090976
   153   6 C      154   6 C                                       1.4124656
   152   6 C      155   6 C                                       1.4101829
   154   6 C      155   6 C                                       1.4204342
   155   6 C      156   6 C                                       1.4060029
   126   6 C      157   6 C                                       1.4074602
   153   6 C      158   6 C                                       1.4020913
   157   6 C      158   6 C                                       1.4174545
   156   6 C      159   6 C                                       1.3804996
   158   6 C      159   6 C                                       1.4191635
   159   6 C      160   7 N                                       1.3690285
   130   6 C      161   6 C                                       1.4194450
   157   6 C      162   6 C                                       1.4090060
   161   6 C      162   6 C                                       1.4069300
   160   7 N      163   6 C                                       1.3772802
   162   6 C      163   6 C                                       1.4250183
   163   6 C      164   6 C                                       1.3688747
   161   6 C      166   6 C                                       1.4170337
   165   6 C      166   6 C                                       1.4160340
   164   6 C      167   6 C                                       1.4142602
   166   6 C      167   6 C                                       1.4204633
   167   6 C      168   6 C                                       1.4010228
   165   6 C      169   6 C                                       1.3936049
   168   6 C      170   6 C                                       1.3750965
   169   6 C      170   6 C                                       1.3868295
     1   6 C      171   1 H                                       1.0803664
     2   6 C      172   1 H                                       1.0800821
     3   6 C      173   1 H                                       1.0771091
     5   7 N      174   1 H                                       1.0098953 (min)
     9   6 C      175   1 H                                       1.0810121
    13   6 C      176   1 H                                       1.0808736
    17   6 C      177   1 H                                       1.0790909
    25   6 C      178   1 H                                       1.0791156
    29   6 C      179   1 H                                       1.0801317
    36   6 C      180   1 H                                       1.0777836
    37   6 C      181   1 H                                       1.0776679
    70   6 C      182   1 H                                       1.0771454
    71   6 C      183   1 H                                       1.0763109
   104   6 C      184   1 H                                       1.0738175
   105   6 C      185   1 H                                       1.0753962
   138   6 C      186   1 H                                       1.0771747
   139   6 C      187   1 H                                       1.0803292
   140   6 C      188   1 H                                       1.0798212
   144   6 C      189   1 H                                       1.0804952
   148   7 N      190   1 H                                       1.0100109
   152   6 C      191   1 H                                       1.0810107
   156   6 C      192   1 H                                       1.0811291
   160   7 N      193   1 H                                       1.0101116
   164   6 C      194   1 H                                       1.0811054
   168   6 C      195   1 H                                       1.0804055
   170   6 C      196   1 H                                       1.0806806
    33   6 C      197   1 H                                       1.0808993
    34   6 C      198   1 H                                       1.0779944
    67   6 C      199   1 H                                       1.0780815
    68   6 C      200   1 H                                       1.0778866
   101   6 C      201   1 H                                       1.0776195
   102   6 C      202   1 H                                       1.0776242
   135   6 C      203   1 H                                       1.0776456
   136   6 C      204   1 H                                       1.0779110
   169   6 C      205   1 H                                       1.0777077

 * 4 distinct bonds (by element types)

   Z      Z             #   av. dist./Å        max./Å        min./Å
   1 H    6 C          32     1.0787945     1.0811291     1.0738175
   6 C    6 C         220     1.4099046     1.4349560     1.3622560
   1 H    7 N           3     1.0100059     1.0101116     1.0098953
   6 C    7 N          11     1.3702479     1.3905088     1.3384422


optimized geometry written to: xtbopt.xyz


           -------------------------------------------------
          | TOTAL ENERGY             -387.384262844722 Eh   |
          | GRADIENT NORM               0.000810261670 Eh/α |
          | HOMO-LUMO GAP               0.060999904549 eV   |
           -------------------------------------------------

------------------------------------------------------------------------
 * finished run on 2025/12/08 at 00:47:27.729     
------------------------------------------------------------------------
 total:
 * wall-time:     0 d,  0 h,  0 min, 22.716 sec
 *  cpu-time:     0 d,  0 h,  1 min, 28.688 sec
 * ratio c/w:     3.904 speedup
 SCF:
 * wall-time:     0 d,  0 h,  0 min,  5.411 sec
 *  cpu-time:     0 d,  0 h,  0 min, 21.391 sec
 * ratio c/w:     3.953 speedup
 ANC optimizer:
 * wall-time:     0 d,  0 h,  0 min, 17.124 sec
 *  cpu-time:     0 d,  0 h,  1 min,  6.688 sec
 * ratio c/w:     3.894 speedup

normal termination of xtb
