205
 energy: -387.358397420370 gnorm: 0.062844658323 xtb: 6.7.1pre (5071a88)
C          -10.28654200000000       -8.20553300000000       -0.01298000000000
C           -9.65072500000000       -9.44966200000000       -0.01540900000000
C           -8.26628000000000       -9.55334300000000       -0.01441300000000
C           -7.46053000000000       -8.39425700000000       -0.01102800000000
N          -10.11074200000000       -5.79628800000000       -0.00778600000000
C           -9.51451600000000       -7.04274900000000       -0.01003700000000
C           -8.09494900000000       -7.12515700000000       -0.00889300000000
C           -7.32361100000000       -5.90997100000000       -0.00637500000000
C          -10.07850100000000       -3.38290700000000       -0.00329400000000
C           -9.42393300000000       -4.59378900000000       -0.00534000000000
C           -7.98602600000000       -4.66141500000000       -0.00491700000000
C           -7.24579000000000       -3.45056200000000       -0.00164400000000
C           -9.99491300000000       -0.90723200000000        0.00031800000000
C           -9.35606700000000       -2.14996100000000       -0.00146200000000
C           -7.91718800000000       -2.20049100000000       -0.00186000000000
C           -7.17205100000000       -0.99336300000000        0.00220000000000
C           -9.91767900000000        1.57250200000000        0.00223200000000
C           -9.28067900000000        0.31580800000000        0.00124400000000
C           -7.83969300000000        0.25454800000000        0.00048000000000
C           -7.09221100000000        1.46241500000000        0.00363800000000
N           -9.86740900000000        3.96929100000000        0.00251900000000
C           -9.20531200000000        2.78787400000000        0.00261500000000
C           -7.75848100000000        2.70959200000000        0.00201800000000
C           -7.00735200000000        3.91182000000000        0.00353900000000
C           -9.80600700000000        6.36240100000000        0.00219500000000
C           -9.14908600000000        5.12507500000000        0.00243100000000
C           -7.69956500000000        5.14793100000000        0.00258700000000
C           -6.97390900000000        6.36494700000000        0.00264600000000
C           -9.79258200000000        8.83656500000000        0.00110000000000
C           -9.11115900000000        7.59109500000000        0.00170600000000
C           -7.67132600000000        7.60819100000000        0.00211400000000
C           -6.95777800000000        8.84391000000000        0.00159500000000
C           -9.08919100000000       10.02760200000000        0.00061100000000
C           -7.68688600000000       10.04216000000000        0.00095100000000
C           -6.00104500000000       -8.44126300000000       -0.00937400000000
C           -5.29966000000000       -9.66442400000000       -0.00865500000000
C           -3.92322000000000       -9.71174100000000       -0.00892000000000
C           -3.14329000000000       -8.53543400000000       -0.01050200000000
C           -5.90785600000000       -5.96537300000000       -0.00612700000000
C           -5.24425200000000       -7.23687000000000       -0.00762700000000
C           -3.81248000000000       -7.28255300000000       -0.00737300000000
C           -3.05436900000000       -6.06105600000000       -0.00292600000000
C           -5.81824500000000       -3.50546800000000       -0.00372800000000
C           -5.15407000000000       -4.75823900000000       -0.00194000000000
C           -3.72239500000000       -4.80708400000000       -0.00336200000000
C           -2.97069000000000       -3.59785900000000        0.00378200000000
C           -5.73875100000000       -1.04187900000000       -0.00201000000000
C           -5.06710500000000       -2.29246300000000        0.00348400000000
C           -3.64225900000000       -2.33823800000000       -0.00217500000000
C           -2.89479800000000       -1.12988100000000        0.00739300000000
C           -5.66141700000000        1.42177400000000       -0.00021300000000
C           -4.98839900000000        0.16778600000000        0.00601900000000
C           -3.56479000000000        0.12447700000000       -0.00146800000000
C           -2.81689300000000        1.33859800000000        0.00797700000000
C           -5.58671600000000        3.87951000000000        0.00147200000000
C           -4.91380900000000        2.62794500000000        0.00606800000000
C           -3.48753300000000        2.58809400000000       -0.00015600000000
C           -2.74248300000000        3.80682700000000        0.00649900000000
C           -5.53985200000000        6.33544700000000        0.00242800000000
C           -4.85309000000000        5.09868400000000        0.00444100000000
C           -3.41935300000000        5.06086900000000        0.00166800000000
C           -2.67877200000000        6.27031600000000        0.00428500000000
C           -5.49405400000000        8.80933100000000        0.00216900000000
C           -4.80316400000000        7.56387200000000        0.00278300000000
C           -3.36923700000000        7.52915800000000        0.00302100000000
C           -2.62803900000000        8.74101300000000        0.00310200000000
C           -4.72253500000000        9.98635400000000        0.00183200000000
C           -3.34274400000000        9.95520800000000        0.00249900000000
C           -1.69371000000000       -8.57495400000000       -0.01265300000000
C           -0.97755500000000       -9.79088300000000       -0.02897000000000
C            0.39680400000000       -9.82510800000000       -0.02129000000000
C            1.15570700000000       -8.63433300000000        0.00354900000000
C           -1.63124600000000       -6.10122100000000       -0.00039500000000
C           -0.95392000000000       -7.36250300000000       -0.00262700000000
C            0.47245800000000       -7.40031500000000        0.00425900000000
C            1.23388800000000       -6.19273300000000        0.00866600000000
C           -1.54645900000000       -3.64307700000000        0.00091000000000
C           -0.87636700000000       -4.89773500000000        0.00490200000000
C            0.55858400000000       -4.94105600000000        0.00582100000000
C            1.29987800000000       -3.72915300000000        0.00649200000000
C           -1.46776700000000       -1.17435100000000       -0.00044400000000
C           -0.79804600000000       -2.42688300000000        0.00733900000000
C            0.62527300000000       -2.46940100000000        0.00187100000000
C            1.37059600000000       -1.26132100000000        0.00662100000000
C           -1.39071100000000        1.29751600000000       -0.00074200000000
C           -0.71976900000000        0.03945900000000        0.00804100000000
C            0.70091200000000       -0.00362500000000       -0.00073400000000
C            1.44827600000000        1.21068000000000        0.00644400000000
C           -1.31947100000000        3.76640300000000        0.00040100000000
C           -0.64551000000000        2.50734700000000        0.00741700000000
C            0.78008800000000        2.46354400000000       -0.00096700000000
C            1.53137800000000        3.67957200000000        0.00484300000000
C           -1.25084300000000        6.22874100000000        0.00245200000000
C           -0.57408200000000        4.98046900000000        0.00531700000000
C            0.86073200000000        4.93701300000000        0.00079100000000
C            1.61201100000000        6.14179500000000        0.00318200000000
C           -1.17484400000000        8.69956900000000        0.00393000000000
C           -0.49788500000000        7.44956100000000        0.00364100000000
C            0.93409400000000        7.40617400000000        0.00307700000000
C            1.68412500000000        8.61281300000000        0.00347000000000
C           -0.39729400000000        9.87514700000000        0.00468500000000
C            0.97925100000000        9.83323300000000        0.00470400000000
C            2.59884200000000       -8.66354000000000        0.02718900000000
C            3.29116100000000       -9.87732700000000        0.06508600000000
C            4.66066400000000       -9.93690800000000        0.06564500000000
C            5.42599800000000       -8.76668000000000        0.02813500000000
C            2.65548900000000       -6.23350200000000        0.00911600000000
N            3.33265300000000       -7.47735000000000        0.01637800000000
C            4.74510200000000       -7.52053400000000        0.01542100000000
C            5.48706800000000       -6.30583300000000        0.00635000000000
C            2.71885900000000       -3.77639600000000        0.00333300000000
C            3.39730500000000       -5.03055500000000        0.00526100000000
C            4.82423000000000       -5.06217400000000        0.00352600000000
C            5.56373800000000       -3.85193300000000        0.00031900000000
C            2.79642900000000       -1.30688900000000       -0.00063300000000
C            3.46645700000000       -2.55805800000000        0.00337300000000
C            4.88882200000000       -2.59540600000000       -0.00099000000000
C            5.63495200000000       -1.39319500000000       -0.00116800000000
C            2.87452200000000        1.16515300000000       -0.00234300000000
C            3.54405600000000       -0.09380100000000        0.00337900000000
C            4.96421700000000       -0.13819500000000       -0.00362100000000
C            5.71473100000000        1.07089200000000       -0.00183700000000
C            2.95386200000000        3.63360500000000       -0.00142000000000
C            3.62254800000000        2.37035800000000        0.00252200000000
C            5.04794100000000        2.32092300000000       -0.00380000000000
C            5.80180700000000        3.53257000000000       -0.00263200000000
C            3.03976200000000        6.09570800000000        0.00075200000000
C            3.70571400000000        4.84345500000000        0.00120100000000
C            5.14032100000000        4.79552300000000       -0.00230600000000
C            5.89734300000000        5.98954900000000       -0.00233100000000
C            3.13695700000000        8.56637400000000        0.00273100000000
C            3.80411400000000        7.31197300000000        0.00108400000000
C            5.23652900000000        7.26177000000000       -0.00053700000000
C            5.99944600000000        8.46253500000000       -0.00078800000000
C            3.92287900000000        9.73574200000000        0.00281100000000
C            5.30158500000000        9.68430000000000        0.00130200000000
C            6.88625500000000       -8.81773500000000        0.01117500000000
C            7.59707000000000      -10.02578400000000        0.00052700000000
C            8.99575000000000      -10.03100500000000       -0.00973200000000
C            9.71511500000000       -8.84671000000000       -0.01063000000000
C            6.92127600000000       -6.35295800000000        0.00413600000000
C            7.61441800000000       -7.59595600000000        0.00394300000000
C            9.04713600000000       -7.60336200000000       -0.00506500000000
C            9.76009900000000       -6.37335400000000       -0.00917000000000
C            6.97992000000000       -3.89359200000000       -0.00218600000000
C            7.65214600000000       -5.14217400000000       -0.00146200000000
C            9.08906800000000       -5.17108300000000       -0.00645100000000
N            9.76211500000000       -3.96072400000000       -0.00979400000000
C            7.06618700000000       -1.43650100000000       -0.00551800000000
C            7.72726600000000       -2.68382400000000       -0.00548000000000
C            9.15583200000000       -2.71918100000000       -0.00882700000000
C            9.89170500000000       -1.54469400000000       -0.01123200000000
C            7.14497200000000        1.01859000000000       -0.00655200000000
C            7.81650100000000       -0.23400000000000       -0.00682400000000
C            9.24742100000000       -0.28118100000000       -0.01009800000000
C            9.97201700000000        0.93630000000000       -0.01176800000000
C            7.21727700000000        3.47698600000000       -0.00586300000000
C            7.88463400000000        2.21735200000000       -0.00724400000000
C            9.31355600000000        2.15765900000000       -0.01008400000000
N           10.00154600000000        3.35359500000000       -0.01112200000000
C            7.32806800000000        5.93328600000000       -0.00453900000000
C            7.97549400000000        4.67583600000000       -0.00665000000000
C            9.41034300000000        4.60883300000000       -0.00902000000000
C           10.16023800000000        5.76251700000000       -0.00958000000000
C            7.46181400000000        8.40854800000000       -0.00287100000000
C            8.10256400000000        7.13398900000000       -0.00510200000000
C            9.53307000000000        7.04106900000000       -0.00739900000000
C           10.29188100000000        8.23097000000000       -0.00766900000000
C            8.26456300000000        9.55876100000000       -0.00325800000000
C            9.66005100000000        9.46483800000000       -0.00556800000000
H          -11.37069200000000       -8.13692000000000       -0.01370100000000
H          -10.25491000000000      -10.35241800000000       -0.01806300000000
H           -7.81819300000000      -10.53911100000000       -0.01695300000000
H          -11.12195700000000       -5.75897300000000       -0.00921700000000
H          -11.16549200000000       -3.35592400000000       -0.00394300000000
H          -11.08241400000000       -0.87537000000000       -0.00031000000000
H          -11.00383200000000        1.62006500000000        0.00157900000000
H          -10.89307500000000        6.36594700000000        0.00180900000000
H          -10.87990200000000        8.83934800000000        0.00085100000000
H           -5.84151700000000      -10.60241000000000       -0.00667700000000
H           -3.44840300000000      -10.68484500000000       -0.00584000000000
H           -1.50436800000000      -10.73607900000000       -0.05060900000000
H            0.87365100000000      -10.79500800000000       -0.04143800000000
H            2.73250000000000      -10.79914400000000        0.09735500000000
H            5.13472400000000      -10.90839900000000        0.09809800000000
H            7.08265500000000      -10.97865300000000       -0.00392300000000
H            9.52069700000000      -10.98180900000000       -0.01767100000000
H           10.80136000000000       -8.86268500000000       -0.01772700000000
H           10.84649900000000       -6.39320300000000       -0.01489000000000
H           10.77383200000000       -3.99090400000000       -0.01272300000000
H           10.97749700000000       -1.58727200000000       -0.01343900000000
H           11.05849000000000        0.90871200000000       -0.01365000000000
H           11.01299600000000        3.31448900000000       -0.01250800000000
H           11.24571100000000        5.70892500000000       -0.01136500000000
H           11.37672300000000        8.16664700000000       -0.00946400000000
H           10.25312800000000       10.37531100000000       -0.00577800000000
H           -9.62760500000000       10.97213900000000        0.00008900000000
H           -7.18118800000000       11.00051200000000        0.00044700000000
H           -5.20839300000000       10.95479100000000        0.00153700000000
H           -2.81565600000000       10.90146900000000        0.00188200000000
H           -0.87487500000000       10.84701300000000        0.00586500000000
H            1.51443700000000       10.77473500000000        0.00502100000000
H            3.45309300000000       10.71142200000000        0.00430500000000
H            5.84423400000000       10.62213400000000        0.00130300000000
H            7.81600000000000       10.54494100000000       -0.00170300000000
205
 energy: -387.373379485539 gnorm: 0.030491526633 xtb: 6.7.1pre (5071a88)
C          -10.26357010852099       -8.18638045607073       -0.01294305133083
C           -9.63391695635827       -9.42450243164271       -0.01534544150776
C           -8.25716344179964       -9.52555475804975       -0.01440627828932
C           -7.44738949696055       -8.37527504832533       -0.01091428735394
N          -10.08948904344085       -5.78628206122331       -0.00776612215758
C           -9.49452358386341       -7.02708804406256       -0.00995090882962
C           -8.07975352828224       -7.11105239546413       -0.00897433600951
C           -7.30984007381994       -5.90051347619843       -0.00629252335470
C          -10.05229121724389       -3.37706713599687       -0.00348596721051
C           -9.40248402608322       -4.58700158179347       -0.00530900606242
C           -7.97083472626968       -4.65347044109500       -0.00479370625368
C           -7.23215109635708       -3.44496456772159       -0.00223343458035
C           -9.97055926379434       -0.90323999758487       -0.00006514175246
C           -9.33452133692520       -2.14499304160075       -0.00144044860397
C           -7.90179741218352       -2.19705399365311       -0.00137934856606
C           -7.15816675541015       -0.99132811387350        0.00095617802484
C           -9.89298145936309        1.57320144235250        0.00190278952882
C           -9.25895890008043        0.31786548051427        0.00119627133677
C           -7.82353892712810        0.25592847196703        0.00105268342116
C           -7.07631422616315        1.46004937281790        0.00267784341652
N           -9.82764539033261        3.96360744889861        0.00249537443042
C           -9.17680675938197        2.78497058267525        0.00244103962658
C           -7.73747793752423        2.70618809602736        0.00233629312204
C           -6.98966904111833        3.90608480184032        0.00309379857188
C           -9.78234403145408        6.34924404436031        0.00211346926132
C           -9.12046898786933        5.11444182582942        0.00250315640416
C           -7.67878012444750        5.13933371220731        0.00262418332705
C           -6.95829566324792        6.35374645561036        0.00262576023069
C           -9.77167397156661        8.81297770433079        0.00111451260273
C           -9.08974013273066        7.57360053405748        0.00177224220213
C           -7.65650795379133        7.59092920414577        0.00206788476400
C           -6.94629976473459        8.82121478166787        0.00170298660973
C           -9.07421115108644        9.99814318257404        0.00065827228090
C           -7.68044482758582       10.01148655409545        0.00095764381077
C           -5.99424217746952       -8.42222928212777       -0.00940112968568
C           -5.29326172569915       -9.63938129618560       -0.00842351429646
C           -3.92217447234298       -9.68655567877055       -0.00873388135370
C           -3.13943381604826       -8.51694452356112       -0.01025588202553
C           -5.89751448897342       -5.95606665164970       -0.00586314459258
C           -5.23626634262945       -7.22321357475482       -0.00753257992755
C           -3.80861983965106       -7.26822364036492       -0.00721997129913
C           -3.05093878106660       -6.05198111099580       -0.00325959372773
C           -5.80815349451961       -3.49976144236340       -0.00226619365708
C           -5.14476322471467       -4.75085546799339       -0.00284093930368
C           -3.71764845107370       -4.79999312330820       -0.00220315172971
C           -2.96665200204595       -3.59268123296070        0.00176264528349
C           -5.72944555305077       -1.04018467536250        0.00031838954640
C           -5.05916526092986       -2.28933274803231        0.00116637259533
C           -3.63676307637456       -2.33599624175571        0.00055253367364
C           -2.88986479076556       -1.12842411674713        0.00412913512078
C           -5.65006624119088        1.41913571345147        0.00184421709634
C           -4.98043344476216        0.16729510407050        0.00330926851510
C           -3.55880968298926        0.12453495186138        0.00180603887395
C           -2.81170319305142        1.33627845086020        0.00472345164577
C           -5.57204571273256        3.87397441024977        0.00258932199917
C           -4.90288888619131        2.62403096560316        0.00398177098507
C           -3.48037677263223        2.58540455500466        0.00248549528444
C           -2.73761537388815        3.80178650564843        0.00428400398640
C           -5.52966329839146        6.32578020009442        0.00269906038100
C           -4.84204692654470        5.09063642114776        0.00353521467857
C           -3.41292206988808        5.05317748015053        0.00294804103824
C           -2.67434336409379        6.26135588427316        0.00368182595411
C           -5.48838786003797        8.78924314053644        0.00215726111641
C           -4.79580432964024        7.54992440299767        0.00276886298958
C           -3.36574924789714        7.51480304623197        0.00309790240694
C           -2.62506070579442        8.72216906691406        0.00321146359724
C           -4.71782456236478        9.96081538660326        0.00195115111701
C           -3.34311596130845        9.92968524014257        0.00244026131947
C           -1.69472492563520       -8.55680237481582       -0.01244093131568
C           -0.97632729072206       -9.76653901212879       -0.02901211661650
C            0.39337979370170       -9.80227825028505       -0.02154312064323
C            1.15873185902375       -8.61831565251980        0.00374173398511
C           -1.62980315036490       -6.09231364819742       -0.00021378564906
C           -0.95290817098912       -7.34870722359927       -0.00249166473596
C            0.47046432653173       -7.38661938808621        0.00392577801634
C            1.23405583877386       -6.18362829219882        0.00851406802879
C           -1.54438350009147       -3.63763348840514        0.00257160364052
C           -0.87394242898001       -4.89062764736753        0.00411102688734
C            0.55647087505563       -4.93399937930657        0.00609854642611
C            1.29731121188824       -3.72264431425155        0.00567582755120
C           -1.46622198070407       -1.17232821866016        0.00258519195961
C           -0.79733957903674       -2.42414887114497        0.00499711798773
C            0.62410914222565       -2.46661103487923        0.00363427545468
C            1.36886058475795       -1.25857845125225        0.00423580323764
C           -1.38828733892152        1.29561545343229        0.00242664704873
C           -0.71921184282432        0.03992248408663        0.00485046401257
C            0.69995447033898       -0.00264374164283        0.00214782907467
C            1.44590454667612        1.20941913401286        0.00351623276646
C           -1.31658810633815        3.76169349130922        0.00264747391057
C           -0.64396634244881        2.50500304097072        0.00445301277161
C            0.77851190835681        2.46180915618302        0.00175085941571
C            1.52853450344541        3.67522582006992        0.00278808762687
C           -1.24942823695578        6.21980494289688        0.00306932988475
C           -0.57244985037441        4.97339376352337        0.00375934964845
C            0.85884091719850        4.93016454195905        0.00215553093330
C            1.61009715593819        6.13294056658592        0.00264512419534
C           -1.17536882553381        8.68057930372648        0.00381941032761
C           -0.49695066263779        7.43570845084414        0.00353125604026
C            0.93196035023382        7.39240339253470        0.00310221377586
C            1.68295386261014        8.59397099198445        0.00349298796907
C           -0.39603970813656        9.84959731378806        0.00474542977377
C            0.97577045082059        9.80792239378854        0.00457202256283
C            2.59764812032671       -8.64161227355348        0.02633442176955
C            3.29148879046738       -9.85725595197564        0.06492461810675
C            4.65722663500399       -9.91983195904658        0.06536022262367
C            5.42132917650809       -8.74750924559790        0.02763032656464
C            2.65550305257571       -6.23117242078117        0.00913448467082
N            3.32948246809544       -7.46235775536815        0.01619003346733
C            4.73253194278086       -7.50780234511055        0.01536537932485
C            5.47801510847850       -6.29899786921083        0.00640801169562
C            2.71461618043178       -3.76979675947139        0.00379351580030
C            3.39201145066159       -5.02346655700121        0.00531110798135
C            4.81510603518874       -5.05327072895606        0.00344272069434
C            5.55348832487308       -3.84498345358919        0.00028143418661
C            2.79078972429528       -1.30366937517246        0.00130096335377
C            3.46013928537254       -2.55473174162204        0.00238983846633
C            4.88019389084743       -2.59098759784570       -0.00042679836615
C            5.62516355401527       -1.38958942581552       -0.00193700822726
C            2.86930280080797        1.16416672207633        0.00014248679304
C            3.53745797855780       -0.09251684754459        0.00125548067474
C            4.95554839478048       -0.13647833083951       -0.00221928810652
C            5.70405413283285        1.06983914840106       -0.00283155160771
C            2.94910010993794        3.62948030755218        0.00019440710900
C            3.61645151322095        2.36871339786351        0.00063262339402
C            5.03814814390954        2.31923812858942       -0.00263445202669
C            5.79005502020652        3.52832513198840       -0.00303793520127
C            3.03493864520885        6.08734519051743        0.00105741849008
C            3.69988038662488        4.83653993817528        0.00042124958997
C            5.13020966049372        4.78877823147321       -0.00195330612940
C            5.88686627689687        5.98089382273439       -0.00231477605984
C            3.13226799755004        8.54809315454994        0.00256826177958
C            3.79942027696888        7.29822472767475        0.00108994641079
C            5.22798632506596        7.24877666056393       -0.00064384661768
C            5.99211491804848        8.44361415229918       -0.00078129931397
C            3.92076251807339        9.71063041882438        0.00279140687601
C            5.29445043394688        9.65958207819441        0.00120381079516
C            6.87511672815082       -8.79918374517505        0.01106351593676
C            7.59011615431793      -10.00099279881888        0.00038368196783
C            8.98051738720699      -10.00666212417075       -0.00989141007162
C            9.69457160234803       -8.82870639901113       -0.01055078527077
C            6.90835612118825       -6.34324699009306        0.00399266477666
C            7.60101241955341       -7.58137397104415        0.00372128599780
C            9.02730008251852       -7.59040058009027       -0.00511253754362
C            9.73555489545408       -6.36356986073358       -0.00910663966407
C            6.96693396760461       -3.88671111746118       -0.00220145889365
C            7.63770209528621       -5.13422763616657       -0.00138097985500
C            9.06839546539768       -5.16137022626422       -0.00644040013747
N            9.74104958690263       -3.95580413940859       -0.00972106717043
C            7.05138904317789       -1.43266819553204       -0.00516293759294
C            7.71176645124446       -2.67941300394542       -0.00541364374078
C            9.13603491224074       -2.71623472920235       -0.00873737266504
C            9.86602379801861       -1.54265817470517       -0.01103372025449
C            7.13012422370154        1.01781599453165       -0.00610650507145
C            7.80091517405094       -0.23254127076003       -0.00695997156128
C            9.22633559735518       -0.27956326236355       -0.00999967328998
C            9.94561612801767        0.93678482350675       -0.01153329973251
C            7.20257569989980        3.47341804226618       -0.00579271842597
C            7.86881981344543        2.21554544610764       -0.00720279205635
C            9.29272987395436        2.15789587601440       -0.01001097008892
N            9.97955245407833        3.35043867927724       -0.01104166600172
C            7.31297228307645        5.92511862633204       -0.00461262130563
C            7.95887254324679        4.67003371577211       -0.00651806418488
C            9.38824703932465        4.60164642609468       -0.00902185280503
C           10.13360155041364        5.75452379518787       -0.00950237612484
C            7.44885677180605        8.39028373952199       -0.00294464171125
C            8.08637095420288        7.12055323189165       -0.00502685445467
C            9.51008805665762        7.02955823559678       -0.00740101460394
C           10.26749707680854        8.21394478858444       -0.00764603150279
C            8.25365638366879        9.53336060108509       -0.00327187473331
C            9.64100106209201        9.44095014479560       -0.00556517079627
H          -11.34443264547142       -8.12238452691912       -0.01365682131068
H          -10.23700271471646      -10.32454049176325       -0.01799025353567
H           -7.81695572489653      -10.51092258574081       -0.01679158913543
H          -11.10018865772388       -5.75033094897210       -0.00908475231774
H          -11.13595102408697       -3.34931061976506       -0.00390507531429
H          -11.05437193989684       -0.87084639495566       -0.00017890159132
H          -10.97499312120377        1.62204247976910        0.00174039712833