205
 energy: -387.384262844722 gnorm: 0.000810261670 xtb: 6.7.1pre (5071a88)
C          -10.21964920026566       -8.13258483889990       -0.01279965789237
C           -9.59433881217000       -9.36951766684516       -0.01507012232383
C           -8.22073966964575       -9.47180660206670       -0.01393541996039
C           -7.41036058407926       -8.32763380561918       -0.01039510730264
N          -10.04511978115846       -5.74475230504354       -0.00767477298021
C           -9.45063978413714       -6.97820440234893       -0.00968354982386
C           -8.04044871547310       -7.06692708016152       -0.00861734430365
C           -7.27098105241028       -5.86512315998450       -0.00591726685058
C          -10.00428698020292       -3.34907324734395       -0.00364121951720
C           -9.35526561452046       -4.55485932002296       -0.00519170676647
C           -7.93065669880920       -4.62250237255541       -0.00439042092700
C           -7.19149203114866       -3.42220230358453       -0.00220511942666
C           -9.92314377348502       -0.89176702442750       -0.00039964476101
C           -9.28577336903074       -2.12668182037143       -0.00158046489462
C           -7.85963699343465       -2.18133109941432       -0.00098490994169
C           -7.11499345492801       -0.98400497516668        0.00064284906577
C           -9.84508284430385        1.56584153379513        0.00154371033072
C           -9.20870051743342        0.31917729182715        0.00092811027835
C           -7.77971579870391        0.25646975993127        0.00136559706543
C           -7.03083137273399        1.44996322989470        0.00232216355131
N           -9.77009369199885        3.93825167509716        0.00223696574709
C           -9.12278003214564        2.76675173406451        0.00217706021357
C           -7.69046261189418        2.68899156847773        0.00253063031400
C           -6.94524585944004        3.88152323443379        0.00290080913871
C           -9.73543751913106        6.30571148222411        0.00203974585384
C           -9.06677242770238        5.07851125263302        0.00237382005874
C           -7.63210444940718        5.10725392552452        0.00269238111635
C           -6.91478560123065        6.31581565680383        0.00264951518814
C           -9.72913608212697        8.75328523855395        0.00122215216860
C           -9.04219528640940        7.52267421473381        0.00183989221628
C           -7.61520211999323        7.54401890513959        0.00215749796030
C           -6.90882249905633        8.76975240275380        0.00188891159240
C           -9.03600046166273        9.93791854644684        0.00087443588227
C           -7.64598437821856        9.95391809930715        0.00120520007188
C           -5.96667994618016       -8.37897747788939       -0.00885993045666
C           -5.27154500411205       -9.59564101506187       -0.00798736034294
C           -3.90457007033101       -9.64526589506969       -0.00865218385700
C           -3.12346195914106       -8.47897030623790       -0.01034928843729
C           -5.86482771268010       -5.92372981195826       -0.00522431931673
C           -5.20877521693571       -7.18570785893092       -0.00702773519999
C           -3.78856210249527       -7.23266124574660       -0.00685037364384
C           -3.03404329619062       -6.02387518797335       -0.00325648466083
C           -5.77427560109255       -3.47875005711034       -0.00141139939696
C           -5.11358410876103       -4.72459063252828       -0.00278318712371
C           -3.69587298395518       -4.77570777404482       -0.00146762602956
C           -2.94737391886444       -3.57471577649921        0.00134717795933
C           -5.69472555865232       -1.03383412060144        0.00128353137437
C           -5.02751083326321       -2.27698857284140        0.00059969842219
C           -3.61263330907702       -2.32539880320535        0.00172986911531
C           -2.86852105286082       -1.12369902793972        0.00306878762629
C           -5.61266336513728        1.40941260286569        0.00272115520678
C           -4.94735685364294        0.16543298689912        0.00248878445559
C           -3.53315685749716        0.12297555702323        0.00304217287480
C           -2.79021287535458        1.32694682041068        0.00350946723022
C           -5.53317957348770        3.85125078391217        0.00317163979758
C           -4.86808362731494        2.60817131317273        0.00324283967576
C           -3.45449235360673        2.57122382000712        0.00342225357846
C           -2.71769745833295        3.78112450267812        0.00348471168590
C           -5.49480172782318        6.29199717590435        0.00293373205126
C           -4.80827066642209        5.06150093729837        0.00325998981280
C           -3.38871814141393        5.02590618694812        0.00338202789111
C           -2.65609433192058        6.23135155915138        0.00335861022467
C           -5.46012122845759        8.74441382204578        0.00230232092763
C           -4.76707062364525        7.51116736465397        0.00283590644850
C           -3.34492919826753        7.47765510571300        0.00318265229070
C           -2.60976527014249        8.68249908717753        0.00326236659712
C           -4.69628796588532        9.91622107748849        0.00213138479695
C           -3.32544576595397        9.88687259383452        0.00262952454436
C           -1.68913719826655       -8.52055330126482       -0.01344495527399
C           -0.97476972166016       -9.72830982514039       -0.03206304405073
C            0.39060786379807       -9.76590943960206       -0.02510230972327
C            1.15553351595048       -8.58505723076058        0.00240034098249
C           -1.62006636975770       -6.06563412594164       -0.00011089564089
C           -0.94838072601174       -7.31630623177216       -0.00317241870011
C            0.46683782303955       -7.35474635911201        0.00290181825596
C            1.22816324624834       -6.15769396923687        0.00808579919859
C           -1.53267153838365       -3.62037812338825        0.00334438145196
C           -0.86605191549796       -4.86883646936617        0.00386554239714
C            0.55352938440702       -4.91274323246629        0.00625200522495
C            1.29011625850494       -3.70494560424537        0.00533245964369
C           -1.45476474788889       -1.16732248144773        0.00374375230943
C           -0.79060442343028       -2.41430760389368        0.00427031753221
C            0.62274068617399       -2.45696374254327        0.00444612341322
C            1.36351719530302       -1.25300077585908        0.00333348468337
C           -1.37596365202209        1.28689583650074        0.00351043988923
C           -0.71235766929556        0.03853295719070        0.00370723024312
C            0.69902003087129       -0.00351031250568        0.00317524647092
C            1.43941736750463        1.20169636553583        0.00236004714975
C           -1.30436235066019        3.74196073139865        0.00327764623971
C           -0.63668512275278        2.49198121743995        0.00326157756017
C            0.77606846440906        2.44953616272572        0.00254824882459
C            1.51995909170845        3.65668886720510        0.00195601276365
C           -1.24014886427458        6.19085720726095        0.00322332338055
C           -0.56646280110973        4.94846089442779        0.00306372061995
C            0.85465018639249        4.90574060124831        0.00241758549345
C            1.60073642877202        6.10520553292483        0.00220062469272
C           -1.16983152847086        8.64243794218109        0.00374086811689
C           -0.49396439278358        7.40174707606591        0.00332756455040
C            0.92648204651653        7.35875459405643        0.00298165729503
C            1.67284618641865        8.55702355258259        0.00334548031402
C           -0.39679637948036        9.81074661173488        0.00461881465038
C            0.97074447796388        9.76948372490859        0.00447148519764
C            2.58388096241465       -8.60078416204922        0.02640082775723
C            3.27259383206394       -9.82041946244663        0.06842656081464
C            4.63330641622940       -9.88524539609874        0.06862171537130
C            5.39258019460215       -8.70852255407344        0.02796984293101
C            2.64467068270210       -6.21167244232565        0.00868401546976
N            3.31056471585203       -7.42790886629985        0.01613339028768
C            4.70028620183017       -7.47468054640024        0.01521689541439
C            5.44795769741240       -6.27229928498392        0.00579091331551
C            2.70049882076004       -3.75213174379416        0.00375799612713
C            3.37277940995902       -5.00082419033478        0.00469631626488
C            4.78699769255818       -5.02825102455673        0.00280064614392
C            5.52307522562480       -3.82527927836996       -0.00026606696640
C            2.77531722980528       -1.29751167807611        0.00189436052206
C            3.44099750049024       -2.54442319989332        0.00171202404523
C            4.85360020363174       -2.57837490986048       -0.00046346471900
C            5.59614788337936       -1.38198431211273       -0.00237658568673
C            2.85366227260748        1.15685182465070        0.00092935279159
C            3.51787839358381       -0.09257897167583        0.00045263530023
C            4.92902472594451       -0.13535988838348       -0.00171999256975
C            5.67362431039601        1.06373740931394       -0.00318194355179
C            2.93285547189584        3.61109222138166        0.00061859736539
C            3.59636243886620        2.35710562142785       -0.00013131597880
C            5.00911303859873        2.30789783988434       -0.00217371501971
C            5.75652617161055        3.51039923819521       -0.00319500423231
C            3.01668446045959        6.05965391160757        0.00104838026490
C            3.67819698627500        4.81240597485452       -0.00001553962551
C            5.09908795476640        4.76449332506018       -0.00185997976094
C            5.85232348978586        5.95263424133987       -0.00240547475282
C            3.11212259067676        8.51083863522070        0.00238547077854
C            3.77598617587322        7.26445986189201        0.00089448394154
C            5.19653324897347        7.21487927517574       -0.00076752164828
C            5.95705202233113        8.40556154661861       -0.00085857915003
C            3.89502384517197        9.67186675638644        0.00265118387361
C            5.26445123174116        9.62055801013161        0.00110319200408
C            6.83575377149528       -8.75719627508805        0.01074291050523
C            7.55116287693927       -9.95520493702138        0.00020732747528
C            8.93785235453456       -9.95972447344091       -0.01015318594482
C            9.65086161753637       -8.78415758846532       -0.01081463871682
C            6.87055741061806       -6.31155938363098        0.00330296137497
C            7.56187208152381       -7.54345449745387        0.00291351740108
C            8.98251815905061       -7.55139708481450       -0.00565834366042
C            9.68944877746336       -6.33008584779940       -0.00942715337835
C            6.93064448431126       -3.86498278843890       -0.00249695398895
C            7.59953141667628       -5.10736114397273       -0.00181602372564
C            9.02349558956929       -5.13082024275825       -0.00671899681614
N            9.69840124646766       -3.93446067911039       -0.00967029341248
C            7.01372725068027       -1.42386245377628       -0.00497758860686
C            7.67406959445227       -2.66508261044277       -0.00545675485118
C            9.09373845672137       -2.70167133613429       -0.00860164916844
C            9.82189408393594       -1.53329535291621       -0.01071718187951
C            7.09195067763083        1.01265785060083       -0.00572237065132
C            7.76277214016315       -0.23034494879399       -0.00683757166463
C            9.18245600853555       -0.27642093657989       -0.00962465661403
C            9.89986425760390        0.93278006252816       -0.01108899369566
C            7.16292517874398        3.45580797033601       -0.00554602186948
C            7.82968789593064        2.20496733506241       -0.00700207708795
C            9.24776663031827        2.14955675279224       -0.00965359502760
N            9.93436504371303        3.33396385691537       -0.01067131698288
C            7.27064151311763        5.89612838035808       -0.00458326049005
C            7.91663998249206        4.64627460979818       -0.00635142573028
C            9.33993994760431        4.57636307709738       -0.00884808945648
C           10.08241029405781        5.72638703524149       -0.00937122488021
C            7.40417228523134        8.35057406005751       -0.00300128518081
C            8.04069373509410        7.08566760119187       -0.00500142322988
C            9.45828902346620        6.99548124718077       -0.00737092341905
C           10.21467768612917        8.17477793510091       -0.00763690665483
C            8.20531549080971        9.49088262049302       -0.00330764688992
C            9.58911868543931        9.39934383239394       -0.00558379612945
H          -11.29759952026371       -8.06037876241151       -0.01361112919072
H          -10.19676134380322      -10.26598674854820       -0.01780917016309
H           -7.78076888692449      -10.45495709661926       -0.01609036270888
H          -11.05423464454239       -5.70506862558979       -0.00849748390728
H          -11.08481815911657       -3.31683976385711       -0.00420383843702
H          -11.00342351817071       -0.85594801703039       -0.00075049407310
H          -10.92286805657374        1.61890721817149        0.00127842780863
H          -10.81455022750181        6.30329049125601        0.00179366161769
H          -10.80924554637631        8.74637786398709        0.00097425819078
H           -5.81431971269600      -10.52677494491672       -0.00639434697627
H           -3.43386886719039      -10.61469991448207       -0.00622078987871
H           -1.50200811093036      -10.66732509321731       -0.05469001693314
H            0.86217502283736      -10.73316429638207       -0.04718107020388
H            2.71251020426444      -10.73590378538647        0.10418273615633
H            5.11005268191145      -10.84857194685385        0.10314221823978
H            7.04510440395547      -10.90609906770001       -0.00298758255356
H            9.46017749418485      -10.90536241938075       -0.01764875313607
H           10.73059696432522       -8.79621659077863       -0.01712131006643
H           10.76968788274900       -6.35297544700754       -0.01482522317439
H           10.70788425934226       -3.96694820473063       -0.01288637475162
H           10.90218992810099       -1.57252428190866       -0.01313322040759
H           10.98060803989484        0.90399777050383       -0.01320401097416
H           10.94388196255417        3.29935739558952       -0.01248622051050
H           11.16242361378565        5.67784495396198       -0.01125087746000
H           11.29303265866380        8.10827075180062       -0.00943820391952
H           10.17857686144429       10.30510835072019       -0.00575416086469
H           -9.57193872763216       10.87659475382432        0.00033052135729
H           -7.15062042367044       10.91135535810954        0.00089507108251
H           -5.18180993466416       10.87878417821055        0.00158979136184
H           -2.80297530465729       10.82966830640252        0.00238286895052
H           -0.87286709315565       10.77750381480765        0.00547180459967
H            1.50342605367880       10.70624596486498        0.00515226044996
H            3.42812996922447       10.64311753439562        0.00404342240984
H            5.80589400522941       10.55261566715860        0.00136146808337
H            7.76335469994764       10.47379769694704       -0.00178826551253
