      -----------------------------------------------------------      
     |                   =====================                   |     
     |                           x T B                           |     
     |                   =====================                   |     
     |                         S. Grimme                         |     
     |          Mulliken Center for Theoretical Chemistry        |     
     |                    University of Bonn                     |     
      -----------------------------------------------------------      

   * xtb version 6.7.1pre (5071a88) compiled by 'Marcel@Raven' on 2024-07-23

   xtb is free software: you can redistribute it and/or modify it under
   the terms of the GNU Lesser General Public License as published by
   the Free Software Foundation, either version 3 of the License, or
   (at your option) any later version.
   
   xtb is distributed in the hope that it will be useful,
   but WITHOUT ANY WARRANTY; without even the implied warranty of
   MERCHANTABILITY or FITNESS FOR A PARTICULAR PURPOSE.  See the
   GNU Lesser General Public License for more details.
   
   Cite this work as:
   * C. Bannwarth, E. Caldeweyher, S. Ehlert, A. Hansen, P. Pracht,
     J. Seibert, S. Spicher, S. Grimme, WIREs Comput. Mol. Sci., 2020, 11,
     e01493. DOI: 10.1002/wcms.1493
   
   for GFN2-xTB:
   * C. Bannwarth, S. Ehlert and S. Grimme., J. Chem. Theory Comput., 2019,
     15, 1652-1671. DOI: 10.1021/acs.jctc.8b01176
   for GFN1-xTB:
   * S. Grimme, C. Bannwarth, P. Shushkov, J. Chem. Theory Comput., 2017,
     13, 1989-2009. DOI: 10.1021/acs.jctc.7b00118
   for GFN0-xTB:
   * P. Pracht, E. Caldeweyher, S. Ehlert, S. Grimme, ChemRxiv, 2019, preprint.
     DOI: 10.26434/chemrxiv.8326202.v1
   for GFN-FF:
   * S. Spicher and S. Grimme, Angew. Chem. Int. Ed., 2020, 59, 15665-15673.
     DOI: 10.1002/anie.202004239
   
   for ALPB and GBSA implicit solvation:
   * S. Ehlert, M. Stahn, S. Spicher, S. Grimme, J. Chem. Theory Comput.,
     2021, 17, 4250-4261. DOI: 10.1021/acs.jctc.1c00471
   
   for ddCOSMO and CPCM-X implicit solvation:
   * M. Stahn, S. Ehlert, S. Grimme, J. Phys. Chem. A,
     2023, XX, XXXX-XXXX. DOI: 10.1021/acs.jpca.3c04382
   
   for DFT-D4:
   * E. Caldeweyher, C. Bannwarth and S. Grimme, J. Chem. Phys., 2017,
     147, 034112. DOI: 10.1063/1.4993215
   * E. Caldeweyher, S. Ehlert, A. Hansen, H. Neugebauer, S. Spicher,
     C. Bannwarth and S. Grimme, J. Chem. Phys., 2019, 150, 154122.
     DOI: 10.1063/1.5090222
   * E. Caldeweyher, J.-M. Mewes, S. Ehlert and S. Grimme, Phys. Chem. Chem. Phys.
     2020, 22, 8499-8512. DOI: 10.1039/D0CP00502A
   
   for sTDA-xTB:
   * S. Grimme and C. Bannwarth, J. Chem. Phys., 2016, 145, 054103.
     DOI: 10.1063/1.4959605
   
   in the mass-spec context:
   * V. Asgeirsson, C. Bauer and S. Grimme, Chem. Sci., 2017, 8, 4879.
     DOI: 10.1039/c7sc00601b
   * J. Koopman and S. Grimme, ACS Omega 2019, 4, 12, 15120-15133.
     DOI: 10.1021/acsomega.9b02011
   
   for metadynamics refer to:
   * S. Grimme, J. Chem. Theory Comput., 2019, 155, 2847-2862
     DOI: 10.1021/acs.jctc.9b00143
   
   for SPH calculations refer to:
   * S. Spicher and S. Grimme, J. Chem. Theory Comput., 2021, 17, 1701-1714
     DOI: 10.1021/acs.jctc.0c01306
   
   for ONIOM refer to:
   * C. Plett, A. Katbashev, S. Ehlert, S. Grimme, M. Bursch,
     Phys. Chem. Chem. Phys., 2023, 25, 17860-17868. DOI: 10.1039/D3CP02178E
   
   for DIPRO refer to:
   * J. Kohn, N. Gildemeister, S. Grimme, D. Fazzi, A. Hansen,
     J. Chem. Phys., 2023, just accepted.
   
   for PTB refer to:
   * S. Grimme, M. Mueller, A. Hansen, J. Chem. Phys., 2023, 158, 124111.
     DOI: 10.1063/5.0137838
   
   with help from (in alphabetical order)
   P. Atkinson, C. Bannwarth, F. Bohle, G. Brandenburg, E. Caldeweyher
   M. Checinski, S. Dohm, S. Ehlert, S. Ehrlich, I. Gerasimov, C. Hölzer
   A. Katbashev, J. Kohn, J. Koopman, C. Lavigne, S. Lehtola, F. März, M. Müller,
   F. Musil, H. Neugebauer, J. Pisarek, C. Plett, P. Pracht, F. Pultar,
   J. Seibert, P. Shushkov, S. Spicher, M. Stahn, M. Steiner, T. Strunk,
   J. Stückrath, T. Rose, and J. Unsleber
   
 * started run on 2025/12/08 at 00:35:09.684     
   ID    Z sym.   atoms
    1    6 C      1-53
    2    1 H      54-72
    3   15 P      73

           -------------------------------------------------
          |                Calculation Setup                |
           -------------------------------------------------

          program call               : xtb "C:\Users\LENOVO GAMING\Documents\GitHub\molecular-conductivity-sim\results\1nm-Pdoped-1.5percent\xtbopt.xyz" --sp
          coordinate file            : C:\Users\LENOVO GAMING\Documents\GitHub\molecular-conductivity-sim\results\1nm-Pdoped-1.5percent\xtbopt.xyz
          omp threads                :                    16


           -------------------------------------------------
          |                 G F N 2 - x T B                 |
           -------------------------------------------------

        Reference                      10.1021/acs.jctc.8b01176
      * Hamiltonian:
        H0-scaling (s, p, d)           1.850000    2.230000    2.230000
        zeta-weighting                 0.500000
      * Dispersion:
        s8                             2.700000
        a1                             0.520000
        a2                             5.000000
        s9                             5.000000
      * Repulsion:
        kExp                           1.500000    1.000000
        rExp                           1.000000
      * Coulomb:
        alpha                          2.000000
        third order                    shell-resolved
        anisotropic                    true
        a3                             3.000000
        a5                             4.000000
        cn-shift                       1.200000
        cn-exp                         4.000000
        max-rad                        5.000000

q/qsh data taken from xtbrestart
CAMM data taken from xtbrestart

          ...................................................
          :                      SETUP                      :
          :.................................................:
          :  # basis functions                 241          :
          :  # atomic orbitals                 240          :
          :  # shells                          128          :
          :  # electrons                       236          :
          :  max. iterations                   250          :
          :  Hamiltonian                  GFN2-xTB          :
          :  restarted?                       true          :
          :  GBSA solvation                  false          :
          :  PC potential                    false          :
          :  electronic temp.          300.0000000     K    :
          :  accuracy                    1.0000000          :
          :  -> integral cutoff          0.2500000E+02      :
          :  -> integral neglect         0.1000000E-07      :
          :  -> SCF convergence          0.1000000E-05 Eh   :
          :  -> wf. convergence          0.1000000E-03 e    :
          :  Broyden damping             0.4000000          :
          :  net charge                          0          :
          :  unpaired electrons                  0          :
          ...................................................

 iter      E             dE          RMSdq      gap      omega  full diag
   1   -128.4029275 -0.128403E+03  0.142E-05    0.13       0.0  T
   2   -128.4029275  0.346509E-08  0.223E-04    0.13      52.4  T
   3   -128.4029275 -0.346751E-08  0.118E-05    0.13     993.1  T

   *** convergence criteria satisfied after 3 iterations ***

         #    Occupation            Energy/Eh            Energy/eV
      -------------------------------------------------------------
         1        2.0000           -0.6682491             -18.1840
       ...           ...                  ...                  ...
       112        2.0000           -0.3919472             -10.6654
       113        2.0000           -0.3902886             -10.6203
       114        2.0000           -0.3882965             -10.5661
       115        2.0000           -0.3872989             -10.5389
       116        2.0000           -0.3739470             -10.1756
       117        2.0000           -0.3585143              -9.7557
       118        1.8585           -0.3268058              -8.8928 (HOMO)
       119        0.1415           -0.3219132              -8.7597 (LUMO)
       120                         -0.2890477              -7.8654
       121                         -0.2712408              -7.3808
       122                         -0.2541824              -6.9167
       123                         -0.2481263              -6.7519
       ...                                ...                  ...
       240                          0.9316023              25.3502
      -------------------------------------------------------------
                  HL-Gap            0.0048926 Eh            0.1331 eV
             Fermi-level           -0.3243595 Eh           -8.8263 eV

 SCC (total)                   0 d,  0 h,  0 min,  0.087 sec
 SCC setup                      ...        0 min,  0.001 sec (  1.150%)
 Dispersion                     ...        0 min,  0.003 sec (  3.448%)
 classical contributions        ...        0 min,  0.001 sec (  1.149%)
 integral evaluation            ...        0 min,  0.008 sec (  9.195%)
 iterations                     ...        0 min,  0.048 sec ( 55.172%)
 molecular gradient             ...        0 min,  0.024 sec ( 27.586%)
 printout                       ...        0 min,  0.002 sec (  2.299%)

         :::::::::::::::::::::::::::::::::::::::::::::::::::::
         ::                     SUMMARY                     ::
         :::::::::::::::::::::::::::::::::::::::::::::::::::::
         :: total energy            -125.956334992165 Eh    ::
         :: gradient norm              0.000230575769 Eh/a0 ::
         :: HOMO-LUMO gap              0.133133666539 eV    ::
         ::.................................................::
         :: SCC energy              -128.405009126796 Eh    ::
         :: -> isotropic ES            0.002342880712 Eh    ::
         :: -> anisotropic ES          0.007411987296 Eh    ::
         :: -> anisotropic XC          0.055201904827 Eh    ::
         :: -> dispersion             -0.140009138614 Eh    ::
         :: repulsion energy           2.448674134631 Eh    ::
         :: add. restraining           0.000000000000 Eh    ::
         :: total charge              -0.000000000000 e     ::
         :::::::::::::::::::::::::::::::::::::::::::::::::::::

           -------------------------------------------------
          |                Property Printout                |
           -------------------------------------------------

    * Orbital Energies and Occupations

         #    Occupation            Energy/Eh            Energy/eV
      -------------------------------------------------------------
         1        2.0000           -0.6682491             -18.1840
       ...           ...                  ...                  ...
       106        2.0000           -0.4060403             -11.0489
       107        2.0000           -0.4039904             -10.9931
       108        2.0000           -0.4032565             -10.9732
       109        2.0000           -0.4010394             -10.9128
       110        2.0000           -0.4007553             -10.9051
       111        2.0000           -0.3974057             -10.8140
       112        2.0000           -0.3919472             -10.6654
       113        2.0000           -0.3902886             -10.6203
       114        2.0000           -0.3882965             -10.5661
       115        2.0000           -0.3872989             -10.5389
       116        2.0000           -0.3739470             -10.1756
       117        2.0000           -0.3585143              -9.7557
       118        1.8585           -0.3268058              -8.8928 (HOMO)
       119        0.1415           -0.3219132              -8.7597 (LUMO)
       120                         -0.2890477              -7.8654
       121                         -0.2712408              -7.3808
       122                         -0.2541824              -6.9167
       123                         -0.2481263              -6.7519
       124                         -0.2412785              -6.5655
       125                         -0.2388163              -6.4985
       126                         -0.2321682              -6.3176
       127                         -0.2305583              -6.2738
       128                         -0.2281277              -6.2077
       129                         -0.2131798              -5.8009
       ...                                ...                  ...
       240                          0.9316023              25.3502
      -------------------------------------------------------------
                  HL-Gap            0.0048926 Eh            0.1331 eV
             Fermi-level           -0.3243595 Eh           -8.8263 eV

     #   Z          covCN         q      C6AA      α(0)
     1   6 C        2.980     0.004    27.927     8.669
     2   6 C        2.986    -0.001    28.040     8.686
     3   6 C        2.987    -0.001    28.033     8.685
     4   6 C        2.980     0.004    27.935     8.670
     5   6 C        2.922    -0.037    28.918     8.819
     6   6 C        2.922    -0.037    28.912     8.818
     7   6 C        2.994     0.002    27.982     8.677
     8   6 C        2.993    -0.000    28.023     8.684
     9   6 C        2.994     0.002    27.980     8.677
    10   6 C        2.922    -0.037    28.928     8.820
    11   6 C        2.922    -0.037    28.924     8.819
    12   6 C        2.926    -0.045    29.121     8.850
    13   6 C        2.926    -0.045    29.121     8.850
    14   6 C        2.913    -0.029    28.731     8.789
    15   6 C        2.983     0.011    27.754     8.642
    16   6 C        2.912    -0.003    28.097     8.692
    17   6 C        2.918    -0.000    28.041     8.684
    18   6 C        2.911    -0.031    28.762     8.794
    19   6 C        2.978     0.006    27.875     8.660
    20   6 C        2.983    -0.000    28.024     8.684
    21   6 C        2.971     0.001    28.005     8.680
    22   6 C        2.984     0.005    27.892     8.663
    23   6 C        2.920    -0.037    28.931     8.820
    24   6 C        2.988     0.001    28.002     8.680
    25   6 C        2.984    -0.000    28.028     8.684
    26   6 C        2.989     0.001    27.993     8.679
    27   6 C        2.920    -0.038    28.953     8.824
    28   6 C        2.976     0.006    27.878     8.661
    29   6 C        2.985     0.001    28.008     8.681
    30   6 C        2.986     0.000    28.010     8.682
    31   6 C        2.976     0.006    27.878     8.661
    32   6 C        2.912    -0.030    28.743     8.791
    33   6 C        2.912    -0.030    28.744     8.791
    34   6 C        2.980     0.012    27.731     8.638
    35   6 C        2.975     0.011    27.759     8.642
    36   6 C        2.980     0.012    27.730     8.638
    37   6 C        2.923    -0.036    28.907     8.817
    38   6 C        3.138    -0.042    28.799     8.783
    39   6 C        3.113    -0.035    28.702     8.776
    40   6 C        2.923    -0.036    28.906     8.817
    41   6 C        2.994     0.002    27.961     8.674
    42   6 C        3.017     0.003    27.948     8.672
    43   6 C        3.029     0.005    27.889     8.662
    44   6 C        2.928    -0.036    28.887     8.814
    45   6 C        2.981     0.004    27.929     8.669
    46   6 C        2.984    -0.000    28.033     8.685
    47   6 C        2.982    -0.001    28.050     8.688
    48   6 C        2.985     0.004    27.933     8.670
    49   6 C        2.920    -0.037    28.916     8.818
    50   6 C        2.989     0.001    27.990     8.678
    51   6 C        2.985    -0.001    28.053     8.688
    52   6 C        2.990     0.001    27.997     8.680
    53   6 C        2.920    -0.037    28.914     8.818
    54   1 H        0.926     0.032     2.553     2.498
    55   1 H        0.926     0.032     2.551     2.498
    56   1 H        0.926     0.032     2.564     2.504
    57   1 H        0.926     0.034     2.536     2.490
    58   1 H        0.926     0.030     2.593     2.518
    59   1 H        0.926     0.030     2.592     2.518
    60   1 H        0.926     0.036     2.508     2.476
    61   1 H        0.926     0.033     2.538     2.491
    62   1 H        0.926     0.031     2.576     2.510
    63   1 H        0.926     0.033     2.538     2.491
    64   1 H        0.926     0.034     2.532     2.488
    65   1 H        0.926     0.033     2.538     2.491
    66   1 H        0.926     0.031     2.572     2.508
    67   1 H        0.926     0.031     2.570     2.507
    68   1 H        0.926     0.032     2.563     2.503
    69   1 H        0.926     0.032     2.563     2.503
    70   1 H        0.926     0.033     2.541     2.493
    71   1 H        0.925     0.040     2.445     2.445
    72   1 H        0.925     0.040     2.455     2.450
    73  15 P        2.372    -0.034   174.949    24.630

 Mol. C6AA /au·bohr⁶  :     105770.902196
 Mol. C8AA /au·bohr⁸  :    2953308.394230
 Mol. α(0) /au        :        534.307165


Wiberg/Mayer (AO) data.
largest (>0.10) Wiberg bond orders for each atom

 ---------------------------------------------------------------------------
     #   Z sym  total        # sym  WBO       # sym  WBO       # sym  WBO
 ---------------------------------------------------------------------------
     1   6 C    3.961 --    49 C    1.354    50 C    1.274    28 C    1.134
     2   6 C    3.945 --    51 C    1.275    50 C    1.233    29 C    1.226
     3   6 C    3.942 --    51 C    1.275    52 C    1.231    30 C    1.228
     4   6 C    3.960 --    53 C    1.349    52 C    1.277    31 C    1.135
     5   6 C    3.893 --    32 C    1.385    31 C    1.384    54 H    0.962
     6   6 C    3.894 --    28 C    1.385    33 C    1.384    55 H    0.962
     7   6 C    3.946 --    28 C    1.270    29 C    1.247    34 C    1.213
     8   6 C    3.965 --    29 C    1.281    30 C    1.280    35 C    1.175
     9   6 C    3.947 --    31 C    1.270    30 C    1.247    36 C    1.213
    10   6 C    3.897 --    32 C    1.505    36 C    1.270    66 H    0.969
    11   6 C    3.898 --    33 C    1.506    34 C    1.270    67 H    0.969
    12   6 C    3.792 --    34 C    1.340    35 C    1.327    68 H    0.966
    13   6 C    3.791 --    36 C    1.340    35 C    1.327    69 H    0.966
    14   6 C    3.982 --    37 C    1.500    40 C    1.389    62 H    0.970
    15   6 C    3.986 --    38 C    1.308    37 C    1.282    41 C    1.226
    16   6 C    3.983 --    38 C    1.410    73 P    1.225    42 C    1.195
    17   6 C    3.981 --    39 C    1.331    43 C    1.253    73 P    1.240
    18   6 C    3.983 --    39 C    1.470    44 C    1.411    56 H    0.969
    19   6 C    3.982 --    40 C    1.390    41 C    1.265    45 C    1.134
    20   6 C    3.978 --    42 C    1.273    41 C    1.245    46 C    1.228
    21   6 C    3.973 --    42 C    1.271    47 C    1.246    43 C    1.217
    22   6 C    3.981 --    44 C    1.377    43 C    1.269    48 C    1.134
    23   6 C    3.969 --    49 C    1.477    45 C    1.351    63 H    0.960
    24   6 C    3.977 --    45 C    1.280    50 C    1.247    46 C    1.225
    25   6 C    3.965 --    46 C    1.283    47 C    1.266    51 C    1.198
    26   6 C    3.972 --    48 C    1.283    52 C    1.245    47 C    1.223
    27   6 C    3.966 --    53 C    1.482    48 C    1.345    57 H    0.961
    28   6 C    3.981 --     6 C    1.385     7 C    1.270     1 C    1.134
    29   6 C    3.979 --     8 C    1.281     7 C    1.247     2 C    1.226
    30   6 C    3.978 --     8 C    1.280     9 C    1.247     3 C    1.228
    31   6 C    3.981 --     5 C    1.384     9 C    1.270     4 C    1.135
    32   6 C    3.983 --    10 C    1.505     5 C    1.385    58 H    0.970
    33   6 C    3.983 --    11 C    1.506     6 C    1.384    59 H    0.970
    34   6 C    3.985 --    12 C    1.340    11 C    1.270     7 C    1.213
    35   6 C    3.989 --    12 C    1.327    13 C    1.327     8 C    1.175
    36   6 C    3.985 --    13 C    1.340    10 C    1.270     9 C    1.213
    37   6 C    3.916 --    14 C    1.500    15 C    1.282    70 H    0.968
    38   6 C    3.844 --    16 C    1.410    15 C    1.308    71 H    0.959
    39   6 C    3.921 --    18 C    1.470    17 C    1.331    72 H    0.962
    40   6 C    3.915 --    19 C    1.390    14 C    1.389    64 H    0.962
    41   6 C    3.958 --    19 C    1.265    20 C    1.245    15 C    1.226
    42   6 C    3.964 --    20 C    1.273    21 C    1.271    16 C    1.195
    43   6 C    3.953 --    22 C    1.269    17 C    1.253    21 C    1.217
    44   6 C    3.921 --    18 C    1.411    22 C    1.377    60 H    0.962
    45   6 C    3.964 --    23 C    1.351    24 C    1.280    19 C    1.134
    46   6 C    3.950 --    25 C    1.283    20 C    1.228    24 C    1.225
    47   6 C    3.953 --    25 C    1.266    21 C    1.246    26 C    1.223
    48   6 C    3.965 --    27 C    1.345    26 C    1.283    22 C    1.134
    49   6 C    3.971 --    23 C    1.477     1 C    1.354    65 H    0.960
    50   6 C    3.979 --     1 C    1.274    24 C    1.247     2 C    1.233
    51   6 C    3.972 --     2 C    1.275     3 C    1.275    25 C    1.198
    52   6 C    3.979 --     4 C    1.277    26 C    1.245     3 C    1.231
    53   6 C    3.971 --    27 C    1.482     4 C    1.349    61 H    0.961
    54   1 H    0.998 --     5 C    0.962
    55   1 H    0.998 --     6 C    0.962
    56   1 H    0.998 --    18 C    0.969
    57   1 H    0.998 --    27 C    0.961
    58   1 H    0.998 --    32 C    0.970
    59   1 H    0.998 --    33 C    0.970
    60   1 H    0.998 --    44 C    0.962
    61   1 H    0.998 --    53 C    0.961
    62   1 H    0.998 --    14 C    0.970
    63   1 H    0.998 --    23 C    0.960
    64   1 H    0.998 --    40 C    0.962
    65   1 H    0.998 --    49 C    0.960
    66   1 H    0.998 --    10 C    0.969
    67   1 H    0.998 --    11 C    0.969
    68   1 H    0.998 --    12 C    0.966
    69   1 H    0.998 --    13 C    0.966
    70   1 H    0.998 --    37 C    0.968
    71   1 H    0.997 --    38 C    0.959
    72   1 H    0.998 --    39 C    0.962
    73  15 P    2.740 --    17 C    1.240    16 C    1.225
 ---------------------------------------------------------------------------

Topologies differ in total number of bonds
Writing topology from bond orders to xtbtopo.mol

molecular dipole:
                 x           y           z       tot (Debye)
 q only:        0.178       0.054       0.000
   full:        0.543       0.037      -0.001       1.384
molecular quadrupole (traceless):
                xx          xy          yy          xz          yz          zz
 q only:        1.261      -0.671       9.819      -0.136       0.172     -11.080
  q+dip:        7.054      -1.473      29.329      -0.558       0.014     -36.383
   full:       -3.365      -1.424      18.629      -0.389       0.226     -15.264


           -------------------------------------------------
          | TOTAL ENERGY             -125.956334992165 Eh   |
          | GRADIENT NORM               0.000230575769 Eh/α |
          | HOMO-LUMO GAP               0.133133666539 eV   |
           -------------------------------------------------

------------------------------------------------------------------------
 * finished run on 2025/12/08 at 00:35:09.817     
------------------------------------------------------------------------
 total:
 * wall-time:     0 d,  0 h,  0 min,  0.131 sec
 *  cpu-time:     0 d,  0 h,  0 min,  1.500 sec
 * ratio c/w:    11.450 speedup
 SCF:
 * wall-time:     0 d,  0 h,  0 min,  0.087 sec
 *  cpu-time:     0 d,  0 h,  0 min,  1.281 sec
 * ratio c/w:    14.727 speedup

normal termination of xtb
