73
 energy: -125.956334991494 gnorm: 0.000230548233 xtb: 6.7.1pre (5071a88)
C            1.73630372864120        3.63032405738887       -0.16532901096210
C            1.60477155879041        1.17828077366052       -0.04894383581895
C            1.48679253386806       -1.25821767209941        0.07127599909749
C            1.36977238437544       -3.70413641200471        0.26178315585571
C            3.49803347759323       -4.99501695029756        0.32299301420305
C            3.98150560550417        4.69316062216022       -0.35033168817664
C            3.80013810856540        2.29130963294203       -0.17008896668595
C            3.66518812509348       -0.14581026177499       -0.00400541673906
C            3.55880574307631       -2.58526564504274        0.16781570562973
C            5.62594642745206       -3.89777901804113        0.22955952154431
C            5.98776695116660        3.38480269986140       -0.31673832337903
C            5.83944029865114        0.95762674345560       -0.12560729897380
C            5.71936758347837       -1.46506492296552        0.05829228449979
C           -4.55395095354583        5.15449494250527        0.50321092119636
C           -4.68436800745377        2.76226232149035        0.30107176074503
C           -4.84680415112858        0.34343173539741        0.06661413864705
C           -4.94867946132526       -2.32794710584697       -0.30224231410151
C           -4.92324937400375       -4.71387301030112       -0.69241875177475
C           -2.51445017607024        3.86213925154315        0.20519661074552
C           -2.64686275437381        1.39242376048447        0.08480762415784
C           -2.78857619770766       -1.06672254541051       -0.03755275581839
C           -2.85901611301287       -3.53152891393800       -0.20773094281593
C           -0.29673869121536        4.92655189293172       -0.07210328238933
C           -0.45143664393700        2.51713470401820        0.00837703734772
C           -0.59183820928076        0.06265296682424        0.01133307933945
C           -0.69438928695249       -2.38258461428796        0.04593122436106
C           -0.78494600075418       -4.78494044344093        0.28602042238224
C            3.17887752889403        3.55954903037190       -0.23442090325831
C            3.02495902539478        1.10794753146937       -0.07507053576296
C            2.90572872261335       -1.32992189281151        0.08399572012719
C            2.81310097303001       -3.78247929198305        0.26217589244207
C            4.88725894662110       -5.04875129825311        0.30901431193330
C            5.36837491543217        4.60404877705256       -0.39288296371841
C            5.22360664367055        2.20535217556530       -0.20447424790707
C            5.09559852416693       -0.21877742097649       -0.02194281800484
C            4.98374327921171       -2.64501731389116        0.15374064630759
C           -5.30922457783104        4.01263513078047        0.45683837467230
C           -5.43339638216505        1.58958274626649        0.22581935708462
C           -5.61550820400096       -3.53800655928170       -0.55462305554378
C           -3.17293999013488        5.07812918968885        0.37502074087997
C           -3.27087766647049        2.66614021259383        0.19306972865370
C           -3.42172746412620        0.20346779194593        0.03280924143271
C           -3.53429389405587       -2.28497529877904       -0.16999233634324
C           -3.55262303588656       -4.70417176132691       -0.50788422368392
C           -1.08255379560046        3.78069821458779        0.04862737731805
C           -1.22615711784278        1.32199191176856        0.03599799675062
C           -1.36353127990838       -1.12544342013089       -0.00508168459250
C           -1.44010423706682       -3.57800173596890        0.03659975463032
C            1.06815150447566        4.85399547249988       -0.18256973225972
C            0.96612319000131        2.44566856974731       -0.07375214616464
C            0.83741102268212       -0.00643419780017        0.00849245883520
C            0.72307574118571       -2.45208310478669        0.12836640155233
C            0.57938718940882       -4.84513621265755        0.40342554096543
H            2.95976520630327       -5.92708316229112        0.37405663550163
H            3.54079802580335        5.67447485136476       -0.41106497169235
H           -5.43479551377292       -5.63496939890855       -0.92827398868214
H           -1.34962961085776       -5.69499497529173        0.40792900577342
H            5.37934715419792       -6.00932777278493        0.35825432831480
H            5.95339703018333        5.50782192745250       -0.48347548422485
H           -3.01431704234526       -5.63073716517107       -0.62153908319983
H            1.03183558359420       -5.80277217987892        0.60180376846616
H           -5.02381003236119        6.11836836152744        0.63340595329121
H           -0.75460035181082        5.90175967816354       -0.08986692643989
H           -2.61381928637367        5.99806155940454        0.42001967302750
H            1.61794718029233        5.77610801111533       -0.27348246218178
H            6.70544464657411       -3.93012874652735        0.21804116149086
H            7.06460201202282        3.30585350541610       -0.34306661396839
H            6.91823620173062        0.89792121939113       -0.14641064682259
H            6.79880584812945       -1.51446454535298        0.04414286508866
H           -6.38521300546561        4.04899283196254        0.54014859765696
H           -6.51290363552234        1.65053468150190        0.27441827488627
H           -6.69211853745436       -3.51315800058067       -0.65372080353475
P           -6.02693994006239       -0.95056251541477       -0.13334209121379
