73
 energy: -125.947263119704 gnorm: 0.036890228806 xtb: 6.7.1pre (5071a88)
C            1.75217300000000        3.65651200000000       -0.13131400000000
C            1.61641700000000        1.18557900000000       -0.04808700000000
C            1.49593900000000       -1.26732400000000        0.04851900000000
C            1.38502100000000       -3.73264900000000        0.19181500000000
C            3.53635700000000       -5.02278100000000        0.30300400000000
C            4.01798600000000        4.72443300000000       -0.30588700000000
C            3.83295400000000        2.30569700000000       -0.15333000000000
C            3.69250100000000       -0.14603900000000       -0.01221000000000
C            3.59072700000000       -2.59899000000000        0.14232100000000
C            5.68077800000000       -3.91594700000000        0.23575000000000
C            6.04180000000000        3.40831100000000       -0.28830400000000
C            5.88681000000000        0.96426100000000       -0.11824300000000
C            5.76589700000000       -1.46923200000000        0.05757000000000
C           -4.59205900000000        5.20354100000000        0.43236600000000
C           -4.72808200000000        2.79139500000000        0.24734100000000
C           -4.90845400000000        0.35418300000000        0.04301800000000
C           -5.01746500000000       -2.35112100000000       -0.24340600000000
C           -4.99235700000000       -4.77061000000000       -0.53960900000000
C           -2.53600400000000        3.89593300000000        0.18616800000000
C           -2.67333900000000        1.40590500000000        0.06797900000000
C           -2.82615300000000       -1.07610000000000       -0.04207800000000
C           -2.89406100000000       -3.56831500000000       -0.18546500000000
C           -0.29189100000000        4.95979100000000       -0.02906000000000
C           -0.45602000000000        2.53433600000000        0.01131500000000
C           -0.60446100000000        0.06237600000000        0.00194100000000
C           -0.70598800000000       -2.40252900000000        0.01804600000000
C           -0.77644300000000       -4.82724800000000        0.17479300000000
C            3.20852900000000        3.58393100000000       -0.20186400000000
C            3.04897700000000        1.11518100000000       -0.07212900000000
C            2.92835100000000       -1.33767400000000        0.06155100000000
C            2.84242400000000       -3.80656700000000        0.21955600000000
C            4.93839400000000       -5.07530400000000        0.31418500000000
C            5.41761100000000        4.63614500000000       -0.35040100000000
C            5.27085400000000        2.21981900000000       -0.18806200000000
C            5.13648300000000       -0.21770900000000       -0.02427600000000
C            5.03000200000000       -2.65708700000000        0.14630600000000
C           -5.35429900000000        4.05559900000000        0.38255900000000
C           -5.48455400000000        1.61589300000000        0.17736400000000
C           -5.68779300000000       -3.58343600000000       -0.43497600000000
C           -3.19684000000000        5.12377500000000        0.33328700000000
C           -3.30084500000000        2.69268800000000        0.16366200000000
C           -3.46337400000000        0.21047800000000        0.01968100000000
C           -3.58148300000000       -2.31251100000000       -0.14774500000000
C           -3.60502700000000       -4.75757100000000       -0.41290800000000
C           -1.08857100000000        3.80855700000000        0.05629800000000
C           -1.24034600000000        1.33042900000000        0.02768200000000
C           -1.38414700000000       -1.13461100000000       -0.01575900000000
C           -1.45253300000000       -3.60884800000000        0.00061500000000
C            1.08257100000000        4.88748000000000       -0.12378400000000
C            0.97423400000000        2.46203700000000       -0.06152900000000
C            0.84132200000000       -0.00686800000000       -0.00187400000000
C            0.72702700000000       -2.47054800000000        0.08861700000000
C            0.59699200000000       -4.88861400000000        0.26942000000000
H            2.99561300000000       -5.95973800000000        0.35579900000000
H            3.57168900000000        5.70999200000000       -0.35558400000000
H           -5.51421100000000       -5.70681300000000       -0.71557100000000
H           -1.33070200000000       -5.75351000000000        0.25370700000000
H            5.43321800000000       -6.03958400000000        0.38123800000000
H            6.00495600000000        5.54595700000000       -0.43144000000000
H           -3.07370800000000       -5.69505300000000       -0.51315600000000
H            1.05545100000000       -5.86065200000000        0.40172100000000
H           -5.06520700000000        6.17469600000000        0.54566400000000
H           -0.74847300000000        5.94156300000000       -0.02963500000000
H           -2.63135400000000        6.04599900000000        0.38190800000000
H            1.63712200000000        5.81585200000000       -0.18348400000000
H            6.76659600000000       -3.94619500000000        0.23948000000000
H            7.12490700000000        3.33010400000000       -0.31604200000000
H            6.97165900000000        0.90185900000000       -0.13571100000000
H            6.85173300000000       -1.51586200000000        0.05257500000000
H           -6.43798500000000        4.09900700000000        0.44780500000000
H           -6.56899400000000        1.69789800000000        0.21395200000000
H           -6.77256900000000       -3.57845500000000       -0.51157500000000
P           -6.08326500000000       -0.95568300000000       -0.12161400000000
73
 energy: -125.954624519035 gnorm: 0.013049267293 xtb: 6.7.1pre (5071a88)
C            1.74675364785501        3.64103761016464       -0.13021527840822
C            1.61068399321296        1.18126499858766       -0.04760529429243
C            1.49182108450736       -1.26275388273834        0.04808799029850
C            1.38188442286893       -3.71707303523013        0.18923685779517
C            3.52478784130034       -5.00328099099816        0.30069661647995
C            4.00404544162339        4.70577203844757       -0.30395545944659
C            3.81721125853678        2.29818769132184       -0.15197590406392
C            3.67870577761405       -0.14533280581117       -0.01196219285739
C            3.57686241897557       -2.59021137082176        0.14082604878475
C            5.65497607167939       -3.90101164991631        0.23431442572056
C            6.01387104566944        3.39571951632309       -0.28649167530574
C            5.86091094420908        0.96209162589066       -0.11751510302408
C            5.74136824890670       -1.46438564319463        0.05732246955910
C           -4.57475013198494        5.17854428731600        0.43066397516506
C           -4.70495985828967        2.77936909124437        0.24551619032084
C           -4.87357208106740        0.35171118657331        0.04330855813520
C           -4.98387132054178       -2.34077420889670       -0.24399348428316
C           -4.97467093223456       -4.74484231419057       -0.53852958644612
C           -2.52612640472173        3.87838641116771        0.18405076589738
C           -2.66000813606330        1.39902893169443        0.06748682934870
C           -2.80767412861821       -1.07195813389079       -0.04152970605811
C           -2.88211402956545       -3.55074340249910       -0.18276925509939
C           -0.29076373356764        4.93860783498652       -0.02834575375937
C           -0.45344428262059        2.52427536926529        0.01167803617171
C           -0.59866981047650        0.06149338375345        0.00170039156586
C           -0.70028966668309       -2.39284113395879        0.01701283462692
C           -0.77328803886978       -4.80666509332671        0.17413248142451
C            3.19636863022537        3.57089754315678       -0.20008813653071
C            3.03729976721386        1.11190118355863       -0.07156407345619
C            2.91779655258014       -1.33347940080910        0.06123447969679
C            2.83232802918582       -3.79280839375870        0.21732442881822
C            4.91768032062118       -5.05432188870321        0.31200759199467
C            5.39447412620062        4.61710789861742       -0.34867791002713
C            5.24642097030723        2.21288378826421       -0.18677356753266
C            5.11476165704277       -0.21679502573163       -0.02391495413340
C            5.00759109590011       -2.64784882974086        0.14524352315596
C           -5.33119046295442        4.03635298253890        0.37981763173157
C           -5.45597591498584        1.60556271953892        0.17458395893690
C           -5.66090844109296       -3.56156481573054       -0.43114748123361
C           -3.18834787266552        5.09893830885964        0.33140352332020
C           -3.28545923696759        2.67969249161638        0.16213475831197
C           -3.44033823917193        0.20696464564943        0.01922458513499
C           -3.55901647735466       -2.29921718381784       -0.14648525773410
C           -3.59542367906022       -4.73235866447044       -0.41150384163868
C           -1.08494730239871        3.79229987958532        0.05696494071765
C           -1.23336452365319        1.32521465168820        0.02783500479854
C           -1.37445453798005       -1.13077072386126       -0.01615731293202
C           -1.44647232775717       -3.59321536731016       -0.00113184115888
C            1.07816616857087        4.86650305700674       -0.12353558820164
C            0.97075009790304        2.45265474161596       -0.06064471379074
C            0.83930054059893       -0.00714971903563       -0.00172694959535
C            0.72595992617388       -2.46109324698157        0.08729940045418
C            0.59470476024296       -4.86749476884058        0.26924831781950
H            2.99113068003662       -5.93964478960596        0.35553341867068
H            3.56489984100157        5.69024054937708       -0.35448422188643
H           -5.49766048820416       -5.67657779994969       -0.71210669984452
H           -1.32419249796013       -5.73120212475618        0.25405837104479
H            5.41232310019043       -6.01488942186157        0.37962015928753
H            5.98132985911161        5.52324257638354       -0.42960411073914
H           -3.07240415902528       -5.67040988217132       -0.51096924421584
H            1.05034600935805       -5.83699798837497        0.40198823461182
H           -5.04730093252503        6.14610605608664        0.54299103251002
H           -0.74455284431977        5.91801944643290       -0.02885274149872
H           -2.63040241684898        6.02127782522861        0.37980252111648
H            1.62985839588265        5.79248650427303       -0.18417548418771
H            6.73682182008532       -3.93265974397901        0.23878261383790
H            7.09317080629695        3.31908990453533       -0.31419588656344
H            6.94214053120773        0.90117181264065       -0.13537448816314
H            6.82344569093638       -1.51162120355990        0.05272022387223
H           -6.41066672610269        4.08041539669601        0.44420297954688
H           -6.53798498065884        1.67915792645740        0.21129503592731
H           -6.74234127856785       -3.54946579143670       -0.50360622844036
P           -6.05232567827353       -0.95079742658429       -0.11927578006201
73
 energy: -125.956120659727 gnorm: 0.003309489007 xtb: 6.7.1pre (5071a88)
C            1.74140455744403        3.63149210963614       -0.13015446270830
C            1.60644148374447        1.17824750515142       -0.04743858928825
C            1.48858711485191       -1.25966577451893        0.04730230586197
C            1.37820403855744       -3.70754031330088        0.18898128838469
C            3.51084748725835       -4.99282336235103        0.29987195534792
C            3.98836075357838        4.69631214987913       -0.30331994309975
C            3.80477405000238        2.29327239299051       -0.15123477787994
C            3.66842462610615       -0.14486401203628       -0.01188209905217
C            3.56581086682600       -2.58444572255114        0.13973840201324
C            5.63653986144670       -3.89174411265493        0.23318488887101
C            5.99377198968244        3.38809449165817       -0.28527786184318
C            5.84362415141611        0.96043095945660       -0.11702455052549
C            5.72508252180676       -1.46090354692487        0.05705857237919
C           -4.55988496506022        5.16295225289745        0.42966066848181
C           -4.68795957502050        2.76999839314182        0.24474111408042
C           -4.84932165978442        0.34865003671044        0.04373861152825
C           -4.96067496568388       -2.33128211253209       -0.24265467556061
C           -4.95972033390337       -4.72853582302561       -0.53894689718456
C           -2.51615860351382        3.86566788693514        0.18383004484243
C           -2.64869052601468        1.39380524269305        0.06724431409350
C           -2.79270547677062       -1.06874896095534       -0.04196178306953
C           -2.87081224653810       -3.53811131334511       -0.18348468225424
C           -0.29079495561706        4.92723971190271       -0.02820984783319
C           -0.45052113992068        2.51734541076080        0.01179991128546
C           -0.59309940419330        0.06093889565410        0.00117413706832
C           -0.69526761328420       -2.38667366420406        0.01623456525436
C           -0.77219142035092       -4.79570962359279        0.17545688709596
C            3.18485857063635        3.56249445471988       -0.19966624784595
C            3.02806697391837        1.10941335302906       -0.07116114541174
C            2.90930000831512       -1.33043675532100        0.06075140150073
C            2.82246364489606       -3.78383280939440        0.21654127426897
C            4.90010956830511       -5.04325263923305        0.31083724887046
C            5.37515478145150        4.60764803076229       -0.34773191605660
C            5.22865992746685        2.20824724051506       -0.18582424058663
C            5.09946727273561       -0.21616325194980       -0.02374199275326
C            4.99136194756039       -2.64161494977483        0.14430624472135
C           -5.31480099897934        4.02212193338559        0.37829848606840
C           -5.43636537353821        1.59733526556149        0.17374771252328
C           -5.64174185459092       -3.54502585467578       -0.42919605162713
C           -3.17685072837533        5.08317411156326        0.33063414984274
C           -3.27290929480105        2.66996386336052        0.16178306173027
C           -3.42367576335960        0.20428542262260        0.01898391215975
C           -3.54231432440285       -2.28902362859017       -0.14675496389407
C           -3.58330475749269       -4.71628440014404       -0.41200651875933
C           -1.08073534562928        3.78160708179521        0.05712005031618
C           -1.22669136357999        1.32156068774800        0.02770456023179
C           -1.36586350165497       -1.12815329114528       -0.01709164665231
C           -1.44080942492039       -3.58347116799377       -0.00136635662500
C            1.07529847693731        4.85537848292052       -0.12429731213081
C            0.96845187376292        2.44631435226517       -0.06033398616884
C            0.83812840617333       -0.00732769289027       -0.00209574378016
C            0.72522289795428       -2.45509274754216        0.08642701150981
C            0.59316160552899       -4.85633570158589        0.27131837783164
H            2.97770294567163       -5.92754988010042        0.35537049496713
H            3.54966571989216        5.67922172247910       -0.35367434299047
H           -5.48280671003263       -5.65726783575174       -0.71333959113631
H           -1.32338715447692       -5.71813132117940        0.25481384887221
H            5.39411701019214       -6.00189451090403        0.37836548629277
H            5.96106232515979        5.51194068632056       -0.42888916668970
H           -3.06166914829339       -5.65356110066349       -0.50966316008456
H            1.04913692836309       -5.82333700447928        0.40595846406691
H           -5.03145219513116        6.12842202905348        0.54250139495091
H           -0.74546867121718        5.90426522708945       -0.02739272204229
H           -2.61991560400989        6.00434712407354        0.37775282574461
H            1.62717533172999        5.77892766379684       -0.18632720898794
H            6.71629421118128       -3.92227933128950        0.23787781332254
H            7.07085201492491        3.31036515796353       -0.31275732437576
H            6.92264165208500        0.90042235773925       -0.13518258499617
H            6.80487401451393       -1.50821132950748        0.05283743802127
H           -6.39214993802621        4.06314324788104        0.44180378095208
H           -6.51661781201082        1.66295683830110        0.20911175432895
H           -6.72113596936543       -3.52299775823560       -0.49807182753211
P           -6.03361479253330       -0.94629647006954       -0.11624223825697
73
 energy: -125.956157473774 gnorm: 0.001493309990 xtb: 6.7.1pre (5071a88)
C            1.74023857157130        3.63104174560076       -0.13100182413984
C            1.60608645302620        1.17795028923826       -0.04781906198954
C            1.48829863366530       -1.25953456236430        0.04695398784118
C            1.37733925213951       -3.70717807699402        0.19041129608956
C            3.50794931859458       -4.99298315875289        0.30019437701555
C            3.98506629700530        4.69660640861751       -0.30407026182122
C            3.80296240964889        2.29300848266848       -0.15149181394382
C            3.66728136252593       -0.14486674347269       -0.01204485633381
C            3.56423813273296       -2.58416266693727        0.13971714975215
C            5.63412831359938       -3.89177068921776        0.23289615422544
C            5.99104681751778        3.38837337688355       -0.28537423322700
C            5.84211046682908        0.96052312400538       -0.11698341276495
C            5.72369398903432       -1.46079514677934        0.05691137857836
C           -4.55763038276261        5.16192033657239        0.43100799805820
C           -4.68555102188811        2.76904094346860        0.24527097783514
C           -4.84669689783500        0.34808042466566        0.04456273848664
C           -4.95802686575630       -2.33000818047933       -0.24259176093600
C           -4.95769146497721       -4.72718693246310       -0.54254314444449
C           -2.51419265583697        3.86442204800462        0.18436671084139
C           -2.64667173092578        1.39325152456889        0.06748104785879
C           -2.79027445307902       -1.06850386711073       -0.04206001976441
C           -2.86884196598826       -3.53729956959525       -0.18461707894534
C           -0.29082160993059        4.92737734267499       -0.02876683774874
C           -0.44983796006028        2.51673064835634        0.01163478507380
C           -0.59192348516039        0.06083254708544        0.00064521179552
C           -0.69436470736117       -2.38655376063489        0.01597428912037
C           -0.77220047825711       -4.79586649725693        0.17850100849681
C            3.18269502959584        3.56194905019751       -0.20028407361778
C            3.02686240341227        1.10907731442078       -0.07140160386641
C            2.90817480479650       -1.33018564544544        0.06057425690041
C            2.82066218783301       -3.78327577973475        0.21714092887695
C            4.89726500765133       -5.04361284932902        0.31068368139556
C            5.37193300612807        4.60824617404136       -0.34825056314596
C            5.22648013292529        2.20824947464287       -0.18585582532798
C            5.09798010976245       -0.21610406797076       -0.02379371221708
C            4.98942392860244       -2.64144101034813        0.14409594053510
C           -5.31267660064914        4.02061816927271        0.37904014271894
C           -5.43411233689168        1.59662697565720        0.17436429089531
C           -5.63932635871371       -3.54328933458875       -0.43015771047100
C           -3.17456907238436        5.08209978838678        0.33177497816023
C           -3.27077008687444        2.66884187938451        0.16231192812805
C           -3.42160541866768        0.20396483064321        0.01931465446882
C           -3.54002741727235       -2.28802262178529       -0.14718912110553
C           -3.58117543114097       -4.71507651911727       -0.41546792513448
C           -1.07966528493564        3.78092620192860        0.05722179575293
C           -1.22534325031305        1.32118569812701        0.02753084939889
C           -1.36421212851628       -1.12810620353253       -0.01767015830276
C           -1.43968780092302       -3.58333647691834       -0.00121702629950
C            1.07484531605517        4.85552852510673       -0.12560259139997
C            0.96829972636108        2.44576052540839       -0.06080093446204
C            0.83822160557717       -0.00741543551317       -0.00260970551681
C            0.72521819929488       -2.45484194059734        0.08661316689370
C            0.59281537894649       -4.85632223491466        0.27510057569036
H            2.97365930598848       -5.92698244202150        0.35562630506247
H            3.54509853923426        5.67885373022497       -0.35473885256515
H           -5.48061553513372       -5.65539402918674       -0.71835845065953
H           -1.32365416456475       -5.71758362526182        0.26088453463349
H            5.39080623166139       -6.00232020244554        0.37806332688553
H            5.95725521488364        5.51270174338655       -0.42941889360751
H           -3.05880625830571       -5.65150307513483       -0.51559026617062
H            1.04899996623076       -5.82260070108346        0.41243577036696
H           -5.02882554516576        6.12729050613002        0.54399353808758
H           -0.74597187695868        5.90390248068615       -0.02840101804978
H           -2.61686941408311        6.00264716423951        0.37950603052086
H            1.62696148190015        5.77859826765712       -0.18845465174259
H            6.71374286698161       -3.92151974354022        0.23737909538788
H            7.06790183259959        3.30986860858274       -0.31249858641701
H            6.92094830255932        0.90069550006334       -0.13516194004342
H            6.80330281390605       -1.50802886278473        0.05275093108071
H           -6.38997409756675        4.05950811369842        0.44201426928592
H           -6.51412881640254        1.66015329355457        0.20963094056272
H           -6.71849189572486       -3.51755335676103       -0.49753310770280
P           -6.03174093977086       -0.94581324777808       -0.11429401887333
73
 energy: -125.956179065397 gnorm: 0.001328000708 xtb: 6.7.1pre (5071a88)
C            1.73926780964205        3.63108597291032       -0.13307996276242
C            1.60610018438892        1.17780195360474       -0.04888935543513
C            1.48828833395557       -1.25969263792703        0.04653032472845
C            1.37631482934227       -3.70747732218556        0.19401511062876
C            3.50584388962156       -4.99393495932491        0.30093796316906
C            3.98274840545023        4.69736491828027       -0.30625722687538
C            3.80181875696908        2.29304175720092       -0.15242622058980
C            3.66680964972143       -0.14500290488411       -0.01244798395533
C            3.56312715538831       -2.58444587823506        0.14011095717730
C            5.63235631836881       -3.89269738143406        0.23232412681374
C            5.98917213516180        3.38933295329143       -0.28574007887021
C            5.84152564004313        0.96079525503900       -0.11702877606539
C            5.72310509334537       -1.46115727417634        0.05655834885933
C           -4.55613203240255        5.16166206900262        0.43438455486966
C           -4.68386162473424        2.76866708162070        0.24686829100484
C           -4.84526025983902        0.34756842751848        0.04661214692892
C           -4.95622379191554       -2.32969310894503       -0.24271068551558
C           -4.95533858888710       -4.72656383889434       -0.55140048101062
C           -2.51273825053215        3.86371781089612        0.18590483770534
C           -2.64522806340793        1.39295482262868        0.06797523894485
C           -2.78853381624642       -1.06836642390128       -0.04206545502388
C           -2.86709556995567       -3.53681091377650       -0.18768784339308
C           -0.29103752003026        4.92814898430251       -0.03081495219244
C           -0.44937257660047        2.51648420220127        0.01112140425718
C           -0.59096064706911        0.06077987347094       -0.00026765715229
C           -0.69373700456344       -2.38666486077414        0.01591629192929
C           -0.77336361360674       -4.79613350950488        0.18661835415621
C            3.18108129018621        3.56176482667440       -0.20209778109987
C            3.02621193315039        1.10878697868134       -0.07220415677606
C            2.90751233297712       -1.33020624803044        0.06048775550153
C            2.81915669021842       -3.78333318297471        0.21886269120272
C            4.89514638208552       -5.04486282748402        0.31031928087033
C            5.36962047987582        4.60946284390313       -0.34958934258674
C            5.22517463053866        2.20866482417866       -0.18621166392554
C            5.09737856376523       -0.21617105201375       -0.02400657454406
C            4.98814885685997       -2.64193126979359        0.14381930999181
C           -5.31125240639434        4.01994395033188        0.38109084547927
C           -5.43275481534820        1.59650545425562        0.17633787745387
C           -5.63710017322933       -3.54300468257926       -0.43306514493056
C           -3.17310193134705        5.08166564803271        0.33520920742270
C           -3.26921137849594        2.66813770447597        0.16352346648806
C           -3.42048358121777        0.20376376540087        0.02017508944759
C           -3.53842379022251       -2.28747161163836       -0.14815006454865
C           -3.57860311768363       -4.71411681229374       -0.42449806774579
C           -1.07894462600850        3.78075898501650        0.05712187129965
C           -1.22441651737276        1.32100979116189        0.02722940231621
C           -1.36301147640807       -1.12811763714055       -0.01854853008168
C           -1.43907156499907       -3.58338365752102       -0.00019180797837
C            1.07417587537615        4.85630279068998       -0.12878224374853
C            0.96827736438572        2.44556032757338       -0.06203184328060
C            0.83841853627700       -0.00754455265303       -0.00363707257287
C            0.72521428829383       -2.45502114377540        0.08737611235347
C            0.59142463783142       -4.85658598256218        0.28461949731966
H            2.97036430556533       -5.92715772884556        0.35595715673505
H            3.54140072061247        5.67882706654296       -0.35778009122549
H           -5.47764306700641       -5.65411466442062       -0.73129549445524
H           -1.32597242946101       -5.71659916319791        0.27431745270710
H            5.38811011312456       -6.00384081010214        0.37704970673491
H            5.95417421205136        5.51430578752961       -0.43090701292594
H           -3.05414257935577       -5.64883850365344       -0.52963593473033
H            1.04716398640513       -5.82195804051463        0.42828243064613
H           -5.02674552118079        6.12704328437200        0.54838575757768
H           -0.74659075782059        5.90423343403672       -0.03147317255449
H           -2.61444174548956        6.00141609624103        0.38460873497520
H            1.62616352178046        5.77905350115814       -0.19332478298904
H            6.71190702824025       -3.92162832293919        0.23617926383503
H            7.06587470198165        3.31002522874724       -0.31216772189556
H            6.92026808227159        0.90124397622411       -0.13498381317094
H            6.80260816248674       -1.50839914325644        0.05231869232609
H           -6.38857744244737        4.05597993459400        0.44357807446042
H           -6.51262799495144        1.65756592876838        0.21177593777463
H           -6.71613503403029       -3.51298865820432       -0.49831420760040
P           -6.03030158747867       -0.94609750100093       -0.11032436188376
73
 energy: -125.956201375613 gnorm: 0.001705713662 xtb: 6.7.1pre (5071a88)
C            1.73915586595127        3.63117318045217       -0.13551195034113
C            1.60629041304132        1.17783949414956       -0.05005434033289
C            1.48843184118057       -1.25978167438495        0.04642345516963
C            1.37577007547313       -3.70757434167990        0.19861189847554
C            3.50544472447224       -4.99444172786559        0.30153573068046
C            3.98288351451515        4.69740114617478       -0.30904271530927
C            3.80195320468270        2.29309843779672       -0.15373344346693
C            3.66706208233459       -0.14515000728402       -0.01279594782281
C            3.56294971751960       -2.58482775803537        0.14097484190026
C            5.63196801328983       -3.89348174129241        0.23175931982044
C            5.98924273175117        3.38958828731378       -0.28656427985569
C            5.84177673448702        0.96078715117894       -0.11717242433477
C            5.72315570720578       -1.46165801466979        0.05626751665041