      -----------------------------------------------------------      
     |                   =====================                   |     
     |                           x T B                           |     
     |                   =====================                   |     
     |                         S. Grimme                         |     
     |          Mulliken Center for Theoretical Chemistry        |     
     |                    University of Bonn                     |     
      -----------------------------------------------------------      

   * xtb version 6.7.1pre (5071a88) compiled by 'Marcel@Raven' on 2024-07-23

   xtb is free software: you can redistribute it and/or modify it under
   the terms of the GNU Lesser General Public License as published by
   the Free Software Foundation, either version 3 of the License, or
   (at your option) any later version.
   
   xtb is distributed in the hope that it will be useful,
   but WITHOUT ANY WARRANTY; without even the implied warranty of
   MERCHANTABILITY or FITNESS FOR A PARTICULAR PURPOSE.  See the
   GNU Lesser General Public License for more details.
   
   Cite this work as:
   * C. Bannwarth, E. Caldeweyher, S. Ehlert, A. Hansen, P. Pracht,
     J. Seibert, S. Spicher, S. Grimme, WIREs Comput. Mol. Sci., 2020, 11,
     e01493. DOI: 10.1002/wcms.1493
   
   for GFN2-xTB:
   * C. Bannwarth, S. Ehlert and S. Grimme., J. Chem. Theory Comput., 2019,
     15, 1652-1671. DOI: 10.1021/acs.jctc.8b01176
   for GFN1-xTB:
   * S. Grimme, C. Bannwarth, P. Shushkov, J. Chem. Theory Comput., 2017,
     13, 1989-2009. DOI: 10.1021/acs.jctc.7b00118
   for GFN0-xTB:
   * P. Pracht, E. Caldeweyher, S. Ehlert, S. Grimme, ChemRxiv, 2019, preprint.
     DOI: 10.26434/chemrxiv.8326202.v1
   for GFN-FF:
   * S. Spicher and S. Grimme, Angew. Chem. Int. Ed., 2020, 59, 15665-15673.
     DOI: 10.1002/anie.202004239
   
   for ALPB and GBSA implicit solvation:
   * S. Ehlert, M. Stahn, S. Spicher, S. Grimme, J. Chem. Theory Comput.,
     2021, 17, 4250-4261. DOI: 10.1021/acs.jctc.1c00471
   
   for ddCOSMO and CPCM-X implicit solvation:
   * M. Stahn, S. Ehlert, S. Grimme, J. Phys. Chem. A,
     2023, XX, XXXX-XXXX. DOI: 10.1021/acs.jpca.3c04382
   
   for DFT-D4:
   * E. Caldeweyher, C. Bannwarth and S. Grimme, J. Chem. Phys., 2017,
     147, 034112. DOI: 10.1063/1.4993215
   * E. Caldeweyher, S. Ehlert, A. Hansen, H. Neugebauer, S. Spicher,
     C. Bannwarth and S. Grimme, J. Chem. Phys., 2019, 150, 154122.
     DOI: 10.1063/1.5090222
   * E. Caldeweyher, J.-M. Mewes, S. Ehlert and S. Grimme, Phys. Chem. Chem. Phys.
     2020, 22, 8499-8512. DOI: 10.1039/D0CP00502A
   
   for sTDA-xTB:
   * S. Grimme and C. Bannwarth, J. Chem. Phys., 2016, 145, 054103.
     DOI: 10.1063/1.4959605
   
   in the mass-spec context:
   * V. Asgeirsson, C. Bauer and S. Grimme, Chem. Sci., 2017, 8, 4879.
     DOI: 10.1039/c7sc00601b
   * J. Koopman and S. Grimme, ACS Omega 2019, 4, 12, 15120-15133.
     DOI: 10.1021/acsomega.9b02011
   
   for metadynamics refer to:
   * S. Grimme, J. Chem. Theory Comput., 2019, 155, 2847-2862
     DOI: 10.1021/acs.jctc.9b00143
   
   for SPH calculations refer to:
   * S. Spicher and S. Grimme, J. Chem. Theory Comput., 2021, 17, 1701-1714
     DOI: 10.1021/acs.jctc.0c01306
   
   for ONIOM refer to:
   * C. Plett, A. Katbashev, S. Ehlert, S. Grimme, M. Bursch,
     Phys. Chem. Chem. Phys., 2023, 25, 17860-17868. DOI: 10.1039/D3CP02178E
   
   for DIPRO refer to:
   * J. Kohn, N. Gildemeister, S. Grimme, D. Fazzi, A. Hansen,
     J. Chem. Phys., 2023, just accepted.
   
   for PTB refer to:
   * S. Grimme, M. Mueller, A. Hansen, J. Chem. Phys., 2023, 158, 124111.
     DOI: 10.1063/5.0137838
   
   with help from (in alphabetical order)
   P. Atkinson, C. Bannwarth, F. Bohle, G. Brandenburg, E. Caldeweyher
   M. Checinski, S. Dohm, S. Ehlert, S. Ehrlich, I. Gerasimov, C. Hölzer
   A. Katbashev, J. Kohn, J. Koopman, C. Lavigne, S. Lehtola, F. März, M. Müller,
   F. Musil, H. Neugebauer, J. Pisarek, C. Plett, P. Pracht, F. Pultar,
   J. Seibert, P. Shushkov, S. Spicher, M. Stahn, M. Steiner, T. Strunk,
   J. Stückrath, T. Rose, and J. Unsleber
   
 * started run on 2025/12/08 at 00:34:55.756     
   ID    Z sym.   atoms
    1    6 C      1-48, 64
    2    1 H      49-63, 65, 66, 72
    3   16 S      67-71

           -------------------------------------------------
          |                Calculation Setup                |
           -------------------------------------------------

          program call               : xtb "C:\Users\LENOVO GAMING\Documents\GitHub\molecular-conductivity-sim\dataset\1nm-5Sdoped-7percent.xyz" --opt --parallel 4
          coordinate file            : C:\Users\LENOVO GAMING\Documents\GitHub\molecular-conductivity-sim\dataset\1nm-5Sdoped-7percent.xyz
          omp threads                :                     4


           -------------------------------------------------
          |                 G F N 2 - x T B                 |
           -------------------------------------------------

        Reference                      10.1021/acs.jctc.8b01176
      * Hamiltonian:
        H0-scaling (s, p, d)           1.850000    2.230000    2.230000
        zeta-weighting                 0.500000
      * Dispersion:
        s8                             2.700000
        a1                             0.520000
        a2                             5.000000
        s9                             5.000000
      * Repulsion:
        kExp                           1.500000    1.000000
        rExp                           1.000000
      * Coulomb:
        alpha                          2.000000
        third order                    shell-resolved
        anisotropic                    true
        a3                             3.000000
        a5                             4.000000
        cn-shift                       1.200000
        cn-exp                         4.000000
        max-rad                        5.000000


          ...................................................
          :                      SETUP                      :
          :.................................................:
          :  # basis functions                 264          :
          :  # atomic orbitals                 259          :
          :  # shells                          131          :
          :  # electrons                       244          :
          :  max. iterations                   250          :
          :  Hamiltonian                  GFN2-xTB          :
          :  restarted?                      false          :
          :  GBSA solvation                  false          :
          :  PC potential                    false          :
          :  electronic temp.          300.0000000     K    :
          :  accuracy                    1.0000000          :
          :  -> integral cutoff          0.2500000E+02      :
          :  -> integral neglect         0.1000000E-07      :
          :  -> SCF convergence          0.1000000E-05 Eh   :
          :  -> wf. convergence          0.1000000E-03 e    :
          :  Broyden damping             0.4000000          :
          :  net charge                          0          :
          :  unpaired electrons                  0          :
          ...................................................

 iter      E             dE          RMSdq      gap      omega  full diag
   1   -132.3650544 -0.132365E+03  0.510E+00    0.24       0.0  T
   2   -131.9783731  0.386681E+00  0.356E+00    0.78       1.0  T
   3   -130.4542531  0.152412E+01  0.366E+00    0.14       1.0  T
   4   -132.2584998 -0.180425E+01  0.163E+00    0.18       1.0  T
   5   -132.3049521 -0.464523E-01  0.129E+00    0.47       1.0  T
   6   -132.4238197 -0.118868E+00  0.785E-01    0.24       1.0  T
   7   -132.4449625 -0.211428E-01  0.586E-01    0.18       1.0  T
   8   -132.4550435 -0.100809E-01  0.557E-01    0.24       1.0  T
   9   -132.4873325 -0.322890E-01  0.168E-01    0.13       1.0  T
  10   -132.4907559 -0.342345E-02  0.536E-02    0.15       1.0  T
  11   -132.4908768 -0.120931E-03  0.254E-02    0.14       1.0  T
  12   -132.4907011  0.175783E-03  0.396E-02    0.14       1.0  T
  13   -132.4908721 -0.171043E-03  0.195E-02    0.14       1.0  T
  14   -132.4909227 -0.505972E-04  0.366E-03    0.14       3.2  T
  15   -132.4909230 -0.334225E-06  0.257E-03    0.14       4.6  T
  16   -132.4909239 -0.830313E-06  0.621E-04    0.14      19.0  T
  17   -132.4909238  0.282016E-07  0.590E-04    0.14      20.0  T

   *** convergence criteria satisfied after 17 iterations ***

         #    Occupation            Energy/Eh            Energy/eV
      -------------------------------------------------------------
         1        2.0000           -0.7397108             -20.1286
       ...           ...                  ...                  ...
       116        2.0000           -0.3900654             -10.6142
       117        2.0000           -0.3733471             -10.1593
       118        2.0000           -0.3703556             -10.0779
       119        2.0000           -0.3662362              -9.9658
       120        2.0000           -0.3591301              -9.7724
       121        2.0000           -0.3413381              -9.2883
       122        1.8768           -0.3245210              -8.8307 (HOMO)
       123        0.1232           -0.3193460              -8.6898 (LUMO)
       124                         -0.3021298              -8.2214
       125                         -0.2783521              -7.5743
       126                         -0.2714470              -7.3864
       127                         -0.2641564              -7.1881
       ...                                ...                  ...
       259                          0.6955343              18.9265
      -------------------------------------------------------------
                  HL-Gap            0.0051750 Eh            0.1408 eV
             Fermi-level           -0.3219335 Eh           -8.7603 eV

 SCC (total)                   0 d,  0 h,  0 min,  0.403 sec
 SCC setup                      ...        0 min,  0.001 sec (  0.248%)
 Dispersion                     ...        0 min,  0.002 sec (  0.496%)
 classical contributions        ...        0 min,  0.000 sec (  0.000%)
 integral evaluation            ...        0 min,  0.020 sec (  4.963%)
 iterations                     ...        0 min,  0.315 sec ( 78.164%)
 molecular gradient             ...        0 min,  0.063 sec ( 15.633%)
 printout                       ...        0 min,  0.002 sec (  0.496%)

         :::::::::::::::::::::::::::::::::::::::::::::::::::::
         ::                     SUMMARY                     ::
         :::::::::::::::::::::::::::::::::::::::::::::::::::::
         :: total energy            -130.405140820466 Eh    ::
         :: gradient norm              0.049152852127 Eh/a0 ::
         :: HOMO-LUMO gap              0.140818033486 eV    ::
         ::.................................................::
         :: SCC energy              -132.491951212178 Eh    ::
         :: -> isotropic ES            0.005671749432 Eh    ::
         :: -> anisotropic ES          0.004843650625 Eh    ::
         :: -> anisotropic XC          0.058697347962 Eh    ::
         :: -> dispersion             -0.147537475021 Eh    ::
         :: repulsion energy           2.086810391713 Eh    ::
         :: add. restraining           0.000000000000 Eh    ::
         :: total charge               0.000000000925 e     ::
         :::::::::::::::::::::::::::::::::::::::::::::::::::::

      ----------------------------------------------------------- 
     |                   =====================                   |
     |                        A N C O P T                        |
     |                   =====================                   |
     |               Approximate Normal Coordinate               |
     |                Rational Function Optimizer                |
      ----------------------------------------------------------- 
      ----------------------------------------------------------- 
     |                   =====================                   |
     |                        A N C O P T                        |
     |                   =====================                   |
     |               Approximate Normal Coordinate               |
     |                Rational Function Optimizer                |
      ----------------------------------------------------------- 

          ...................................................
          :                      SETUP                      :
          :.................................................:
          :   optimization level            normal          :
          :   max. optcycles                   216          :
          :   ANC micro-cycles                  20          :
          :   degrees of freedom               210          :
          :.................................................:
          :   RF solver                   davidson          :
          :   write xtbopt.log                true          :
          :   linear?                        false          :
          :   energy convergence         0.5000000E-05 Eh   :
          :   grad. convergence          0.1000000E-02 Eh/α :
          :   maxmium RF displ.          1.0000000          :
          :   Hlow (freq-cutoff)         0.1000000E-01      :
          :   Hmax (freq-cutoff)         5.0000000          :
          :   S6 in model hess.         20.0000000          :
          ...................................................

generating ANC from exact Hessian ...
Using Lindh-Hessian (1995)
 Shifting diagonal of input Hessian by   9.682939753074467E-003
 Lowest  eigenvalues of input Hessian
    0.000000    0.000000    0.000000    0.000000    0.000000    0.000000
    0.010000    0.010335    0.010574    0.010844    0.011327    0.012621
    0.013288    0.014200    0.014272    0.015135    0.015223    0.016090
 Highest eigenvalues
    1.959869    1.980457    2.002804    2.026719    2.038428    2.069131
 

........................................................................
.............................. CYCLE    1 ..............................
........................................................................

 iter      E             dE          RMSdq      gap      omega  full diag
   1   -132.4909239 -0.132491E+03  0.227E-04    0.14       0.0  T
   2   -132.4909234  0.425882E-06  0.176E-03    0.14       6.7  T
   3   -132.4909239 -0.419592E-06  0.277E-04    0.14      42.5  T
   4   -132.4909239 -0.971963E-08  0.118E-04    0.14     100.2  T
     SCC iter.                  ...        0 min,  0.073 sec
     gradient                   ...        0 min,  0.050 sec
 * total energy  :  -130.4051409 Eh     change       -0.3921144E-07 Eh
   gradient norm :     0.0491616 Eh/α   predicted     0.0000000E+00 (-100.00%)
   displ. norm   :     0.4545467 α      lambda       -0.1520644E-01
   maximum displ.:     0.1668055 α      in ANC's #34, #31, #36, ...

........................................................................
.............................. CYCLE    2 ..............................
........................................................................

 iter      E             dE          RMSdq      gap      omega  full diag
   1   -132.5857970 -0.132586E+03  0.244E-01    0.13       0.0  T
   2   -132.4994056  0.863914E-01  0.819E-01    0.37       1.0  T
   3   -132.5886792 -0.892736E-01  0.109E-01    0.13       1.0  T
   4   -132.5861918  0.248736E-02  0.153E-01    0.15       1.0  T
   5   -132.5887227 -0.253087E-02  0.622E-02    0.12       1.0  T
   6   -132.5890884 -0.365693E-03  0.353E-02    0.13       1.0  T
   7   -132.5892151 -0.126712E-03  0.162E-02    0.13       1.0  T
   8   -132.5892468 -0.317004E-04  0.526E-03    0.13       2.2  T
   9   -132.5892485 -0.172607E-05  0.310E-03    0.13       3.8  T
  10   -132.5892498 -0.123861E-05  0.114E-03    0.13      10.3  T
  11   -132.5892499 -0.122609E-06  0.416E-04    0.13      28.3  T
  12   -132.5892498  0.871828E-07  0.867E-04    0.13      13.6  T
     SCC iter.                  ...        0 min,  0.215 sec
     gradient                   ...        0 min,  0.052 sec
 * total energy  :  -130.4154024 Eh     change       -0.1026151E-01 Eh
   gradient norm :     0.0235150 Eh/α   predicted    -0.9174428E-02 ( -10.59%)
   displ. norm   :     0.4364062 α      lambda       -0.5564681E-02
   maximum displ.:     0.1742723 α      in ANC's #34, #12, #31, ...

........................................................................
.............................. CYCLE    3 ..............................
........................................................................

 iter      E             dE          RMSdq      gap      omega  full diag
   1   -132.6560353 -0.132656E+03  0.204E-01    0.12       0.0  T
   2   -132.5674254  0.886100E-01  0.817E-01    0.36       1.0  T
   3   -132.6575059 -0.900806E-01  0.132E-01    0.13       1.0  T
   4   -132.6491875  0.831844E-02  0.264E-01    0.11       1.0  T
   5   -132.6586630 -0.947555E-02  0.473E-02    0.12       1.0  T
   6   -132.6588344 -0.171396E-03  0.326E-02    0.13       1.0  T
   7   -132.6589590 -0.124575E-03  0.178E-02    0.12       1.0  T
   8   -132.6589931 -0.340637E-04  0.366E-03    0.12       3.2  T
   9   -132.6589942 -0.114913E-05  0.167E-03    0.12       7.1  T
  10   -132.6589941  0.916505E-07  0.151E-03    0.12       7.8  T
  11   -132.6589943 -0.198179E-06  0.761E-04    0.12      15.5  T
  12   -132.6589944 -0.326060E-07  0.549E-04    0.12      21.5  T
     SCC iter.                  ...        0 min,  0.225 sec
     gradient                   ...        0 min,  0.056 sec
 * total energy  :  -130.4181090 Eh     change       -0.2706583E-02 Eh
   gradient norm :     0.0140165 Eh/α   predicted    -0.3312240E-02 (  22.38%)
   displ. norm   :     0.1846015 α      lambda       -0.1034319E-02
   maximum displ.:     0.0694449 α      in ANC's #16, #28, #31, ...

........................................................................
.............................. CYCLE    4 ..............................
........................................................................

 iter      E             dE          RMSdq      gap      omega  full diag
   1   -132.6651293 -0.132665E+03  0.993E-02    0.11       0.0  T
   2   -132.6254310  0.396983E-01  0.536E-01    0.19       1.0  T
   3   -132.6648269 -0.393959E-01  0.839E-02    0.11       1.0  T
   4   -132.6651797 -0.352811E-03  0.576E-02    0.12       1.0  T
   5   -132.6656219 -0.442205E-03  0.107E-02    0.12       1.1  T
   6   -132.6656245 -0.258238E-05  0.706E-03    0.12       1.7  T
   7   -132.6656255 -0.101122E-05  0.601E-03    0.12       2.0  T
   8   -132.6656305 -0.501217E-05  0.178E-03    0.12       6.6  T
   9   -132.6656308 -0.234832E-06  0.850E-04    0.12      13.9  T
  10   -132.6656308 -0.499595E-07  0.444E-04    0.12      26.5  T
     SCC iter.                  ...        0 min,  0.189 sec
     gradient                   ...        0 min,  0.061 sec
 * total energy  :  -130.4186208 Eh     change       -0.5118935E-03 Eh
   gradient norm :     0.0076237 Eh/α   predicted    -0.5347851E-03 (   4.47%)
   displ. norm   :     0.1185475 α      lambda       -0.2816835E-03
   maximum displ.:     0.0465479 α      in ANC's #5, #12, #9, ...

........................................................................
.............................. CYCLE    5 ..............................
........................................................................

 iter      E             dE          RMSdq      gap      omega  full diag
   1   -132.6602362 -0.132660E+03  0.536E-02    0.11       0.0  T
   2   -132.6383061  0.219301E-01  0.394E-01    0.16       1.0  T
   3   -132.6603957 -0.220896E-01  0.272E-02    0.12       1.0  T
   4   -132.6601266  0.269165E-03  0.470E-02    0.11       1.0  T
   5   -132.6604182 -0.291626E-03  0.123E-02    0.11       1.0  T
   6   -132.6604331 -0.148467E-04  0.329E-03    0.11       3.6  T
   7   -132.6604337 -0.643145E-06  0.168E-03    0.11       7.0  T
   8   -132.6604339 -0.189769E-06  0.841E-04    0.11      14.0  T
   9   -132.6604339 -0.633128E-07  0.450E-04    0.11      26.2  T
     SCC iter.                  ...        0 min,  0.173 sec
     gradient                   ...        0 min,  0.053 sec
 * total energy  :  -130.4188413 Eh     change       -0.2204625E-03 Eh
   gradient norm :     0.0046975 Eh/α   predicted    -0.1428227E-03 ( -35.22%)
   displ. norm   :     0.2441526 α      lambda       -0.3285780E-03
   maximum displ.:     0.1135954 α      in ANC's #5, #8, #4, ...

........................................................................
.............................. CYCLE    6 ..............................
........................................................................

 iter      E             dE          RMSdq      gap      omega  full diag
   1   -132.6548129 -0.132655E+03  0.116E-01    0.11       0.0  T
   2   -132.5884912  0.663217E-01  0.691E-01    0.25       1.0  T
   3   -132.6558747 -0.673835E-01  0.451E-02    0.12       1.0  T
   4   -132.6548477  0.102706E-02  0.869E-02    0.10       1.0  T
   5   -132.6557966 -0.948954E-03  0.352E-02    0.11       1.0  T
   6   -132.6559354 -0.138805E-03  0.815E-03    0.11       1.4  T
   7   -132.6559341  0.132039E-05  0.766E-03    0.11       1.5  T
   8   -132.6559416 -0.745254E-05  0.126E-03    0.11       9.3  T
   9   -132.6559415  0.103326E-06  0.132E-03    0.11       8.9  T
  10   -132.6559417 -0.231263E-06  0.253E-04    0.11      46.5  T
  11   -132.6559417  0.132061E-07  0.357E-04    0.11      33.0  T
     SCC iter.                  ...        0 min,  0.202 sec
     gradient                   ...        0 min,  0.055 sec
 * total energy  :  -130.4190508 Eh     change       -0.2094886E-03 Eh
   gradient norm :     0.0039621 Eh/α   predicted    -0.1740857E-03 ( -16.90%)
   displ. norm   :     0.1615871 α      lambda       -0.1121021E-03
   maximum displ.:     0.0862212 α      in ANC's #5, #4, #8, ...

........................................................................
.............................. CYCLE    7 ..............................
........................................................................

 iter      E             dE          RMSdq      gap      omega  full diag
   1   -132.6553913 -0.132655E+03  0.698E-02    0.11       0.0  T
   2   -132.6160716  0.393197E-01  0.528E-01    0.18       1.0  T
   3   -132.6557209 -0.396494E-01  0.327E-02    0.11       1.0  T
   4   -132.6555032  0.217717E-03  0.441E-02    0.10       1.0  T
   5   -132.6557502 -0.247006E-03  0.161E-02    0.11       1.0  T
   6   -132.6557802 -0.299370E-04  0.517E-03    0.11       2.3  T
   7   -132.6557821 -0.192175E-05  0.232E-03    0.11       5.1  T
   8   -132.6557826 -0.521402E-06  0.735E-04    0.11      16.0  T
   9   -132.6557826  0.443434E-07  0.825E-04    0.11      14.3  T
     SCC iter.                  ...        0 min,  0.163 sec
     gradient                   ...        0 min,  0.049 sec
 * total energy  :  -130.4191375 Eh     change       -0.8670390E-04 Eh
   gradient norm :     0.0040647 Eh/α   predicted    -0.5751475E-04 ( -33.67%)
   displ. norm   :     0.1978668 α      lambda       -0.1269408E-03
   maximum displ.:     0.1082970 α      in ANC's #5, #4, #8, ...

........................................................................
.............................. CYCLE    8 ..............................
........................................................................

 iter      E             dE          RMSdq      gap      omega  full diag
   1   -132.6570194 -0.132657E+03  0.743E-02    0.11       0.0  T
   2   -132.6177222  0.392972E-01  0.528E-01    0.17       1.0  T
   3   -132.6571784 -0.394562E-01  0.491E-02    0.11       1.0  T
   4   -132.6572860 -0.107658E-03  0.295E-02    0.11       1.0  T
   5   -132.6573258 -0.397622E-04  0.218E-02    0.11       1.0  T
   6   -132.6573918 -0.660381E-04  0.605E-03    0.11       1.9  T
   7   -132.6573950 -0.317257E-05  0.189E-03    0.11       6.2  T
   8   -132.6573952 -0.146923E-06  0.986E-04    0.11      12.0  T
   9   -132.6573952 -0.229736E-07  0.801E-04    0.11      14.7  T
     SCC iter.                  ...        0 min,  0.165 sec
     gradient                   ...        0 min,  0.051 sec
 * total energy  :  -130.4192299 Eh     change       -0.9236707E-04 Eh
   gradient norm :     0.0030049 Eh/α   predicted    -0.6595554E-04 ( -28.59%)
   displ. norm   :     0.1577948 α      lambda       -0.7421261E-04
   maximum displ.:     0.0895105 α      in ANC's #5, #4, #8, ...

........................................................................
.............................. CYCLE    9 ..............................
........................................................................

 iter      E             dE          RMSdq      gap      omega  full diag
   1   -132.6589431 -0.132659E+03  0.468E-02    0.11       0.0  T
   2   -132.6457503  0.131927E-01  0.305E-01    0.13       1.0  T
   3   -132.6586840 -0.129337E-01  0.542E-02    0.11       1.0  T
   4   -132.6590043 -0.320285E-03  0.168E-02    0.11       1.0  T
   5   -132.6590208 -0.165419E-04  0.864E-03    0.11       1.4  T
   6   -132.6590252 -0.436151E-05  0.671E-03    0.11       1.8  T
   7   -132.6590314 -0.622158E-05  0.153E-03    0.11       7.7  T
   8   -132.6590316 -0.173710E-06  0.590E-04    0.11      20.0  T
   9   -132.6590316 -0.668280E-08  0.449E-04    0.11      26.2  T
     SCC iter.                  ...        0 min,  0.161 sec
     gradient                   ...        0 min,  0.051 sec
 * total energy  :  -130.4192832 Eh     change       -0.5337404E-04 Eh
   gradient norm :     0.0020341 Eh/α   predicted    -0.3803743E-04 ( -28.73%)
   displ. norm   :     0.1144610 α      lambda       -0.4097323E-04
   maximum displ.:     0.0689818 α      in ANC's #4, #5, #2, ...

........................................................................
.............................. CYCLE   10 ..............................
........................................................................

 iter      E             dE          RMSdq      gap      omega  full diag
   1   -132.6599156 -0.132660E+03  0.273E-02    0.11       0.0  T
   2   -132.6587262  0.118941E-02  0.921E-02    0.11       1.0  T
   3   -132.6594787 -0.752453E-03  0.577E-02    0.11       1.0  T
   4   -132.6599086 -0.429923E-03  0.120E-02    0.11       1.0  T
   5   -132.6599224 -0.138316E-04  0.306E-03    0.11       3.9  T
   6   -132.6599227 -0.261909E-06  0.254E-03    0.11       4.6  T
   7   -132.6599228 -0.169988E-06  0.194E-03    0.11       6.1  T
   8   -132.6599234 -0.556562E-06  0.340E-04    0.11      34.7  T
   9   -132.6599234 -0.740863E-08  0.199E-04    0.11      59.1  T
     SCC iter.                  ...        0 min,  0.157 sec
     gradient                   ...        0 min,  0.060 sec
 * total energy  :  -130.4193148 Eh     change       -0.3152135E-04 Eh
   gradient norm :     0.0016224 Eh/α   predicted    -0.2075645E-04 ( -34.15%)
   displ. norm   :     0.1626460 α      lambda       -0.3400687E-04
   maximum displ.:     0.0992542 α      in ANC's #4, #5, #6, ...

........................................................................
.............................. CYCLE   11 ..............................
........................................................................

 iter      E             dE          RMSdq      gap      omega  full diag
   1   -132.6602419 -0.132660E+03  0.369E-02    0.11       0.0  T
   2   -132.6601595  0.824398E-04  0.316E-02    0.11       1.0  T
   3   -132.6531955  0.696395E-02  0.221E-01    0.11       1.0  T
   4   -132.6602112 -0.701574E-02  0.177E-02    0.11       1.0  T
   5   -132.6602344 -0.231913E-04  0.816E-03    0.11       1.4  T
   6   -132.6602423 -0.783216E-05  0.409E-03    0.11       2.9  T
   7   -132.6602437 -0.147000E-05  0.213E-03    0.11       5.5  T
   8   -132.6602443 -0.573567E-06  0.528E-04    0.11      22.3  T
   9   -132.6602443 -0.238092E-07  0.187E-04    0.11      62.9  T
     SCC iter.                  ...        0 min,  0.168 sec
     gradient                   ...        0 min,  0.046 sec
 * total energy  :  -130.4193485 Eh     change       -0.3372001E-04 Eh
   gradient norm :     0.0018894 Eh/α   predicted    -0.1720380E-04 ( -48.98%)
   displ. norm   :     0.0969705 α      lambda       -0.1700218E-04
   maximum displ.:     0.0599823 α      in ANC's #4, #5, #2, ...

........................................................................
.............................. CYCLE   12 ..............................
........................................................................

 iter      E             dE          RMSdq      gap      omega  full diag
   1   -132.6596992 -0.132660E+03  0.232E-02    0.11       0.0  T
   2   -132.6581419  0.155730E-02  0.105E-01    0.12       1.0  T
   3   -132.6596412 -0.149926E-02  0.249E-02    0.11       1.0  T
   4   -132.6596491 -0.786021E-05  0.205E-02    0.11       1.0  T
   5   -132.6597065 -0.573970E-04  0.400E-03    0.11       2.9  T
   6   -132.6597081 -0.169264E-05  0.166E-03    0.11       7.1  T
   7   -132.6597083 -0.197376E-06  0.941E-04    0.11      12.5  T
   8   -132.6597084 -0.888118E-07  0.375E-04    0.11      31.5  T
     SCC iter.                  ...        0 min,  0.142 sec
     gradient                   ...        0 min,  0.049 sec
 * total energy  :  -130.4193680 Eh     change       -0.1948995E-04 Eh
   gradient norm :     0.0013569 Eh/α   predicted    -0.8537892E-05 ( -56.19%)
   displ. norm   :     0.1049544 α      lambda       -0.1428786E-04
   maximum displ.:     0.0638197 α      in ANC's #4, #5, #2, ...

........................................................................
.............................. CYCLE   13 ..............................
........................................................................

 iter      E             dE          RMSdq      gap      omega  full diag
   1   -132.6594508 -0.132659E+03  0.274E-02    0.11       0.0  T
   2   -132.6555464  0.390440E-02  0.166E-01    0.12       1.0  T
   3   -132.6594514 -0.390497E-02  0.185E-02    0.11       1.0  T
   4   -132.6594262  0.252055E-04  0.180E-02    0.11       1.0  T
   5   -132.6594698 -0.436090E-04  0.570E-03    0.11       2.1  T
   6   -132.6594734 -0.357665E-05  0.225E-03    0.11       5.2  T
   7   -132.6594739 -0.524898E-06  0.923E-04    0.11      12.8  T
   8   -132.6594740 -0.772486E-07  0.377E-04    0.11      31.2  T
     SCC iter.                  ...        0 min,  0.142 sec
     gradient                   ...        0 min,  0.054 sec
 * total energy  :  -130.4193825 Eh     change       -0.1454415E-04 Eh
   gradient norm :     0.0008052 Eh/α   predicted    -0.7182202E-05 ( -50.62%)
   displ. norm   :     0.0671816 α      lambda       -0.5670439E-05
   maximum displ.:     0.0424545 α      in ANC's #4, #2, #5, ...

........................................................................
.............................. CYCLE   14 ..............................
........................................................................

 iter      E             dE          RMSdq      gap      omega  full diag
   1   -132.6591838 -0.132659E+03  0.181E-02    0.11       0.0  T
   2   -132.6568087  0.237503E-02  0.129E-01    0.12       1.0  T
   3   -132.6591923 -0.238357E-02  0.104E-02    0.11       1.1  T
   4   -132.6591900  0.231629E-05  0.713E-03    0.11       1.7  T
   5   -132.6591939 -0.388164E-05  0.489E-03    0.11       2.4  T
   6   -132.6591970 -0.315300E-05  0.153E-03    0.11       7.7  T
   7   -132.6591973 -0.245923E-06  0.399E-04    0.11      29.5  T
   8   -132.6591973 -0.840572E-08  0.181E-04    0.11      65.1  T
     SCC iter.                  ...        0 min,  0.147 sec
     gradient                   ...        0 min,  0.050 sec
 * total energy  :  -130.4193887 Eh     change       -0.6144018E-05 Eh
   gradient norm :     0.0006575 Eh/α   predicted    -0.2845239E-05 ( -53.69%)
   displ. norm   :     0.0560959 α      lambda       -0.4146907E-05
   maximum displ.:     0.0344987 α      in ANC's #4, #2, #3, ...

........................................................................
.............................. CYCLE   15 ..............................
........................................................................

 iter      E             dE          RMSdq      gap      omega  full diag
   1   -132.6594567 -0.132659E+03  0.145E-02    0.11       0.0  T
   2   -132.6581641  0.129261E-02  0.955E-02    0.11       1.0  T
   3   -132.6594598 -0.129570E-02  0.888E-03    0.11       1.3  T
   4   -132.6594605 -0.657059E-06  0.515E-03    0.11       2.3  T
   5   -132.6594620 -0.148048E-05  0.372E-03    0.11       3.2  T
   6   -132.6594638 -0.185063E-05  0.122E-03    0.11       9.6  T
   7   -132.6594640 -0.142662E-06  0.351E-04    0.11      33.6  T
   8   -132.6594640 -0.672077E-08  0.149E-04    0.11      79.0  T
     SCC iter.                  ...        0 min,  0.142 sec
     gradient                   ...        0 min,  0.061 sec
 * total energy  :  -130.4193931 Eh     change       -0.4396707E-05 Eh
   gradient norm :     0.0005478 Eh/α   predicted    -0.2079315E-05 ( -52.71%)
   displ. norm   :     0.0523045 α      lambda       -0.3235755E-05
   maximum displ.:     0.0306244 α      in ANC's #4, #2, #3, ...

   *** GEOMETRY OPTIMIZATION CONVERGED AFTER 15 ITERATIONS ***

------------------------------------------------------------------------
 total energy gain   :        -0.0142522 Eh       -8.9434 kcal/mol
 total RMSD          :         0.2000325 a0        0.1059 Å
 total power (kW/mol):        -2.4946169 (step)  -10.2913 (real)
------------------------------------------------------------------------

 ANCopt (total)                0 d,  0 h,  0 min,  3.636 sec
 optimizer setup                ...        0 min,  0.000 sec (  0.000%)
 model hessian                  ...        0 min,  0.041 sec (  1.128%)
 ANC generation                 ...        0 min,  0.007 sec (  0.193%)
 coordinate transformation      ...        0 min,  0.001 sec (  0.028%)
 single point calculation       ...        0 min,  3.564 sec ( 98.020%)
 optimization log               ...        0 min,  0.018 sec (  0.495%)
 hessian update                 ...        0 min,  0.001 sec (  0.028%)
 rational function              ...        0 min,  0.004 sec (  0.110%)

================
 final structure:
================
72
 xtb: 6.7.1pre (5071a88)
C           -6.34281398809835       -2.49251007996775        0.27469843118797
C           -1.54070519359126       -4.59907366592177        0.28271734245499
C           -6.08516904576084       -3.80062283317257        0.19149135081055
C           -3.46045915084210       -3.05446213668016        0.19998225246478
C           -5.34914082665122       -1.45728017292561        0.21308532870293
C            3.95977767877078       -5.65443427985589       -0.37674870685624
C           -0.18416062319733       -4.81316309227044        0.10885574432855
C            1.49538495577999        4.69641306021586        0.60055982222690
C            2.17125571346798       -4.03583816122226       -0.02859106720385
C            4.34852221748383       -3.32763881184954       -0.76212710739347
C           -2.96482305801229        3.05969051332401       -0.48369811341013
C           -0.72818826983629        3.91707128152549        0.05422650005295
C           -2.09159311190179       -3.30372765127699        0.38601106174443
C            2.58126637348254       -1.58848719399533       -0.55792044556854
C           -4.72374137525350        4.68035801188861       -1.27709692842820
C            4.88599990804786       -0.67292572414068       -0.51542884286770
C           -2.55580720560467        5.45478591953115       -0.58506788691683
C           -3.95578961952813       -1.74184150549992        0.14929336237082
C            5.33215218724504        1.61077957731842        0.12992923668196
C           -1.62313356107965       -0.90534006184562        0.13511836256856
C            0.71252593867101       -0.03106112478514       -0.28891152859698
C            3.01908628837194        0.79653311395154       -0.07516220886072
C           -5.76711879005876       -0.14040189944435        0.22853101231430
C            3.41024507410499        3.13971982754675        0.47265702539013
C           -3.49846455975898        0.67341044489951       -0.08933933758582
C            6.03037903228731        3.87398298802855        0.77535708189296
C           -1.16162518391660        1.49625170299409       -0.05235733937941
C            1.13112323778640        2.33504235453823        0.16928336288360
C            2.67402614678889       -5.34782237460791       -0.00084843414082
C           -4.87089453741670        0.90468158824892        0.07412251105977
C           -2.55663254484839        1.76877099751181       -0.18685184751264
C           -0.25380994560052        2.59257484790878        0.03616139618527
C            2.02834130129874        3.39939054889979        0.42842426178354
C            0.79772545117245       -3.88488072759933        0.39305676323713
C            3.02174504264192       -2.97620299307213       -0.47001230850797
C           -4.33875158770638        3.27924240076127       -1.02231906326810
C           -2.09121594807411        4.17603949812684       -0.32640130276859
C            0.17258361744004        4.94606845204173        0.39625589598997
C           -1.24124501927233       -2.17930377080578        0.53751300315856
C            1.23826966115720       -1.27382430827130       -0.68492236303702
C            3.50295494319243       -0.51036052938496       -0.36174041336407
C           -3.87128468083088        5.69503695811145       -1.03998393758892
C            5.77297819858293        0.35561119829952       -0.25437628963699
C           -3.02802402415723       -0.65733960963978        0.03119991849136
C            6.31141233764812        2.61235161888642        0.43351019703343
C           -0.68448398781550        0.18207637498543       -0.06292102881975
C            1.62385311793638        1.02887887382883       -0.03890293557144
C            3.93071195018427        1.86984494274958        0.18313306795451
H           -7.37020042070235       -2.16854081837929        0.36430081456320
H            2.15965177604028        5.50637274552476        0.86154119757743
H           -5.72531594966152        4.84678771310414       -1.64238160522124
H           -1.90541846267365        6.30496618385767       -0.46639742101386
H           -6.81586496927703        0.08817844363171        0.34190687400194
H            6.78780072164604        4.60448827278097        1.00700168590254
H           -0.18808779065972        5.95534882590556        0.51180805885190
H           -4.17506322219927        6.71463534779535       -1.22573122772687
H           -2.21597313410844       -5.42561229756645        0.12611811722302
H           -6.85508834446991       -4.55450452182419        0.20136295643590
H            4.31051928095991       -6.67431397681907       -0.34850750784164
H            0.10949992206328       -5.74157063271636       -0.36055296483466
H            2.03573353044094       -6.13565432195072        0.36636907606582
H            6.83085777945089        0.17188203081438       -0.36665877252201
H            7.34685839694784        2.30579275601236        0.38283597660386
C            4.81411082268985       -4.63156054266219       -0.74422005657434
H            5.84314360590044       -4.82558538570094       -1.00425899912059
H           -4.49588713038453        2.66971317495489       -1.92468297534334
S            5.56827017042143       -2.13279177744705       -1.19238198365016
S            4.43115369653362        4.51927764678684        0.88017855654976
S            0.28838158267762       -2.50088747027139        1.37359378893319
S           -4.49853777747600       -4.47634851776160        0.07084484258780
S           -5.55256846231643        2.52229133490088        0.17173109279532
H            0.56873984342781       -2.01066960085749       -1.10407037992824
 
 Bond Distances (Angstroems)
 ---------------------------
C1-C3=1.3358         C1-C5=1.4363         C1-H49=1.0810        C2-C7=1.3843         C2-C13=1.4114        C2-H57=1.0787        
C3-C1=1.3358         C3-H58=1.0776        C3-S70=1.7287        C4-C13=1.4038        C4-C18=1.4039        C4-S70=1.7652        
C5-C1=1.4363         C5-C18=1.4235        C5-C23=1.3817        C6-C29=1.3742        C6-H59=1.0789        C6-C64=1.3825        
C7-C2=1.3843         C7-C34=1.3808        C7-H60=1.0810        C8-C33=1.4128        C8-C38=1.3616        C8-H50=1.0795        
C9-C29=1.4053        C9-C34=1.4447        C9-C35=1.4286        C10-C35=1.4033       C10-C64=1.3847       C10-S67=1.7608       
C11-C31=1.3861       C11-C36=1.4920       C11-C37=1.4262       C12-C32=1.4070       C12-C37=1.4387       C12-C38=1.4097       
C13-C2=1.4114        C13-C4=1.4038        C13-C39=1.4179       C14-C35=1.4586       C14-C40=1.3852       C14-C41=1.4319       
C15-C36=1.4752       C15-C42=1.3463       C15-H51=1.0790       C16-C41=1.4010       C16-C43=1.3830       C16-S67=1.7478       
C17-C37=1.3849       C17-C42=1.4125       C17-H52=1.0770       C18-C4=1.4039        C18-C5=1.4235        C18-C44=1.4321       
C19-C43=1.3847       C19-C45=1.4333       C19-C48=1.4262       C20-C39=1.3895       C20-C44=1.4304       C20-C46=1.4501       
C21-C40=1.4063       C21-C46=1.4311       C21-C47=1.4200       C22-C41=1.4228       C22-C47=1.4149       C22-C48=1.4317       
C23-C5=1.3817        C23-C30=1.3854       C23-H53=1.0793       C24-C33=1.4068       C24-C48=1.4026       C24-S68=1.7639       
C25-C30=1.4013       C25-C31=1.4479       C25-C44=1.4166       C26-C45=1.3370       C26-H54=1.0775       C26-S68=1.7277       
C27-C31=1.4277       C27-C32=1.4261       C27-C46=1.3982       C28-C32=1.4150       C28-C33=1.4160       C28-C47=1.4114       
C29-C6=1.3742        C29-C9=1.4053        C29-H61=1.0784       C30-C23=1.3854       C30-C25=1.4013       C30-S71=1.7581       
C31-C11=1.3861       C31-C25=1.4479       C31-C27=1.4277       C32-C12=1.4070       C32-C27=1.4261       C32-C28=1.4150       
C33-C8=1.4128        C33-C24=1.4068       C33-C28=1.4160       C34-C7=1.3808        C34-C9=1.4447        C34-S69=1.7710       
C35-C9=1.4286        C35-C10=1.4033       C35-C14=1.4586       C36-C11=1.4920       C36-C15=1.4752       C36-H66=1.1002       
C36-S71=1.8634       C37-C11=1.4262       C37-C12=1.4387       C37-C17=1.3849       C38-C8=1.3616        C38-C12=1.4097       
C38-H55=1.0780       C39-C13=1.4179       C39-C20=1.3895       C39-S69=1.7726       C40-C14=1.3852       C40-C21=1.4063       
C40-H72=1.0802       C41-C14=1.4319       C41-C16=1.4010       C41-C22=1.4228       C42-C15=1.3463       C42-C17=1.4125       
C42-H56=1.0800       C43-C16=1.3830       C43-C19=1.3847       C43-H62=1.0796       C44-C18=1.4321       C44-C20=1.4304       
C44-C25=1.4166       C45-C19=1.4333       C45-C26=1.3370       C45-H63=1.0811       C46-C20=1.4501       C46-C21=1.4311       
C46-C27=1.3982       C47-C21=1.4200       C47-C22=1.4149       C47-C28=1.4114       C48-C19=1.4262       C48-C22=1.4317       
C48-C24=1.4026       H49-C1=1.0810        H50-C8=1.0795        H51-C15=1.0790       H52-C17=1.0770       H53-C23=1.0793       
H54-C26=1.0775       H55-C38=1.0780       H56-C42=1.0800       H57-C2=1.0787        H58-C3=1.0776        H59-C6=1.0789        
H60-C7=1.0810        H61-C29=1.0784       H62-C43=1.0796       H63-C45=1.0811       C64-C6=1.3825        C64-C10=1.3847       
C64-H65=1.0790       H65-C64=1.0790       H66-C36=1.1002       S67-C10=1.7608       S67-C16=1.7478       S68-C24=1.7639       
S68-C26=1.7277       S69-C34=1.7710       S69-C39=1.7726       S70-C3=1.7287        S70-C4=1.7652        S71-C30=1.7581       
S71-C36=1.8634       H72-C40=1.0802       
 C  H  Rav=1.0803 sigma=0.0050  Rmin=1.0770  Rmax=1.1002    18
 C  C  Rav=1.4097 sigma=0.0292  Rmin=1.3358  Rmax=1.4920    60
 S  C  Rav=1.7659 sigma=0.0358  Rmin=1.7277  Rmax=1.8634    10
 
 selected bond angles (degree)
 --------------------
C5-C1-C3=124.73                H49-C1-C3=118.81               H49-C1-C5=116.43               C13-C2-C7=122.25               
H57-C2-C7=118.47               H57-C2-C13=118.00              H58-C3-C1=123.14               S70-C3-C1=124.34               
S70-C3-H58=112.52              C18-C4-C13=120.99              S70-C4-C13=116.11              S70-C4-C18=122.89              
C18-C5-C1=122.34               C23-C5-C1=118.50               C23-C5-C18=119.15              H59-C6-C29=120.53              
C64-C6-C29=119.07              C64-C6-H59=120.36              C34-C7-C2=124.54               H60-C7-C2=116.97               
H60-C7-C34=118.27              C38-C8-C33=121.10              H50-C8-C33=119.09              H50-C8-C38=119.77              
C34-C9-C29=115.59              C35-C9-C29=119.05              C35-C9-C34=125.36              C64-C10-C35=123.44             
S67-C10-C35=122.40             S67-C10-C64=114.16             
 
 selected dihedral angles (degree)
 ---------------------------------
H58-C3-C1-C5=182.52           H58-C3-C1-H49=  0.50          S70-C3-C1-C5=  3.07           S70-C3-C1-H49=181.06          
C18-C5-C1-C3=355.42           C18-C5-C1-H49=177.39          C23-C5-C1-C3=176.00           C23-C5-C1-H49=357.98          
C34-C7-C2-C13= 19.40          C34-C7-C2-H57=186.22          H60-C7-C2-C13=204.84          H60-C7-C2-H57= 11.66          
           -------------------------------------------------
          |                Final Singlepoint                |
           -------------------------------------------------

          ...................................................
          :                      SETUP                      :
          :.................................................:
          :  # basis functions                 264          :
          :  # atomic orbitals                 259          :
          :  # shells                          131          :
          :  # electrons                       244          :
          :  max. iterations                   250          :
          :  Hamiltonian                  GFN2-xTB          :
          :  restarted?                      false          :
          :  GBSA solvation                  false          :
          :  PC potential                    false          :
          :  electronic temp.          300.0000000     K    :
          :  accuracy                    1.0000000          :
          :  -> integral cutoff          0.2500000E+02      :
          :  -> integral neglect         0.1000000E-07      :
          :  -> SCF convergence          0.1000000E-05 Eh   :
          :  -> wf. convergence          0.1000000E-03 e    :
          :  Broyden damping             0.4000000          :
          :  net charge                          0          :
          :  unpaired electrons                  0          :
          ...................................................

 iter      E             dE          RMSdq      gap      omega  full diag
   1   -132.6594640 -0.132659E+03  0.592E-05    0.11       0.0  T
   2   -132.6594640  0.431470E-09  0.775E-05    0.11     152.0  T
   3   -132.6594640  0.546635E-08  0.209E-04    0.11      56.3  T

   *** convergence criteria satisfied after 3 iterations ***

         #    Occupation            Energy/Eh            Energy/eV
      -------------------------------------------------------------
         1        2.0000           -0.7385516             -20.0970
       ...           ...                  ...                  ...
       116        2.0000           -0.3908519             -10.6356
       117        2.0000           -0.3765091             -10.2453
       118        2.0000           -0.3701366             -10.0719
       119        2.0000           -0.3664373              -9.9713
       120        2.0000           -0.3584972              -9.7552
       121        2.0000           -0.3402808              -9.2595
       122        1.7875           -0.3231288              -8.7928 (HOMO)
       123        0.2125           -0.3190828              -8.6827 (LUMO)
       124                         -0.3016864              -8.2093
       125                         -0.2770649              -7.5393
       126                         -0.2688447              -7.3156
       127                         -0.2623433              -7.1387
       ...                                ...                  ...
       259                          0.7346934              19.9920
      -------------------------------------------------------------
                  HL-Gap            0.0040460 Eh            0.1101 eV
             Fermi-level           -0.3211058 Eh           -8.7377 eV

 SCC (total)                   0 d,  0 h,  0 min,  0.134 sec
 SCC setup                      ...        0 min,  0.000 sec (  0.000%)
 Dispersion                     ...        0 min,  0.001 sec (  0.746%)
 classical contributions        ...        0 min,  0.000 sec (  0.000%)
 integral evaluation            ...        0 min,  0.016 sec ( 11.940%)
 iterations                     ...        0 min,  0.056 sec ( 41.791%)
 molecular gradient             ...        0 min,  0.060 sec ( 44.776%)
 printout                       ...        0 min,  0.001 sec (  0.746%)

         :::::::::::::::::::::::::::::::::::::::::::::::::::::
         ::                     SUMMARY                     ::
         :::::::::::::::::::::::::::::::::::::::::::::::::::::
         :: total energy            -130.419393057338 Eh    ::
         :: gradient norm              0.000547319365 Eh/a0 ::
         :: HOMO-LUMO gap              0.110097923520 eV    ::
         ::.................................................::
         :: SCC energy              -132.660430628817 Eh    ::
         :: -> isotropic ES            0.005496722883 Eh    ::
         :: -> anisotropic ES          0.004279420646 Eh    ::
         :: -> anisotropic XC          0.055517880155 Eh    ::
         :: -> dispersion             -0.150187858838 Eh    ::
         :: repulsion energy           2.241037571479 Eh    ::
         :: add. restraining           0.000000000000 Eh    ::
         :: total charge               0.000000000779 e     ::
         :::::::::::::::::::::::::::::::::::::::::::::::::::::

           -------------------------------------------------
          |                Property Printout                |
           -------------------------------------------------

    * Orbital Energies and Occupations

         #    Occupation            Energy/Eh            Energy/eV
      -------------------------------------------------------------
         1        2.0000           -0.7385516             -20.0970
       ...           ...                  ...                  ...
       110        2.0000           -0.4161596             -11.3243
       111        2.0000           -0.4094155             -11.1408
       112        2.0000           -0.4069103             -11.0726
       113        2.0000           -0.4067199             -11.0674
       114        2.0000           -0.3998401             -10.8802
       115        2.0000           -0.3974302             -10.8146
       116        2.0000           -0.3908519             -10.6356
       117        2.0000           -0.3765091             -10.2453
       118        2.0000           -0.3701366             -10.0719
       119        2.0000           -0.3664373              -9.9713
       120        2.0000           -0.3584972              -9.7552
       121        2.0000           -0.3402808              -9.2595
       122        1.7875           -0.3231288              -8.7928 (HOMO)
       123        0.2125           -0.3190828              -8.6827 (LUMO)
       124                         -0.3016864              -8.2093
       125                         -0.2770649              -7.5393
       126                         -0.2688447              -7.3156
       127                         -0.2623433              -7.1387
       128                         -0.2551939              -6.9442
       129                         -0.2506886              -6.8216
       130                         -0.2446258              -6.6566
       131                         -0.2321791              -6.3179
       132                         -0.2262737              -6.1572
       133                         -0.2239034              -6.0927
       ...                                ...                  ...
       259                          0.7346934              19.9920
      -------------------------------------------------------------
                  HL-Gap            0.0040460 Eh            0.1101 eV
             Fermi-level           -0.3211058 Eh           -8.7377 eV

     #   Z          covCN         q      C6AA      α(0)
     1   6 C        2.955    -0.040    28.996     8.832
     2   6 C        2.915    -0.047    29.155     8.854
     3   6 C        2.888     0.001    28.008     8.677
     4   6 C        2.970     0.024    27.460     8.596
     5   6 C        2.974     0.013    27.722     8.636
     6   6 C        2.915    -0.030    28.744     8.792
     7   6 C        2.975    -0.038    28.945     8.825
     8   6 C        2.920    -0.037    28.911     8.817
     9   6 C        2.994     0.003    27.950     8.672
    10   6 C        2.973     0.046    26.971     8.519
    11   6 C        3.026    -0.006    28.132     8.700
    12   6 C        2.982     0.004    27.920     8.668
    13   6 C        3.092    -0.004    28.010     8.675
    14   6 C        2.966     0.004    27.941     8.670
    15   6 C        2.951    -0.039    28.961     8.827
    16   6 C        2.966     0.043    27.030     8.528
    17   6 C        2.919    -0.039    28.981     8.828
    18   6 C        3.003    -0.001    28.030     8.685
    19   6 C        2.974     0.011    27.756     8.642
    20   6 C        2.998    -0.009    28.225     8.715
    21   6 C        2.980     0.006    27.871     8.660
    22   6 C        2.992    -0.001    28.047     8.687
    23   6 C        3.001    -0.052    29.279     8.876
    24   6 C        2.965     0.030    27.338     8.576
    25   6 C        3.005    -0.009    28.218     8.714
    26   6 C        2.889    -0.001    28.061     8.685
    27   6 C        2.991     0.003    27.943     8.671
    28   6 C        2.996     0.002    27.976     8.676
    29   6 C        2.932    -0.042    29.055     8.840
    30   6 C        2.966     0.042    27.049     8.531
    31   6 C        2.978    -0.004    28.107     8.696
    32   6 C        2.994     0.001    27.983     8.677
    33   6 C        3.046    -0.002    28.035     8.684
    34   6 C        2.957     0.027    27.405     8.586
    35   6 C        2.996     0.001    27.996     8.679
    36   6 C        3.858     0.041    19.852     6.337
    37   6 C        2.971     0.008    27.834     8.654
    38   6 C        2.917    -0.034    28.839     8.806
    39   6 C        2.976     0.031    27.292     8.569
    40   6 C        3.083    -0.026    28.568     8.762
    41   6 C        3.019     0.002    27.961     8.674
    42   6 C        2.902    -0.028    28.708     8.785
    43   6 C        3.004    -0.054    29.322     8.883
    44   6 C        2.995    -0.002    28.062     8.690
    45   6 C        2.956    -0.039    28.959     8.827
    46   6 C        2.975    -0.002    28.060     8.689
    47   6 C        2.992    -0.001    28.032     8.685
    48   6 C        3.002     0.003    27.937     8.670
    49   1 H        0.926     0.047     2.363     2.404
    50   1 H        0.926     0.045     2.385     2.415
    51   1 H        0.926     0.040     2.451     2.448
    52   1 H        0.926     0.037     2.491     2.468
    53   1 H        0.926     0.043     2.405     2.425
    54   1 H        0.926     0.055     2.263     2.352
    55   1 H        0.926     0.038     2.473     2.459
    56   1 H        0.926     0.037     2.492     2.468
    57   1 H        0.926     0.040     2.443     2.444
    58   1 H        0.926     0.054     2.268     2.355
    59   1 H        0.926     0.038     2.476     2.461
    60   1 H        0.926     0.041     2.439     2.442
    61   1 H        0.926     0.038     2.479     2.462
    62   1 H        0.926     0.042     2.422     2.434
    63   1 H        0.926     0.047     2.357     2.401
    64   6 C        3.012    -0.045    29.089     8.847
    65   1 H        0.926     0.042     2.427     2.436
    66   1 H        0.924     0.049     2.330     2.387
    67  16 S        2.191    -0.108   145.578    20.307
    68  16 S        2.101    -0.050   143.132    20.136
    69  16 S        2.297    -0.112   145.722    20.317
    70  16 S        2.094    -0.059   143.480    20.160
    71  16 S        2.144    -0.159   147.754    20.458
    72   1 H        0.926     0.037     2.489     2.467

 Mol. C6AA /au·bohr⁶  :     120620.542462
 Mol. C8AA /au·bohr⁸  :    3656458.676439
 Mol. α(0) /au        :        569.382895


Wiberg/Mayer (AO) data.
largest (>0.10) Wiberg bond orders for each atom

 ---------------------------------------------------------------------------
     #   Z sym  total        # sym  WBO       # sym  WBO       # sym  WBO
 ---------------------------------------------------------------------------
     1   6 C    3.976 --     3 C    1.728     5 C    1.150    49 H    0.956
     2   6 C    3.771 --     7 C    1.418    13 C    1.266    57 H    0.956
     3   6 C    3.938 --     1 C    1.728    70 S    1.118    58 H    0.962
     4   6 C    3.848 --    18 C    1.310    13 C    1.288    70 S    1.047
     5   6 C    3.945 --    23 C    1.400    18 C    1.222     1 C    1.150
     6   6 C    3.975 --    29 C    1.467    64 C    1.402    59 H    0.968
     7   6 C    3.974 --    34 C    1.441     2 C    1.418    60 H    0.948
     8   6 C    3.935 --    38 C    1.566    33 C    1.254    50 H    0.956
     9   6 C    3.964 --    29 C    1.339    35 C    1.265    34 C    1.142
    10   6 C    3.948 --    64 C    1.406    35 C    1.331    67 S    1.035
    11   6 C    3.890 --    31 C    1.434    37 C    1.213    36 C    1.021
    12   6 C    3.919 --    32 C    1.301    38 C    1.280    37 C    1.153
    13   6 C    3.976 --     4 C    1.288     2 C    1.266    39 C    1.223
    14   6 C    3.939 --    40 C    1.421    41 C    1.196    35 C    1.122
    15   6 C    3.832 --    42 C    1.678    36 C    1.056    51 H    0.969
    16   6 C    3.887 --    43 C    1.386    41 C    1.293    67 S    1.063
    17   6 C    3.767 --    37 C    1.425    42 C    1.254    52 H    0.964
    18   6 C    3.985 --     4 C    1.310    44 C    1.223     5 C    1.222
    19   6 C    3.920 --    43 C    1.387    48 C    1.214    45 C    1.162
    20   6 C    3.978 --    39 C    1.394    44 C    1.212    46 C    1.132
    21   6 C    3.944 --    40 C    1.295    47 C    1.229    46 C    1.212
    22   6 C    3.975 --    47 C    1.262    41 C    1.243    48 C    1.218
    23   6 C    3.979 --     5 C    1.400    30 C    1.377    53 H    0.965
    24   6 C    3.852 --    48 C    1.324    33 C    1.283    68 S    1.057
    25   6 C    3.972 --    30 C    1.321    44 C    1.271    31 C    1.128
    26   6 C    3.923 --    45 C    1.716    68 S    1.120    54 H    0.962
    27   6 C    3.957 --    46 C    1.349    32 C    1.199    31 C    1.192
    28   6 C    3.969 --    32 C    1.252    47 C    1.251    33 C    1.235
    29   6 C    3.956 --     6 C    1.467     9 C    1.339    61 H    0.965
    30   6 C    3.908 --    23 C    1.377    25 C    1.321    71 S    1.059
    31   6 C    3.970 --    11 C    1.434    27 C    1.192    25 C    1.128
    32   6 C    3.979 --    12 C    1.301    28 C    1.252    27 C    1.199
    33   6 C    3.974 --    24 C    1.283     8 C    1.254    28 C    1.235
    34   6 C    3.761 --     7 C    1.441     9 C    1.142    69 S    1.025
    35   6 C    3.938 --    10 C    1.331     9 C    1.265    14 C    1.122
    36   6 C    3.970 --    15 C    1.056    11 C    1.021    66 H    0.935
                            71 S    0.885
    37   6 C    3.972 --    17 C    1.425    11 C    1.213    12 C    1.153
    38   6 C    3.979 --     8 C    1.566    12 C    1.280    55 H    0.962
    39   6 C    3.851 --    20 C    1.394    13 C    1.223    69 S    1.022
    40   6 C    3.936 --    14 C    1.421    21 C    1.295    72 H    0.959
    41   6 C    3.974 --    16 C    1.293    22 C    1.243    14 C    1.196
    42   6 C    3.983 --    15 C    1.678    17 C    1.254    56 H    0.967
    43   6 C    3.979 --    19 C    1.387    16 C    1.386    62 H    0.964
    44   6 C    3.951 --    25 C    1.271    18 C    1.223    20 C    1.212
    45   6 C    3.974 --    26 C    1.716    19 C    1.162    63 H    0.956
    46   6 C    3.907 --    27 C    1.349    21 C    1.212    20 C    1.132
    47   6 C    3.980 --    22 C    1.262    28 C    1.251    21 C    1.229
    48   6 C    3.981 --    24 C    1.324    22 C    1.218    19 C    1.214
    49   1 H    0.997 --     1 C    0.956
    50   1 H    0.997 --     8 C    0.956
    51   1 H    0.997 --    15 C    0.969
    52   1 H    0.998 --    17 C    0.964
    53   1 H    0.997 --    23 C    0.965
    54   1 H    0.995 --    26 C    0.962
    55   1 H    0.998 --    38 C    0.962
    56   1 H    0.998 --    42 C    0.967
    57   1 H    0.997 --     2 C    0.956
    58   1 H    0.995 --     3 C    0.962
    59   1 H    0.996 --     6 C    0.968
    60   1 H    0.993 --     7 C    0.948
    61   1 H    0.997 --    29 C    0.965
    62   1 H    0.997 --    43 C    0.964
    63   1 H    0.997 --    45 C    0.956
    64   6 C    3.945 --    10 C    1.406     6 C    1.402    65 H    0.967
    65   1 H    0.997 --    64 C    0.967
    66   1 H    0.981 --    36 C    0.935
    67  16 S    2.370 --    16 C    1.063    10 C    1.035
    68  16 S    2.468 --    26 C    1.120    24 C    1.057
    69  16 S    2.366 --    34 C    1.025    39 C    1.022
    70  16 S    2.466 --     3 C    1.118     4 C    1.047
    71  16 S    2.191 --    30 C    1.059    36 C    0.885
    72   1 H    0.997 --    40 C    0.959
 ---------------------------------------------------------------------------

Topologies differ in total number of bonds
Writing topology from bond orders to xtbtopo.mol

molecular dipole:
                 x           y           z       tot (Debye)
 q only:        0.290       0.414      -0.419
   full:        0.202       0.267      -0.669       1.901
molecular quadrupole (traceless):
                xx          xy          yy          xz          yz          zz
 q only:        6.745      14.656       8.176       7.268      -0.560     -14.922
  q+dip:       17.041      16.331      12.530      11.282      -0.314     -29.571
   full:       10.175      16.547       5.037      10.291      -1.818     -15.212

           -------------------------------------------------
          |                Geometry Summary                 |
           -------------------------------------------------

      molecular mass/u    :      766.9929297
   center of mass at/Å    :        0.0049206       0.0012421      -0.0043656
  moments of inertia/u·Å² :        0.8385043E+04   0.1137197E+05   0.1922409E+05
rotational constants/cm⁻¹ :        0.2010441E-02   0.1482385E-02   0.8769012E-03

 * 75 selected distances

     #   Z          #   Z                                           value/Å
     1   6 C        3   6 C                                       1.3358382
     1   6 C        5   6 C                                       1.4362743
     2   6 C        7   6 C                                       1.3842961
     2   6 C       13   6 C                                       1.4114067
     4   6 C       13   6 C                                       1.4037573
     4   6 C       18   6 C                                       1.4038857
     5   6 C       18   6 C                                       1.4235422
     5   6 C       23   6 C                                       1.3817065
     6   6 C       29   6 C                                       1.3742159
     9   6 C       29   6 C                                       1.4052938
    23   6 C       30   6 C                                       1.3853735
    25   6 C       30   6 C                                       1.4013460
    11   6 C       31   6 C                                       1.3860775
    27   6 C       31   6 C                                       1.4277260
    12   6 C       32   6 C                                       1.4070012
    27   6 C       32   6 C                                       1.4261448
    28   6 C       32   6 C                                       1.4149504
     8   6 C       33   6 C                                       1.4127777
    24   6 C       33   6 C                                       1.4067849
    28   6 C       33   6 C                                       1.4159773
     7   6 C       34   6 C                                       1.3807893
     9   6 C       35   6 C                                       1.4286399
    10   6 C       35   6 C                                       1.4032734
    15   6 C       36   6 C                                       1.4752133
    11   6 C       37   6 C                                       1.4262423
    17   6 C       37   6 C                                       1.3848993
     8   6 C       38   6 C                                       1.3615695
    12   6 C       38   6 C                                       1.4096842
    13   6 C       39   6 C                                       1.4178766
    20   6 C       39   6 C                                       1.3895122
    14   6 C       40   6 C                                       1.3852013
    21   6 C       40   6 C                                       1.4063043
    14   6 C       41   6 C                                       1.4319057
    16   6 C       41   6 C                                       1.4010215
    22   6 C       41   6 C                                       1.4227534
    15   6 C       42   6 C                                       1.3462833
    17   6 C       42   6 C                                       1.4124980
    16   6 C       43   6 C                                       1.3830284
    19   6 C       43   6 C                                       1.3847261
    18   6 C       44   6 C                                       1.4320753
    20   6 C       44   6 C                                       1.4303919
    25   6 C       44   6 C                                       1.4165945
    19   6 C       45   6 C                                       1.4332686
    26   6 C       45   6 C                                       1.3369940
    21   6 C       46   6 C                                       1.4311312
    27   6 C       46   6 C                                       1.3981532
    21   6 C       47   6 C                                       1.4200333
    22   6 C       47   6 C                                       1.4149117
    28   6 C       47   6 C                                       1.4114488
    19   6 C       48   6 C                                       1.4261769
    22   6 C       48   6 C                                       1.4317040
    24   6 C       48   6 C                                       1.4026020
     1   6 C       49   1 H                                       1.0809754
     8   6 C       50   1 H                                       1.0795354
    15   6 C       51   1 H                                       1.0790197
    17   6 C       52   1 H                                       1.0769842 (min)
    23   6 C       53   1 H                                       1.0793386
    26   6 C       54   1 H                                       1.0774902
    38   6 C       55   1 H                                       1.0779997
    42   6 C       56   1 H                                       1.0799836
     2   6 C       57   1 H                                       1.0787384
     3   6 C       58   1 H                                       1.0775950
     6   6 C       59   1 H                                       1.0788754
     7   6 C       60   1 H                                       1.0809819
    29   6 C       61   1 H                                       1.0783995
    43   6 C       62   1 H                                       1.0795708
    45   6 C       63   1 H                                       1.0810620
     6   6 C       64   6 C                                       1.3824584
    10   6 C       64   6 C                                       1.3846681
    64   6 C       65   1 H                                       1.0789692
    36   6 C       66   1 H                                       1.1002174
    16   6 C       67  16 S                                       1.7478466 (max)
    26   6 C       68  16 S                                       1.7276906
     3   6 C       70  16 S                                       1.7287452
    40   6 C       72   1 H                                       1.0802298

 * 3 distinct bonds (by element types)

   Z      Z             #   av. dist./Å        max./Å        min./Å
   1 H    6 C          18     1.0803314     1.1002174     1.0769842
   6 C    6 C          54     1.4046002     1.4752133     1.3358382
   6 C   16 S           3     1.7347608     1.7478466     1.7276906


optimized geometry written to: xtbopt.xyz


           -------------------------------------------------
          | TOTAL ENERGY             -130.419393057338 Eh   |
          | GRADIENT NORM               0.000547319365 Eh/α |
          | HOMO-LUMO GAP               0.110097923520 eV   |
           -------------------------------------------------

------------------------------------------------------------------------
 * finished run on 2025/12/08 at 00:35:00.006     
------------------------------------------------------------------------
 total:
 * wall-time:     0 d,  0 h,  0 min,  4.247 sec
 *  cpu-time:     0 d,  0 h,  0 min, 16.641 sec
 * ratio c/w:     3.918 speedup
 SCF:
 * wall-time:     0 d,  0 h,  0 min,  0.404 sec
 *  cpu-time:     0 d,  0 h,  0 min,  1.469 sec
 * ratio c/w:     3.636 speedup
 ANC optimizer:
 * wall-time:     0 d,  0 h,  0 min,  3.778 sec
 *  cpu-time:     0 d,  0 h,  0 min, 14.906 sec
 * ratio c/w:     3.946 speedup

normal termination of xtb
