      -----------------------------------------------------------      
     |                   =====================                   |     
     |                           x T B                           |     
     |                   =====================                   |     
     |                         S. Grimme                         |     
     |          Mulliken Center for Theoretical Chemistry        |     
     |                    University of Bonn                     |     
      -----------------------------------------------------------      

   * xtb version 6.7.1pre (5071a88) compiled by 'Marcel@Raven' on 2024-07-23

   xtb is free software: you can redistribute it and/or modify it under
   the terms of the GNU Lesser General Public License as published by
   the Free Software Foundation, either version 3 of the License, or
   (at your option) any later version.
   
   xtb is distributed in the hope that it will be useful,
   but WITHOUT ANY WARRANTY; without even the implied warranty of
   MERCHANTABILITY or FITNESS FOR A PARTICULAR PURPOSE.  See the
   GNU Lesser General Public License for more details.
   
   Cite this work as:
   * C. Bannwarth, E. Caldeweyher, S. Ehlert, A. Hansen, P. Pracht,
     J. Seibert, S. Spicher, S. Grimme, WIREs Comput. Mol. Sci., 2020, 11,
     e01493. DOI: 10.1002/wcms.1493
   
   for GFN2-xTB:
   * C. Bannwarth, S. Ehlert and S. Grimme., J. Chem. Theory Comput., 2019,
     15, 1652-1671. DOI: 10.1021/acs.jctc.8b01176
   for GFN1-xTB:
   * S. Grimme, C. Bannwarth, P. Shushkov, J. Chem. Theory Comput., 2017,
     13, 1989-2009. DOI: 10.1021/acs.jctc.7b00118
   for GFN0-xTB:
   * P. Pracht, E. Caldeweyher, S. Ehlert, S. Grimme, ChemRxiv, 2019, preprint.
     DOI: 10.26434/chemrxiv.8326202.v1
   for GFN-FF:
   * S. Spicher and S. Grimme, Angew. Chem. Int. Ed., 2020, 59, 15665-15673.
     DOI: 10.1002/anie.202004239
   
   for ALPB and GBSA implicit solvation:
   * S. Ehlert, M. Stahn, S. Spicher, S. Grimme, J. Chem. Theory Comput.,
     2021, 17, 4250-4261. DOI: 10.1021/acs.jctc.1c00471
   
   for ddCOSMO and CPCM-X implicit solvation:
   * M. Stahn, S. Ehlert, S. Grimme, J. Phys. Chem. A,
     2023, XX, XXXX-XXXX. DOI: 10.1021/acs.jpca.3c04382
   
   for DFT-D4:
   * E. Caldeweyher, C. Bannwarth and S. Grimme, J. Chem. Phys., 2017,
     147, 034112. DOI: 10.1063/1.4993215
   * E. Caldeweyher, S. Ehlert, A. Hansen, H. Neugebauer, S. Spicher,
     C. Bannwarth and S. Grimme, J. Chem. Phys., 2019, 150, 154122.
     DOI: 10.1063/1.5090222
   * E. Caldeweyher, J.-M. Mewes, S. Ehlert and S. Grimme, Phys. Chem. Chem. Phys.
     2020, 22, 8499-8512. DOI: 10.1039/D0CP00502A
   
   for sTDA-xTB:
   * S. Grimme and C. Bannwarth, J. Chem. Phys., 2016, 145, 054103.
     DOI: 10.1063/1.4959605
   
   in the mass-spec context:
   * V. Asgeirsson, C. Bauer and S. Grimme, Chem. Sci., 2017, 8, 4879.
     DOI: 10.1039/c7sc00601b
   * J. Koopman and S. Grimme, ACS Omega 2019, 4, 12, 15120-15133.
     DOI: 10.1021/acsomega.9b02011
   
   for metadynamics refer to:
   * S. Grimme, J. Chem. Theory Comput., 2019, 155, 2847-2862
     DOI: 10.1021/acs.jctc.9b00143
   
   for SPH calculations refer to:
   * S. Spicher and S. Grimme, J. Chem. Theory Comput., 2021, 17, 1701-1714
     DOI: 10.1021/acs.jctc.0c01306
   
   for ONIOM refer to:
   * C. Plett, A. Katbashev, S. Ehlert, S. Grimme, M. Bursch,
     Phys. Chem. Chem. Phys., 2023, 25, 17860-17868. DOI: 10.1039/D3CP02178E
   
   for DIPRO refer to:
   * J. Kohn, N. Gildemeister, S. Grimme, D. Fazzi, A. Hansen,
     J. Chem. Phys., 2023, just accepted.
   
   for PTB refer to:
   * S. Grimme, M. Mueller, A. Hansen, J. Chem. Phys., 2023, 158, 124111.
     DOI: 10.1063/5.0137838
   
   with help from (in alphabetical order)
   P. Atkinson, C. Bannwarth, F. Bohle, G. Brandenburg, E. Caldeweyher
   M. Checinski, S. Dohm, S. Ehlert, S. Ehrlich, I. Gerasimov, C. Hölzer
   A. Katbashev, J. Kohn, J. Koopman, C. Lavigne, S. Lehtola, F. März, M. Müller,
   F. Musil, H. Neugebauer, J. Pisarek, C. Plett, P. Pracht, F. Pultar,
   J. Seibert, P. Shushkov, S. Spicher, M. Stahn, M. Steiner, T. Strunk,
   J. Stückrath, T. Rose, and J. Unsleber
   
 * started run on 2025/12/08 at 00:35:00.035     
   ID    Z sym.   atoms
    1    6 C      1-48, 64
    2    1 H      49-63, 65, 66, 72
    3   16 S      67-71

           -------------------------------------------------
          |                Calculation Setup                |
           -------------------------------------------------

          program call               : xtb "C:\Users\LENOVO GAMING\Documents\GitHub\molecular-conductivity-sim\results\1nm-5Sdoped-7percent\xtbopt.xyz" --sp
          coordinate file            : C:\Users\LENOVO GAMING\Documents\GitHub\molecular-conductivity-sim\results\1nm-5Sdoped-7percent\xtbopt.xyz
          omp threads                :                    16


           -------------------------------------------------
          |                 G F N 2 - x T B                 |
           -------------------------------------------------

        Reference                      10.1021/acs.jctc.8b01176
      * Hamiltonian:
        H0-scaling (s, p, d)           1.850000    2.230000    2.230000
        zeta-weighting                 0.500000
      * Dispersion:
        s8                             2.700000
        a1                             0.520000
        a2                             5.000000
        s9                             5.000000
      * Repulsion:
        kExp                           1.500000    1.000000
        rExp                           1.000000
      * Coulomb:
        alpha                          2.000000
        third order                    shell-resolved
        anisotropic                    true
        a3                             3.000000
        a5                             4.000000
        cn-shift                       1.200000
        cn-exp                         4.000000
        max-rad                        5.000000

q/qsh data taken from xtbrestart
CAMM data taken from xtbrestart

          ...................................................
          :                      SETUP                      :
          :.................................................:
          :  # basis functions                 264          :
          :  # atomic orbitals                 259          :
          :  # shells                          131          :
          :  # electrons                       244          :
          :  max. iterations                   250          :
          :  Hamiltonian                  GFN2-xTB          :
          :  restarted?                       true          :
          :  GBSA solvation                  false          :
          :  PC potential                    false          :
          :  electronic temp.          300.0000000     K    :
          :  accuracy                    1.0000000          :
          :  -> integral cutoff          0.2500000E+02      :
          :  -> integral neglect         0.1000000E-07      :
          :  -> SCF convergence          0.1000000E-05 Eh   :
          :  -> wf. convergence          0.1000000E-03 e    :
          :  Broyden damping             0.4000000          :
          :  net charge                          0          :
          :  unpaired electrons                  0          :
          ...................................................

 iter      E             dE          RMSdq      gap      omega  full diag
   1   -132.6594640 -0.132659E+03  0.428E-05    0.11       0.0  T
   2   -132.6594639  0.372665E-07  0.505E-04    0.11      23.3  T
   3   -132.6594640 -0.372632E-07  0.453E-05    0.11     260.4  T

   *** convergence criteria satisfied after 3 iterations ***

         #    Occupation            Energy/Eh            Energy/eV
      -------------------------------------------------------------
         1        2.0000           -0.7385504             -20.0970
       ...           ...                  ...                  ...
       116        2.0000           -0.3908519             -10.6356
       117        2.0000           -0.3765093             -10.2453
       118        2.0000           -0.3701362             -10.0719
       119        2.0000           -0.3664377              -9.9713
       120        2.0000           -0.3584974              -9.7552
       121        2.0000           -0.3402812              -9.2595
       122        1.7875           -0.3231291              -8.7928 (HOMO)
       123        0.2125           -0.3190830              -8.6827 (LUMO)
       124                         -0.3016865              -8.2093
       125                         -0.2770648              -7.5393
       126                         -0.2688444              -7.3156
       127                         -0.2623433              -7.1387
       ...                                ...                  ...
       259                          0.7346936              19.9920
      -------------------------------------------------------------
                  HL-Gap            0.0040460 Eh            0.1101 eV
             Fermi-level           -0.3211060 Eh           -8.7377 eV

 SCC (total)                   0 d,  0 h,  0 min,  0.105 sec
 SCC setup                      ...        0 min,  0.001 sec (  0.953%)
 Dispersion                     ...        0 min,  0.003 sec (  2.857%)
 classical contributions        ...        0 min,  0.000 sec (  0.000%)
 integral evaluation            ...        0 min,  0.012 sec ( 11.428%)
 iterations                     ...        0 min,  0.062 sec ( 59.048%)
 molecular gradient             ...        0 min,  0.026 sec ( 24.762%)
 printout                       ...        0 min,  0.001 sec (  0.952%)

         :::::::::::::::::::::::::::::::::::::::::::::::::::::
         ::                     SUMMARY                     ::
         :::::::::::::::::::::::::::::::::::::::::::::::::::::
         :: total energy            -130.419393063269 Eh    ::
         :: gradient norm              0.000549329739 Eh/a0 ::
         :: HOMO-LUMO gap              0.110097755700 eV    ::
         ::.................................................::
         :: SCC energy              -132.660430634747 Eh    ::
         :: -> isotropic ES            0.005498876781 Eh    ::
         :: -> anisotropic ES          0.004278546181 Eh    ::
         :: -> anisotropic XC          0.055517883392 Eh    ::
         :: -> dispersion             -0.150187905749 Eh    ::
         :: repulsion energy           2.241037571479 Eh    ::
         :: add. restraining           0.000000000000 Eh    ::
         :: total charge               0.000000000779 e     ::
         :::::::::::::::::::::::::::::::::::::::::::::::::::::

           -------------------------------------------------
          |                Property Printout                |
           -------------------------------------------------

    * Orbital Energies and Occupations

         #    Occupation            Energy/Eh            Energy/eV
      -------------------------------------------------------------
         1        2.0000           -0.7385504             -20.0970
       ...           ...                  ...                  ...
       110        2.0000           -0.4161596             -11.3243
       111        2.0000           -0.4094154             -11.1408
       112        2.0000           -0.4069106             -11.0726
       113        2.0000           -0.4067197             -11.0674
       114        2.0000           -0.3998404             -10.8802
       115        2.0000           -0.3974303             -10.8146
       116        2.0000           -0.3908519             -10.6356
       117        2.0000           -0.3765093             -10.2453
       118        2.0000           -0.3701362             -10.0719
       119        2.0000           -0.3664377              -9.9713
       120        2.0000           -0.3584974              -9.7552
       121        2.0000           -0.3402812              -9.2595
       122        1.7875           -0.3231291              -8.7928 (HOMO)
       123        0.2125           -0.3190830              -8.6827 (LUMO)
       124                         -0.3016865              -8.2093
       125                         -0.2770648              -7.5393
       126                         -0.2688444              -7.3156
       127                         -0.2623433              -7.1387
       128                         -0.2551939              -6.9442
       129                         -0.2506887              -6.8216
       130                         -0.2446259              -6.6566
       131                         -0.2321791              -6.3179
       132                         -0.2262738              -6.1572
       133                         -0.2239035              -6.0927
       ...                                ...                  ...
       259                          0.7346936              19.9920
      -------------------------------------------------------------
                  HL-Gap            0.0040460 Eh            0.1101 eV
             Fermi-level           -0.3211060 Eh           -8.7377 eV

     #   Z          covCN         q      C6AA      α(0)
     1   6 C        2.955    -0.040    28.996     8.832
     2   6 C        2.915    -0.047    29.155     8.854
     3   6 C        2.888     0.001    28.008     8.677
     4   6 C        2.970     0.024    27.460     8.596
     5   6 C        2.974     0.013    27.722     8.636
     6   6 C        2.915    -0.030    28.744     8.792
     7   6 C        2.975    -0.038    28.945     8.825
     8   6 C        2.920    -0.037    28.911     8.817
     9   6 C        2.994     0.003    27.950     8.672
    10   6 C        2.973     0.046    26.971     8.519
    11   6 C        3.026    -0.006    28.132     8.700
    12   6 C        2.982     0.004    27.920     8.668
    13   6 C        3.092    -0.004    28.010     8.675
    14   6 C        2.966     0.004    27.941     8.670
    15   6 C        2.951    -0.039    28.961     8.827
    16   6 C        2.966     0.043    27.030     8.528
    17   6 C        2.919    -0.039    28.981     8.828
    18   6 C        3.003    -0.001    28.030     8.685
    19   6 C        2.974     0.011    27.756     8.642
    20   6 C        2.998    -0.009    28.225     8.715
    21   6 C        2.980     0.006    27.871     8.660
    22   6 C        2.992    -0.001    28.047     8.687
    23   6 C        3.001    -0.052    29.279     8.876
    24   6 C        2.965     0.030    27.338     8.576
    25   6 C        3.005    -0.009    28.218     8.714
    26   6 C        2.889    -0.001    28.061     8.685
    27   6 C        2.991     0.003    27.943     8.671
    28   6 C        2.996     0.002    27.976     8.676
    29   6 C        2.932    -0.042    29.055     8.840
    30   6 C        2.966     0.042    27.049     8.531
    31   6 C        2.978    -0.004    28.107     8.696
    32   6 C        2.994     0.001    27.983     8.677
    33   6 C        3.046    -0.002    28.035     8.684
    34   6 C        2.957     0.027    27.405     8.586
    35   6 C        2.996     0.001    27.996     8.679
    36   6 C        3.858     0.041    19.852     6.337
    37   6 C        2.971     0.008    27.834     8.654
    38   6 C        2.917    -0.034    28.839     8.806
    39   6 C        2.976     0.031    27.292     8.569
    40   6 C        3.083    -0.026    28.568     8.762
    41   6 C        3.019     0.002    27.961     8.674
    42   6 C        2.902    -0.028    28.708     8.785
    43   6 C        3.004    -0.054    29.322     8.883
    44   6 C        2.995    -0.002    28.062     8.690
    45   6 C        2.956    -0.039    28.959     8.827
    46   6 C        2.975    -0.002    28.060     8.689
    47   6 C        2.992    -0.001    28.032     8.685
    48   6 C        3.002     0.003    27.937     8.670
    49   1 H        0.926     0.047     2.363     2.404
    50   1 H        0.926     0.045     2.385     2.415
    51   1 H        0.926     0.040     2.451     2.448
    52   1 H        0.926     0.037     2.491     2.468
    53   1 H        0.926     0.043     2.405     2.425
    54   1 H        0.926     0.055     2.263     2.352
    55   1 H        0.926     0.038     2.473     2.459
    56   1 H        0.926     0.037     2.492     2.468
    57   1 H        0.926     0.040     2.443     2.444
    58   1 H        0.926     0.054     2.268     2.355
    59   1 H        0.926     0.038     2.476     2.461
    60   1 H        0.926     0.041     2.439     2.442
    61   1 H        0.926     0.038     2.479     2.462
    62   1 H        0.926     0.042     2.422     2.434
    63   1 H        0.926     0.047     2.357     2.401
    64   6 C        3.012    -0.045    29.089     8.847
    65   1 H        0.926     0.042     2.427     2.436
    66   1 H        0.924     0.049     2.330     2.387
    67  16 S        2.191    -0.108   145.578    20.307
    68  16 S        2.101    -0.050   143.132    20.136
    69  16 S        2.297    -0.112   145.722    20.317
    70  16 S        2.094    -0.059   143.481    20.160
    71  16 S        2.144    -0.159   147.754    20.458
    72   1 H        0.926     0.037     2.489     2.467

 Mol. C6AA /au·bohr⁶  :     120620.541443
 Mol. C8AA /au·bohr⁸  :    3656458.669996
 Mol. α(0) /au        :        569.382893


Wiberg/Mayer (AO) data.
largest (>0.10) Wiberg bond orders for each atom

 ---------------------------------------------------------------------------
     #   Z sym  total        # sym  WBO       # sym  WBO       # sym  WBO
 ---------------------------------------------------------------------------
     1   6 C    3.976 --     3 C    1.728     5 C    1.150    49 H    0.956
     2   6 C    3.771 --     7 C    1.418    13 C    1.266    57 H    0.956
     3   6 C    3.938 --     1 C    1.728    70 S    1.118    58 H    0.962
     4   6 C    3.848 --    18 C    1.310    13 C    1.288    70 S    1.047
     5   6 C    3.945 --    23 C    1.400    18 C    1.222     1 C    1.150
     6   6 C    3.975 --    29 C    1.467    64 C    1.402    59 H    0.968
     7   6 C    3.974 --    34 C    1.441     2 C    1.418    60 H    0.948
     8   6 C    3.935 --    38 C    1.566    33 C    1.254    50 H    0.956
     9   6 C    3.964 --    29 C    1.339    35 C    1.265    34 C    1.142
    10   6 C    3.948 --    64 C    1.406    35 C    1.331    67 S    1.035
    11   6 C    3.890 --    31 C    1.434    37 C    1.213    36 C    1.021
    12   6 C    3.919 --    32 C    1.301    38 C    1.280    37 C    1.153
    13   6 C    3.976 --     4 C    1.288     2 C    1.266    39 C    1.223
    14   6 C    3.939 --    40 C    1.421    41 C    1.196    35 C    1.122
    15   6 C    3.832 --    42 C    1.678    36 C    1.056    51 H    0.969
    16   6 C    3.887 --    43 C    1.386    41 C    1.293    67 S    1.063
    17   6 C    3.767 --    37 C    1.425    42 C    1.254    52 H    0.964
    18   6 C    3.985 --     4 C    1.310    44 C    1.223     5 C    1.222
    19   6 C    3.920 --    43 C    1.387    48 C    1.214    45 C    1.162
    20   6 C    3.978 --    39 C    1.394    44 C    1.212    46 C    1.132
    21   6 C    3.944 --    40 C    1.295    47 C    1.229    46 C    1.212
    22   6 C    3.975 --    47 C    1.262    41 C    1.243    48 C    1.218
    23   6 C    3.979 --     5 C    1.400    30 C    1.377    53 H    0.965
    24   6 C    3.852 --    48 C    1.324    33 C    1.283    68 S    1.057
    25   6 C    3.972 --    30 C    1.321    44 C    1.271    31 C    1.128
    26   6 C    3.923 --    45 C    1.716    68 S    1.120    54 H    0.962
    27   6 C    3.957 --    46 C    1.349    32 C    1.199    31 C    1.192
    28   6 C    3.969 --    32 C    1.252    47 C    1.251    33 C    1.235
    29   6 C    3.956 --     6 C    1.467     9 C    1.339    61 H    0.965
    30   6 C    3.908 --    23 C    1.377    25 C    1.321    71 S    1.059
    31   6 C    3.970 --    11 C    1.434    27 C    1.192    25 C    1.128
    32   6 C    3.979 --    12 C    1.301    28 C    1.252    27 C    1.199
    33   6 C    3.974 --    24 C    1.283     8 C    1.254    28 C    1.235
    34   6 C    3.761 --     7 C    1.441     9 C    1.142    69 S    1.025
    35   6 C    3.938 --    10 C    1.331     9 C    1.265    14 C    1.122
    36   6 C    3.970 --    15 C    1.056    11 C    1.021    66 H    0.935
                            71 S    0.885
    37   6 C    3.972 --    17 C    1.425    11 C    1.213    12 C    1.153
    38   6 C    3.979 --     8 C    1.566    12 C    1.280    55 H    0.962
    39   6 C    3.851 --    20 C    1.394    13 C    1.223    69 S    1.022
    40   6 C    3.936 --    14 C    1.421    21 C    1.295    72 H    0.959
    41   6 C    3.974 --    16 C    1.293    22 C    1.243    14 C    1.196
    42   6 C    3.983 --    15 C    1.678    17 C    1.254    56 H    0.967
    43   6 C    3.979 --    19 C    1.387    16 C    1.386    62 H    0.964
    44   6 C    3.951 --    25 C    1.271    18 C    1.223    20 C    1.212
    45   6 C    3.974 --    26 C    1.716    19 C    1.162    63 H    0.956
    46   6 C    3.907 --    27 C    1.349    21 C    1.212    20 C    1.132
    47   6 C    3.980 --    22 C    1.262    28 C    1.251    21 C    1.229
    48   6 C    3.981 --    24 C    1.324    22 C    1.218    19 C    1.214
    49   1 H    0.997 --     1 C    0.956
    50   1 H    0.997 --     8 C    0.956
    51   1 H    0.997 --    15 C    0.969
    52   1 H    0.998 --    17 C    0.964
    53   1 H    0.997 --    23 C    0.965
    54   1 H    0.995 --    26 C    0.962
    55   1 H    0.998 --    38 C    0.962
    56   1 H    0.998 --    42 C    0.967
    57   1 H    0.997 --     2 C    0.956
    58   1 H    0.995 --     3 C    0.962
    59   1 H    0.996 --     6 C    0.968
    60   1 H    0.993 --     7 C    0.948
    61   1 H    0.997 --    29 C    0.965
    62   1 H    0.997 --    43 C    0.964
    63   1 H    0.997 --    45 C    0.956
    64   6 C    3.945 --    10 C    1.406     6 C    1.402    65 H    0.967
    65   1 H    0.997 --    64 C    0.967
    66   1 H    0.981 --    36 C    0.935
    67  16 S    2.370 --    16 C    1.063    10 C    1.035
    68  16 S    2.468 --    26 C    1.120    24 C    1.057
    69  16 S    2.366 --    34 C    1.025    39 C    1.022
    70  16 S    2.466 --     3 C    1.118     4 C    1.047
    71  16 S    2.191 --    30 C    1.059    36 C    0.885
    72   1 H    0.997 --    40 C    0.959
 ---------------------------------------------------------------------------

Topologies differ in total number of bonds
Writing topology from bond orders to xtbtopo.mol

molecular dipole:
                 x           y           z       tot (Debye)
 q only:        0.290       0.414      -0.419
   full:        0.202       0.267      -0.669       1.901
molecular quadrupole (traceless):
                xx          xy          yy          xz          yz          zz
 q only:        6.745      14.656       8.176       7.268      -0.561     -14.922
  q+dip:       17.041      16.330      12.530      11.282      -0.314     -29.571
   full:       10.175      16.547       5.037      10.291      -1.818     -15.212


           -------------------------------------------------
          | TOTAL ENERGY             -130.419393063269 Eh   |
          | GRADIENT NORM               0.000549329739 Eh/α |
          | HOMO-LUMO GAP               0.110097755700 eV   |
           -------------------------------------------------

------------------------------------------------------------------------
 * finished run on 2025/12/08 at 00:35:00.193     
------------------------------------------------------------------------
 total:
 * wall-time:     0 d,  0 h,  0 min,  0.154 sec
 *  cpu-time:     0 d,  0 h,  0 min,  1.781 sec
 * ratio c/w:    11.567 speedup
 SCF:
 * wall-time:     0 d,  0 h,  0 min,  0.106 sec
 *  cpu-time:     0 d,  0 h,  0 min,  1.156 sec
 * ratio c/w:    10.908 speedup

normal termination of xtb
