72
 energy: -130.419393057338 gnorm: 0.000547319365 xtb: 6.7.1pre (5071a88)
C           -6.34281398809835       -2.49251007996775        0.27469843118797
C           -1.54070519359126       -4.59907366592177        0.28271734245499
C           -6.08516904576084       -3.80062283317257        0.19149135081055
C           -3.46045915084210       -3.05446213668016        0.19998225246478
C           -5.34914082665122       -1.45728017292561        0.21308532870293
C            3.95977767877078       -5.65443427985589       -0.37674870685624
C           -0.18416062319733       -4.81316309227044        0.10885574432855
C            1.49538495577999        4.69641306021586        0.60055982222690
C            2.17125571346798       -4.03583816122226       -0.02859106720385
C            4.34852221748383       -3.32763881184954       -0.76212710739347
C           -2.96482305801229        3.05969051332401       -0.48369811341013
C           -0.72818826983629        3.91707128152549        0.05422650005295
C           -2.09159311190179       -3.30372765127699        0.38601106174443
C            2.58126637348254       -1.58848719399533       -0.55792044556854
C           -4.72374137525350        4.68035801188861       -1.27709692842820
C            4.88599990804786       -0.67292572414068       -0.51542884286770
C           -2.55580720560467        5.45478591953115       -0.58506788691683
C           -3.95578961952813       -1.74184150549992        0.14929336237082
C            5.33215218724504        1.61077957731842        0.12992923668196
C           -1.62313356107965       -0.90534006184562        0.13511836256856
C            0.71252593867101       -0.03106112478514       -0.28891152859698
C            3.01908628837194        0.79653311395154       -0.07516220886072
C           -5.76711879005876       -0.14040189944435        0.22853101231430
C            3.41024507410499        3.13971982754675        0.47265702539013
C           -3.49846455975898        0.67341044489951       -0.08933933758582
C            6.03037903228731        3.87398298802855        0.77535708189296
C           -1.16162518391660        1.49625170299409       -0.05235733937941
C            1.13112323778640        2.33504235453823        0.16928336288360
C            2.67402614678889       -5.34782237460791       -0.00084843414082
C           -4.87089453741670        0.90468158824892        0.07412251105977
C           -2.55663254484839        1.76877099751181       -0.18685184751264
C           -0.25380994560052        2.59257484790878        0.03616139618527
C            2.02834130129874        3.39939054889979        0.42842426178354
C            0.79772545117245       -3.88488072759933        0.39305676323713
C            3.02174504264192       -2.97620299307213       -0.47001230850797
C           -4.33875158770638        3.27924240076127       -1.02231906326810
C           -2.09121594807411        4.17603949812684       -0.32640130276859
C            0.17258361744004        4.94606845204173        0.39625589598997
C           -1.24124501927233       -2.17930377080578        0.53751300315856
C            1.23826966115720       -1.27382430827130       -0.68492236303702
C            3.50295494319243       -0.51036052938496       -0.36174041336407
C           -3.87128468083088        5.69503695811145       -1.03998393758892
C            5.77297819858293        0.35561119829952       -0.25437628963699
C           -3.02802402415723       -0.65733960963978        0.03119991849136
C            6.31141233764812        2.61235161888642        0.43351019703343
C           -0.68448398781550        0.18207637498543       -0.06292102881975
C            1.62385311793638        1.02887887382883       -0.03890293557144
C            3.93071195018427        1.86984494274958        0.18313306795451
H           -7.37020042070235       -2.16854081837929        0.36430081456320
H            2.15965177604028        5.50637274552476        0.86154119757743
H           -5.72531594966152        4.84678771310414       -1.64238160522124
H           -1.90541846267365        6.30496618385767       -0.46639742101386
H           -6.81586496927703        0.08817844363171        0.34190687400194
H            6.78780072164604        4.60448827278097        1.00700168590254
H           -0.18808779065972        5.95534882590556        0.51180805885190
H           -4.17506322219927        6.71463534779535       -1.22573122772687
H           -2.21597313410844       -5.42561229756645        0.12611811722302
H           -6.85508834446991       -4.55450452182419        0.20136295643590
H            4.31051928095991       -6.67431397681907       -0.34850750784164
H            0.10949992206328       -5.74157063271636       -0.36055296483466
H            2.03573353044094       -6.13565432195072        0.36636907606582
H            6.83085777945089        0.17188203081438       -0.36665877252201
H            7.34685839694784        2.30579275601236        0.38283597660386
C            4.81411082268985       -4.63156054266219       -0.74422005657434
H            5.84314360590044       -4.82558538570094       -1.00425899912059
H           -4.49588713038453        2.66971317495489       -1.92468297534334
S            5.56827017042143       -2.13279177744705       -1.19238198365016
S            4.43115369653362        4.51927764678684        0.88017855654976
S            0.28838158267762       -2.50088747027139        1.37359378893319
S           -4.49853777747600       -4.47634851776160        0.07084484258780
S           -5.55256846231643        2.52229133490088        0.17173109279532
H            0.56873984342781       -2.01066960085749       -1.10407037992824
