72
 energy: -130.405140859677 gnorm: 0.049161638032 xtb: 6.7.1pre (5071a88)
C           -6.39616500000000       -2.53147200000000        0.18890700000000
C           -1.56294600000000       -4.67599100000000        0.44308400000000
C           -6.13718300000000       -3.84879600000000        0.15010200000000
C           -3.48812500000000       -3.09946900000000        0.24076500000000
C           -5.39068200000000       -1.48945800000000        0.14562000000000
C            3.94400300000000       -5.69913600000000       -0.53235200000000
C           -0.20612000000000       -4.91226700000000        0.27252000000000
C            1.51893200000000        4.75982300000000        0.54187100000000
C            2.15160100000000       -4.07898100000000       -0.03549600000000
C            4.38909500000000       -3.34957100000000       -0.73609600000000
C           -2.99590800000000        3.08004700000000       -0.45286900000000
C           -0.71746500000000        3.94319400000000        0.04370200000000
C           -2.12422300000000       -3.35175400000000        0.47656600000000
C            2.62228300000000       -1.58940600000000       -0.52166800000000
C           -4.77844400000000        4.74910400000000       -1.20196300000000
C            4.94415400000000       -0.65981800000000       -0.47978100000000
C           -2.55424200000000        5.48302500000000       -0.58601600000000
C           -3.98252100000000       -1.77236300000000        0.13771600000000
C            5.39307500000000        1.64993000000000        0.12732000000000
C           -1.63316400000000       -0.92797100000000        0.18354800000000
C            0.73726500000000       -0.01803900000000       -0.24580300000000
C            3.05852400000000        0.82258500000000       -0.05417700000000
C           -5.81795200000000       -0.17081700000000        0.11547900000000
C            3.45880700000000        3.19447800000000        0.47119200000000
C           -3.52930900000000        0.66956700000000       -0.09906500000000
C            6.09132200000000        3.93252600000000        0.75273100000000
C           -1.16660500000000        1.50287600000000       -0.03229200000000
C            1.15984100000000        2.37041700000000        0.17848000000000
C            2.65471800000000       -5.41147600000000       -0.14839900000000
C           -4.91753300000000        0.88955100000000       -0.00265400000000
C           -2.58374100000000        1.78356200000000       -0.16780100000000
C           -0.24287500000000        2.61582500000000        0.04559500000000
C            2.06031000000000        3.45236400000000        0.41347300000000
C            0.80497900000000       -3.96202100000000        0.49093600000000
C            3.03846800000000       -2.99296700000000       -0.43819200000000
C           -4.38550500000000        3.32105900000000       -1.00235600000000
C           -2.10149100000000        4.20291100000000       -0.32291600000000
C            0.18491800000000        4.99494500000000        0.34784300000000
C           -1.26745300000000       -2.21454000000000        0.62319500000000
C            1.26793100000000       -1.26018600000000       -0.62639400000000
C            3.54975400000000       -0.49458700000000       -0.33961600000000
C           -3.89915800000000        5.75257500000000       -1.00412500000000
C            5.83656200000000        0.37945600000000       -0.22702000000000
C           -3.04644300000000       -0.67674900000000        0.03508200000000
C            6.37799800000000        2.66316400000000        0.40550400000000
C           -0.68774800000000        0.18540500000000       -0.02044500000000
C            1.65358100000000        1.05568800000000       -0.00984700000000
C            3.97738000000000        1.90876700000000        0.18862800000000
H           -7.43404600000000       -2.21141300000000        0.23314100000000
H            2.16564400000000        5.60342700000000        0.75591600000000
H           -5.79176900000000        4.94129800000000       -1.54269400000000
H           -1.88264400000000        6.32795100000000       -0.49977900000000
H           -6.88285400000000        0.03840900000000        0.15227600000000
H            6.85998000000000        4.66656400000000        0.96981000000000
H           -0.17668400000000        6.01215700000000        0.43243900000000
H           -4.19118100000000        6.78356700000000       -1.18071400000000
H           -2.23426400000000       -5.51407000000000        0.29410800000000
H           -6.92456100000000       -4.59571800000000        0.15145800000000
H            4.28171500000000       -6.73096400000000       -0.57379800000000
H            0.06370800000000       -5.87371800000000       -0.15928400000000
H            2.01051400000000       -6.23092300000000        0.14682500000000
H            6.90404800000000        0.20002200000000       -0.31172900000000
H            7.42279300000000        2.37350000000000        0.33524200000000
C            4.84373400000000       -4.65770200000000       -0.79657900000000
H            5.88383800000000       -4.86733500000000       -1.02722400000000
H           -4.48958400000000        2.78649300000000       -1.96068000000000
S            5.62431100000000       -2.13531800000000       -1.13364400000000
S            4.48499000000000        4.56734000000000        0.89958000000000
S            0.25601000000000       -2.58232300000000        1.49339400000000
S           -4.53727900000000       -4.53763100000000        0.09008100000000
S           -5.62877500000000        2.51364800000000        0.09706300000000
H            0.58981600000000       -2.02451100000000       -0.97453000000000
72
 energy: -130.415402372277 gnorm: 0.023515050491 xtb: 6.7.1pre (5071a88)
C           -6.37168091847450       -2.52357115143575        0.18684093744172
C           -1.55289894732898       -4.63868019507022        0.42506912007493
C           -6.11497554598627       -3.83441822442785        0.14863448546084
C           -3.47220582499418       -3.08058249243444        0.23825452434632
C           -5.37053876391271       -1.48683466459360        0.14064731687544
C            3.93587009013776       -5.68126916691161       -0.51951588288190
C           -0.20353154344836       -4.87755926227546        0.24962367060403
C            1.51435808981036        4.73454880444914        0.53786364942863
C            2.15409419117563       -4.06654891762977       -0.04177216497961
C            4.36568963898900       -3.34181613289408       -0.73378795917366
C           -2.98286049355466        3.06991322409544       -0.45715696819629
C           -0.72039861143726        3.92927712791170        0.04184633587625
C           -2.11025886490757       -3.32664620871567        0.46615233453974
C            2.60976874216241       -1.59122954240079       -0.48990170910906
C           -4.75733695220030        4.73290542466400       -1.20201178718367
C            4.92205117028897       -0.65961353851191       -0.47099669921447
C           -2.55217724666599        5.46845906151984       -0.58624324269162
C           -3.96883432437284       -1.76393886522333        0.13964804687829
C            5.36885317906225        1.64186821913124        0.13147027395950
C           -1.62978508650073       -0.91821875238324        0.17723872010973
C            0.72934178943670       -0.02857145519801       -0.22215181148079
C            3.04439053709300        0.81422122753193       -0.05253060859983
C           -5.79463514268807       -0.17142752993682        0.11310285804587
C            3.43876129067038        3.17358165985242        0.46307128498909
C           -3.51331855109244        0.66530425670833       -0.09563123328127
C            6.06703811406465        3.91777872389483        0.74800975857631
C           -1.16466519238138        1.49818617548237       -0.03069950784092
C            1.14862821172328        2.35698115396721        0.17545169394320
C            2.65240356128195       -5.39089305230653       -0.13749083599093
C           -4.89504588186623        0.88114059386672        0.00346973344841
C           -2.57274162466416        1.77621473645093       -0.16989590478011
C           -0.24729213495633        2.60447161168482        0.04366598403769
C            2.04924454136286        3.43187811892180        0.40622083565663
C            0.80548228349468       -3.93357655034409        0.44933063149550
C            3.03092849031231       -2.98686724170812       -0.42856483808206
C           -4.36474572986727        3.31319100606302       -1.00221305293195
C           -2.09754190469687        4.19055757279226       -0.32319367022718
C            0.18494251747598        4.97208145050228        0.34343523770890
C           -1.25584082424221       -2.19624321079583        0.59592271943297
C            1.25851025021128       -1.27101015379944       -0.59318855077501
C            3.53408280980426       -0.49918026618235       -0.32600140312166
C           -3.88603041168266        5.73429629563087       -1.00006788776704
C            5.81090373697245        0.37627485741790       -0.22308031348024
C           -3.03772282140277       -0.67257737204597        0.04129117604306
C            6.35069065915990        2.65466076754966        0.40487986903565
C           -0.68757297539503        0.18414648829089       -0.01801121727635
C            1.64368698790557        1.04510674723327       -0.00458122154083
C            3.95956456228947        1.89675980449832        0.18661554449888
H           -7.40538205920948       -2.20266865790601        0.23287025262921
H            2.16916934392238        5.56761611759898        0.75705574319805
H           -5.77203004162755        4.91865350427897       -1.52795587826257
H           -1.88928240639201        6.31471891922347       -0.49877477921334
H           -6.85370765153846        0.04507967860060        0.16334058895862
H            6.83056100009834        4.65174342356970        0.96261286114748
H           -0.17287258610164        5.98678152082224        0.43280463492606
H           -4.18064431090000        6.76184469428287       -1.16837386032257
H           -2.23060089039480       -5.47378262541767        0.30595973573513
H           -6.89437579854384       -4.58299128925391        0.15165146815690
H            4.27143433305718       -6.70853647368533       -0.57363174281727
H            0.06216800306199       -5.84989095894436       -0.14922127043184
H            2.00757294215516       -6.20810082233046        0.14829527444635
H            6.87372556170690        0.19590538597406       -0.31922782287210
H            7.39201905157769        2.36454024796870        0.33325409070114
C            4.82209610620024       -4.64473246214533       -0.78898431953725
H            5.85582818078207       -4.84873998449402       -1.03169429289917
H           -4.48135087203052        2.77386286065529       -1.95557706484296
S            5.60449425870834       -2.13513115228286       -1.11542469102326
S            4.46112163813168        4.54989173570700        0.88492728033183
S            0.29222583340706       -2.52753502247898        1.42323511362373
S           -4.51785863601942       -4.51282971074342        0.09774948130763
S           -5.60455616397584        2.49826932402602        0.09539613491507
H            0.58555603775919       -2.02874041591186       -0.96616120975600
72
 energy: -130.418108955652 gnorm: 0.014016559977 xtb: 6.7.1pre (5071a88)
C           -6.34396178219368       -2.51465656937711        0.18574360156762
C           -1.54579032363308       -4.61134769022158        0.41514027082383
C           -6.08572528395447       -3.82267319451785        0.14690943702718
C           -3.45475924743220       -3.06398506099170        0.23331140692469
C           -5.34805574632551       -1.48056728105247        0.14151604787640
C            3.92033044779046       -5.66490590733781       -0.51046738123145
C           -0.20079440164805       -4.85056662181204        0.23955654634241
C            1.50859889643476        4.71410036737018        0.53946178130545
C            2.15104375407015       -4.04871634964247       -0.03203161030754
C            4.34393911080607       -3.33061350834796       -0.72675433468833
C           -2.96939215085588        3.06010661475359       -0.46317159767638
C           -0.72185232645161        3.91742920340723        0.04104243407601
C           -2.09518913813206       -3.30746583949542        0.45942274840419
C            2.59786425771898       -1.58783158314647       -0.48906376474221
C           -4.73934605820137        4.71156650477431       -1.20262412624593
C            4.90180604276544       -0.66379867542789       -0.45894309161771
C           -2.54674813931962        5.45569423493785       -0.58551621626500
C           -3.95142488730736       -1.75434202227464        0.14159776165504
C            5.34565517878674        1.63236647453626        0.13579547442825
C           -1.61850302761904       -0.91136314883413        0.18227074588341
C            0.72189368668451       -0.02950036824535       -0.23036272677630
C            3.03058962410756        0.80510372516258       -0.04594158661082
C           -5.77149473270324       -0.16724126980178        0.11873632103924
C            3.42000968050173        3.15563839179072        0.45987164657811
C           -3.49517237366506        0.66287567869423       -0.09522625550379
C            6.04121523075930        3.90621382922998        0.74333698869605
C           -1.16060411549014        1.49410143384518       -0.02951845532777
C            1.13839939089564        2.34447064888090        0.17616301873837
C            2.64053335546769       -5.36850231551748       -0.12318996274216
C           -4.87278865307743        0.87919213742592        0.00876980865703
C           -2.55953915015343        1.76941545566022       -0.17185566425628
C           -0.25000703191734        2.59417499949773        0.04328254461290
C            2.03799779704950        3.41417997898670        0.40485915943528
C            0.80013750266193       -3.91083981755627        0.44129648404042
C            3.01923724632398       -2.97691862012926       -0.42345328849702
C           -4.34461269199009        3.29927366733976       -1.00523987831650
C           -2.09088697307734        4.17787978458659       -0.32553781352759
C            0.18303237506253        4.95426345695976        0.34355950820287
C           -1.24240930735355       -2.18580249230849        0.59201743746279
C            1.25156450804191       -1.26897817342346       -0.61175958900890
C            3.51841042346550       -0.50483674451910       -0.31320165603509
C           -3.87414869032349        5.71576587719644       -0.99397632631525
C            5.78773603615762        0.37020811555054       -0.21822247279098
C           -3.02257033578360       -0.66758691901199        0.04571836241568
C            6.32352712873376        2.64524726174295        0.40535432830509
C           -0.68264146579539        0.18258064545222       -0.01964029383016
C            1.63403813857107        1.03595888655769       -0.00220152852520
C            3.94225782012851        1.88465238585275        0.18979494222875
H           -7.37459414516425       -2.19180742086775        0.23007349338935
H            2.17221715707317        5.53648617294164        0.76184809792221
H           -5.75541150832874        4.88828008757043       -1.51937196324619
H           -1.88870876389281        6.30225138940880       -0.49265409466097
H           -6.82594908010943        0.05565168697425        0.17628187218327
H            6.79894100234363        4.64207673412227        0.95510825450363
H           -0.17339721714595        5.96707622376608        0.43305456044927
H           -4.17271000736329        6.74047359105909       -1.15599043228117
H           -2.22979202293998       -5.43988197478466        0.30830563516407
H           -6.85655415661819       -4.57523011072851        0.15044317492486
H            4.25533328708749       -6.68896396752833       -0.56477798339896
H            0.06584821959586       -5.81864087609941       -0.15823701456981
H            1.99601138561982       -6.18213067078130        0.16433588287519
H            6.84648467672871        0.18768500780345       -0.32472609828578
H            7.36141791505337        2.35131714086080        0.33424969755804
C            4.79896001712509       -4.63229859466055       -0.78311191858069
H            5.82824616236435       -4.82942446403786       -1.03791859996406
H           -4.47040582971324        2.75225302091160       -1.95330328747427
S            5.58809784652002       -2.13584045573380       -1.09938072838795
S            4.43666745364902        4.53757371963965        0.87215326280292
S            0.28909186231473       -2.52393489612526        1.43331490407340
S           -4.49181208372724       -4.49313590615753        0.10160463621599
S           -5.58149547738039        2.48846742400989        0.10216490828579
H            0.59207370832698       -1.99996344876256       -1.06690144538684
72
 energy: -130.418620849146 gnorm: 0.007623691740 xtb: 6.7.1pre (5071a88)
C           -6.33535385274040       -2.51221343593853        0.18792435755986
C           -1.54319168324295       -4.60471725236273        0.41316068136885
C           -6.07279156865319       -3.82089410227135        0.14732295887124
C           -3.44920325209197       -3.05881376946576        0.23236637781931
C           -5.34293069043204       -1.47594177801321        0.14651455438110
C            3.91870330394114       -5.66631517429199       -0.50480748064361
C           -0.19806188210239       -4.84244584162188        0.23259955445175
C            1.50598736029625        4.71106282421202        0.54560517907738
C            2.15145351760314       -4.04720561074622       -0.03734099886605
C            4.34291183450070       -3.32941727239863       -0.72988456988810
C           -2.96669090735019        3.06017037401245       -0.46750195158707
C           -0.72181724894504        3.91740508529668        0.04068635068409
C           -2.08827578794868       -3.30039505743897        0.45675447799908
C            2.59142621419641       -1.58925559464220       -0.49543505669927
C           -4.73617301278695        4.70346003319248       -1.20969491083991
C            4.89557411144238       -0.66941695590929       -0.45496913292529
C           -2.54549196252202        5.45539501738556       -0.58507394565795
C           -3.94703563941167       -1.74980117011047        0.14128165201865
C            5.33859740563125        1.62708826398365        0.13869508526518
C           -1.61681910651091       -0.90637700122928        0.17158102096356
C            0.71821379789096       -0.03020393867953       -0.23769126205621
C            3.02552028505064        0.80067275241455       -0.04184867203687
C           -5.76785783657705       -0.16232361062522        0.12911324511870
C            3.41481446897200        3.15158595872968        0.46262608085284
C           -3.49273255216526        0.66651017669603       -0.09703556554564
C            6.03254975360018        3.90367246023573        0.74065504437271
C           -1.16022364711617        1.49638243299070       -0.03294723083733
C            1.13544321687457        2.34100639905913        0.17706461880175
C            2.63863996587132       -5.36717443237134       -0.11403836348077
C           -4.87004741747213        0.88478790462371        0.01485961160031
C           -2.55685324641467        1.77019826351110       -0.17442167502352
C           -0.25043329326270        2.59367193714378        0.04220822451140
C            2.03391819992270        3.41022332588435        0.40884087079703
C            0.80097140843922       -3.90168920575345        0.43222787872563
C            3.01815959044782       -2.97666343641140       -0.42952930664429
C           -4.34044139707326        3.29317794765618       -1.00988405039161
C           -2.08848346043342        4.17642078613436       -0.32778053681299
C            0.18155497789747        4.95357122747530        0.34773744652386
C           -1.23584033338685       -2.17769653182044        0.58216246836727
C            1.24480881831072       -1.27282147208965       -0.61967389550743
C            3.51177626487937       -0.50938619836334       -0.30947892151964
C           -3.87326354931211        5.71133726625054       -0.99457000025070
C            5.78116579149287        0.36515909035952       -0.21591549250069
C           -3.02013517061460       -0.66292225608111        0.04026722504568
C            6.31521808442166        2.64052046133645        0.40697455082484
C           -0.68210363227188        0.18470923777965       -0.02560724111603
C            1.63028111001906        1.03253274636612       -0.00325941808968
C            3.93649052729257        1.87990850371862        0.19390787470214
H           -7.36591820454974       -2.18920623459200        0.23010030198026
H            2.17264150896640        5.52948662976179        0.77078537479243
H           -5.75301097503162        4.87550762748391       -1.52607047396733
H           -1.88711522425425        6.30158114113990       -0.48777517242400
H           -6.82148999112613        0.06174690694538        0.19066998012130
H            6.78845663379675        4.64160859495068        0.95022760885524
H           -0.17541194973122        5.96607951620690        0.43774530843598
H           -4.17599810891246        6.73554811688717       -1.15192977072794
H           -2.22896707671329       -5.43099184080145        0.30744504399460
H           -6.84008494996922       -4.57682763741607        0.14875322477459
H            4.25279650952606       -6.69056877110680       -0.55377419411841
H            0.06790667487133       -5.80506687659673       -0.17749798495068
H            1.99444774381022       -6.17670305670132        0.18631822829268
H            6.83911319726440        0.18146716813494       -0.32573172334747
H            7.35207764512543        2.34314059387826        0.33748631051456
C            4.79581059078923       -4.63373663299103       -0.78618543079112
H            5.82477706528104       -4.82728622546705       -1.04460805155705
H           -4.46819444974597        2.73687537003596       -1.95277694383117
S            5.58672138951614       -2.13686452478143       -1.09874511111263
S            4.42952843802574        4.53669159844577        0.86765240588538
S            0.30472871729245       -2.50025445318547        1.40705241142378
S           -4.47959071161526       -4.48945975563252        0.10267855494108
S           -5.57547605184650        2.49272924780769        0.11111213386432
H            0.58028370107463       -2.01427688021889       -1.03448574283191
72
 energy: -130.418841311661 gnorm: 0.004697473324 xtb: 6.7.1pre (5071a88)
C           -6.33401524174329       -2.51163166274902        0.19019617543320
C           -1.54205969968250       -4.60445743100512        0.41116915839333
C           -6.06953617387644       -3.82038795105435        0.14715676722696
C           -3.44811477807086       -3.05821433200963        0.23283449933875
C           -5.34243331996063       -1.47412717801775        0.15095474409781
C            3.91871887161542       -5.66846022477184       -0.49768518269701
C           -0.19575145424927       -4.83882375678806        0.22601522092735
C            1.50443868484516        4.71116043977566        0.55295874427782
C            2.15241622947893       -4.04644863649553       -0.03617071665120
C            4.34345767626338       -3.33052931623401       -0.73630662070365
C           -2.96633420032760        3.06116191076765       -0.47110222370233
C           -0.72214872373824        3.91921144942880        0.04117437587584
C           -2.08618441661379       -3.29931684482539        0.45753902018218
C            2.58910027336656       -1.58903269580795       -0.50472901953833
C           -4.73600466440464        4.70068334125223       -1.21861745164505
C            4.89445755282315       -0.67236258943561       -0.45527180554360
C           -2.54763203767522        5.45703132788158       -0.58465134799443
C           -3.94621392175649       -1.74869266992715        0.14203490331588
C            5.33772523582635        1.62432150335738        0.14247115210827
C           -1.61605510408761       -0.90543611608205        0.16715884514011
C            0.71792118079462       -0.02950865294647       -0.24752502766087
C            3.02476663772436        0.80004040111179       -0.04295930420293
C           -5.76776887189243       -0.16007599668231        0.13907447225749
C            3.41428444645519        3.15119930289028        0.46647031789184
C           -3.49283078613476        0.66815227853621       -0.09681203245473
C            6.03193803365827        3.90242591680483        0.74014149088772
C           -1.16001255468203        1.49784645658151       -0.03712520294763
C            1.13509999238552        2.34066115759803        0.17690880191469
C            2.63958628550252       -5.36703943837523       -0.10227437725186
C           -4.87029399302070        0.88809123173926        0.02208225081761
C           -2.55638799294107        1.77075799264157       -0.17721297106384
C           -0.25034296549082        2.59484333703804        0.04079947502280
C            2.03280284988102        3.40978146191674        0.41336797599715
C            0.80117365906301       -3.89818868089721        0.43391194463313
C            3.01799654919134       -2.97711422109577       -0.43604220427163
C           -4.33992571940490        3.29129812351938       -1.01357608747524
C           -2.08855690728406        4.17734661526162       -0.32868842034500
C            0.18053346946484        4.95528340456716        0.35299561020407
C           -1.23394340988680       -2.17571241727406        0.58320310051836
C            1.24340057324607       -1.27258598667679       -0.63353906437855
C            3.50998937634708       -0.51031633302517       -0.31275249841040
C           -3.87540520684996        5.71031070531638       -0.99769711284738
C            5.78026291906883        0.36213176655583       -0.21331881497552
C           -3.01963183173985       -0.66157828858840        0.03890265161878
C            6.31455709638246        2.63768904488053        0.41026662544693
C           -0.68161135526367        0.18526402248512       -0.03289003271148
C            1.62972080725349        1.03236471594234       -0.00796333743648
C            3.93559927197508        1.87841268635185        0.19738338438391
H           -7.36479205844107       -2.18883731858666        0.23202596451458
H            2.17133544297139        5.52798417148414        0.78290716602566
H           -5.75237321550014        4.87084558839273       -1.53806888909081
H           -1.88947270007223        6.30339191069685       -0.48489461565640
H           -6.82122724022281        0.06441824852420        0.20634494151124
H            6.78770581520972        4.64151116076444        0.94755424896495
H           -0.17683402977284        5.96759796423679        0.44588962280337
H           -4.18112680965985        6.73419503447246       -1.15293021766132
H           -2.22678001691080       -5.43093182884831        0.30358693241448
H           -6.83592797546182       -4.57764943699019        0.14588182405481
H            4.25156705122053       -6.69359349620434       -0.54273617338002
H            0.07220653729788       -5.79745901699149       -0.19345102472808
H            1.99614801286825       -6.17359756994520        0.20913337360924
H            6.83813711321412        0.17760474951158       -0.32354634156816
H            7.35105488570804        2.33835036987770        0.34191572447839
C            4.79459706998939       -4.63700328874340       -0.78928272173663
H            5.82330216111456       -4.82990154345790       -1.05031102270030
H           -4.47043239281368        2.72602507841527       -1.95075814457372
S            5.58693989269690       -2.13806669911218       -1.10162816486666
S            4.43001153173230        4.53685056572095        0.86604552702465
S            0.30539801322278       -2.49762940668759        1.40840501544414
S           -4.47671759369888       -4.48875683830376        0.10282116854268
S           -5.57171147368005        2.49703198340369        0.11852781099095
H            0.57819963715334       -2.01205055506670       -1.05249885541979
72
 energy: -130.419050800236 gnorm: 0.003962090626 xtb: 6.7.1pre (5071a88)
C           -6.33339066207295       -2.50901069560866        0.19681200045187
C           -1.53952166426855       -4.60176448913134        0.40174791812896
C           -6.06703177528961       -3.81731135727544        0.14728476793150
C           -3.44751784984272       -3.05655052779076        0.23317277581576
C           -5.34221623655010       -1.47036198879613        0.16230875283870
C            3.92075109345005       -5.67016663423152       -0.48282595886942
C           -0.19098119525930       -4.82941242899155        0.20910829876563
C            1.50105082397987        4.70915625144067        0.56880782881231
C            2.15696579284085       -4.04385831225402       -0.03256535602944
C            4.34415095667661       -3.33235395354674       -0.74852608442797
C           -2.96551993880544        3.06223538551939       -0.47837681517596
C           -0.72372959150194        3.92154296258485        0.04259421783551
C           -2.08342266384399       -3.29704683061921        0.45469786715442
C            2.58576406208708       -1.58866080742947       -0.52121421443252
C           -4.73531212558604        4.69467381016238       -1.23573138789683
C            4.89216206661144       -0.67670810412545       -0.45930912061778
C           -2.55324194816571        5.45886995175411       -0.58305615297177
C           -3.94577918472966       -1.74654968409767        0.14476935107497