      -----------------------------------------------------------      
     |                   =====================                   |     
     |                           x T B                           |     
     |                   =====================                   |     
     |                         S. Grimme                         |     
     |          Mulliken Center for Theoretical Chemistry        |     
     |                    University of Bonn                     |     
      -----------------------------------------------------------      

   * xtb version 6.7.1pre (5071a88) compiled by 'Marcel@Raven' on 2024-07-23

   xtb is free software: you can redistribute it and/or modify it under
   the terms of the GNU Lesser General Public License as published by
   the Free Software Foundation, either version 3 of the License, or
   (at your option) any later version.
   
   xtb is distributed in the hope that it will be useful,
   but WITHOUT ANY WARRANTY; without even the implied warranty of
   MERCHANTABILITY or FITNESS FOR A PARTICULAR PURPOSE.  See the
   GNU Lesser General Public License for more details.
   
   Cite this work as:
   * C. Bannwarth, E. Caldeweyher, S. Ehlert, A. Hansen, P. Pracht,
     J. Seibert, S. Spicher, S. Grimme, WIREs Comput. Mol. Sci., 2020, 11,
     e01493. DOI: 10.1002/wcms.1493
   
   for GFN2-xTB:
   * C. Bannwarth, S. Ehlert and S. Grimme., J. Chem. Theory Comput., 2019,
     15, 1652-1671. DOI: 10.1021/acs.jctc.8b01176
   for GFN1-xTB:
   * S. Grimme, C. Bannwarth, P. Shushkov, J. Chem. Theory Comput., 2017,
     13, 1989-2009. DOI: 10.1021/acs.jctc.7b00118
   for GFN0-xTB:
   * P. Pracht, E. Caldeweyher, S. Ehlert, S. Grimme, ChemRxiv, 2019, preprint.
     DOI: 10.26434/chemrxiv.8326202.v1
   for GFN-FF:
   * S. Spicher and S. Grimme, Angew. Chem. Int. Ed., 2020, 59, 15665-15673.
     DOI: 10.1002/anie.202004239
   
   for ALPB and GBSA implicit solvation:
   * S. Ehlert, M. Stahn, S. Spicher, S. Grimme, J. Chem. Theory Comput.,
     2021, 17, 4250-4261. DOI: 10.1021/acs.jctc.1c00471
   
   for ddCOSMO and CPCM-X implicit solvation:
   * M. Stahn, S. Ehlert, S. Grimme, J. Phys. Chem. A,
     2023, XX, XXXX-XXXX. DOI: 10.1021/acs.jpca.3c04382
   
   for DFT-D4:
   * E. Caldeweyher, C. Bannwarth and S. Grimme, J. Chem. Phys., 2017,
     147, 034112. DOI: 10.1063/1.4993215
   * E. Caldeweyher, S. Ehlert, A. Hansen, H. Neugebauer, S. Spicher,
     C. Bannwarth and S. Grimme, J. Chem. Phys., 2019, 150, 154122.
     DOI: 10.1063/1.5090222
   * E. Caldeweyher, J.-M. Mewes, S. Ehlert and S. Grimme, Phys. Chem. Chem. Phys.
     2020, 22, 8499-8512. DOI: 10.1039/D0CP00502A
   
   for sTDA-xTB:
   * S. Grimme and C. Bannwarth, J. Chem. Phys., 2016, 145, 054103.
     DOI: 10.1063/1.4959605
   
   in the mass-spec context:
   * V. Asgeirsson, C. Bauer and S. Grimme, Chem. Sci., 2017, 8, 4879.
     DOI: 10.1039/c7sc00601b
   * J. Koopman and S. Grimme, ACS Omega 2019, 4, 12, 15120-15133.
     DOI: 10.1021/acsomega.9b02011
   
   for metadynamics refer to:
   * S. Grimme, J. Chem. Theory Comput., 2019, 155, 2847-2862
     DOI: 10.1021/acs.jctc.9b00143
   
   for SPH calculations refer to:
   * S. Spicher and S. Grimme, J. Chem. Theory Comput., 2021, 17, 1701-1714
     DOI: 10.1021/acs.jctc.0c01306
   
   for ONIOM refer to:
   * C. Plett, A. Katbashev, S. Ehlert, S. Grimme, M. Bursch,
     Phys. Chem. Chem. Phys., 2023, 25, 17860-17868. DOI: 10.1039/D3CP02178E
   
   for DIPRO refer to:
   * J. Kohn, N. Gildemeister, S. Grimme, D. Fazzi, A. Hansen,
     J. Chem. Phys., 2023, just accepted.
   
   for PTB refer to:
   * S. Grimme, M. Mueller, A. Hansen, J. Chem. Phys., 2023, 158, 124111.
     DOI: 10.1063/5.0137838
   
   with help from (in alphabetical order)
   P. Atkinson, C. Bannwarth, F. Bohle, G. Brandenburg, E. Caldeweyher
   M. Checinski, S. Dohm, S. Ehlert, S. Ehrlich, I. Gerasimov, C. Hölzer
   A. Katbashev, J. Kohn, J. Koopman, C. Lavigne, S. Lehtola, F. März, M. Müller,
   F. Musil, H. Neugebauer, J. Pisarek, C. Plett, P. Pracht, F. Pultar,
   J. Seibert, P. Shushkov, S. Spicher, M. Stahn, M. Steiner, T. Strunk,
   J. Stückrath, T. Rose, and J. Unsleber
   
 * started run on 2025/12/08 at 00:35:09.865     
   ID    Z sym.   atoms
    1    6 C      1-53
    2    1 H      54-71
    3   16 S      72

           -------------------------------------------------
          |                Calculation Setup                |
           -------------------------------------------------

          program call               : xtb "C:\Users\LENOVO GAMING\Documents\GitHub\molecular-conductivity-sim\dataset\1nm-Sdoped-1.5percent.xyz" --opt --parallel 4
          coordinate file            : C:\Users\LENOVO GAMING\Documents\GitHub\molecular-conductivity-sim\dataset\1nm-Sdoped-1.5percent.xyz
          omp threads                :                     4


           -------------------------------------------------
          |                 G F N 2 - x T B                 |
           -------------------------------------------------

        Reference                      10.1021/acs.jctc.8b01176
      * Hamiltonian:
        H0-scaling (s, p, d)           1.850000    2.230000    2.230000
        zeta-weighting                 0.500000
      * Dispersion:
        s8                             2.700000
        a1                             0.520000
        a2                             5.000000
        s9                             5.000000
      * Repulsion:
        kExp                           1.500000    1.000000
        rExp                           1.000000
      * Coulomb:
        alpha                          2.000000
        third order                    shell-resolved
        anisotropic                    true
        a3                             3.000000
        a5                             4.000000
        cn-shift                       1.200000
        cn-exp                         4.000000
        max-rad                        5.000000


          ...................................................
          :                      SETUP                      :
          :.................................................:
          :  # basis functions                 240          :
          :  # atomic orbitals                 239          :
          :  # shells                          127          :
          :  # electrons                       236          :
          :  max. iterations                   250          :
          :  Hamiltonian                  GFN2-xTB          :
          :  restarted?                      false          :
          :  GBSA solvation                  false          :
          :  PC potential                    false          :
          :  electronic temp.          300.0000000     K    :
          :  accuracy                    1.0000000          :
          :  -> integral cutoff          0.2500000E+02      :
          :  -> integral neglect         0.1000000E-07      :
          :  -> SCF convergence          0.1000000E-05 Eh   :
          :  -> wf. convergence          0.1000000E-03 e    :
          :  Broyden damping             0.4000000          :
          :  net charge                          0          :
          :  unpaired electrons                  0          :
          ...................................................

 iter      E             dE          RMSdq      gap      omega  full diag
   1   -128.0715569 -0.128072E+03  0.541E+00    0.66       0.0  T
   2   -125.6276257  0.244393E+01  0.432E+00    0.53       1.0  T
   3   -124.9537090  0.673917E+00  0.496E+00    0.34       1.0  T
   4   -127.7649941 -0.281129E+01  0.253E+00    1.18       1.0  T
   5   -128.0357069 -0.270713E+00  0.151E+00    1.01       1.0  T
   6   -128.1595110 -0.123804E+00  0.117E+00    0.42       1.0  T
   7   -128.1302101  0.293008E-01  0.144E+00    0.09       1.0  T
   8   -128.2813243 -0.151114E+00  0.731E-01    0.10       1.0  T
   9   -127.9281875  0.353137E+00  0.184E+00    0.28       1.0  T
  10   -127.9646344 -0.364469E-01  0.171E+00    0.20       1.0  T
  11   -128.1298473 -0.165213E+00  0.127E+00    0.09       1.0  T
  12   -128.3110456 -0.181198E+00  0.580E-01    0.07       1.0  T
  13   -128.3507372 -0.396915E-01  0.634E-02    0.02       1.0  T
  14   -128.3430023  0.773485E-02  0.242E-01    0.01       1.0  T
  15   -128.3511613 -0.815900E-02  0.477E-02    0.03       1.0  T
  16   -128.3466146  0.454677E-02  0.187E-01    0.01       1.0  T
  17   -128.3507830 -0.416843E-02  0.661E-02    0.02       1.0  T
  18   -128.3512200 -0.436971E-03  0.342E-02    0.02       1.0  T
  19   -128.3513801 -0.160146E-03  0.279E-03    0.02       4.2  T
  20   -128.3513765  0.357812E-05  0.592E-03    0.02       2.0  T
  21   -128.3513770 -0.435662E-06  0.551E-03    0.02       2.1  T
  22   -128.3513804 -0.346999E-05  0.188E-03    0.02       6.3  T
  23   -128.3513809 -0.458634E-06  0.246E-04    0.02      48.0  T
  24   -128.3513809  0.461873E-08  0.302E-04    0.02      39.0  T

   *** convergence criteria satisfied after 24 iterations ***

         #    Occupation            Energy/Eh            Energy/eV
      -------------------------------------------------------------
         1        2.0000           -0.7129974             -19.4016
       ...           ...                  ...                  ...
       112        2.0000           -0.3951499             -10.7526
       113        2.0000           -0.3943661             -10.7312
       114        2.0000           -0.3903758             -10.6227
       115        2.0000           -0.3781372             -10.2896
       116        2.0000           -0.3630132              -9.8781
       117        1.9996           -0.3411299              -9.2826
       118        1.2293           -0.3334888              -9.0747 (HOMO)
       119        0.7711           -0.3326022              -9.0506 (LUMO)
       120                         -0.2929231              -7.9708
       121                         -0.2777277              -7.5574
       122                         -0.2599354              -7.0732
       123                         -0.2536121              -6.9011
       ...                                ...                  ...
       239                          0.7222587              19.6537
      -------------------------------------------------------------
                  HL-Gap            0.0008865 Eh            0.0241 eV
             Fermi-level           -0.3330451 Eh           -9.0626 eV

 SCC (total)                   0 d,  0 h,  0 min,  0.443 sec
 SCC setup                      ...        0 min,  0.002 sec (  0.451%)
 Dispersion                     ...        0 min,  0.002 sec (  0.451%)
 classical contributions        ...        0 min,  0.000 sec (  0.000%)
 integral evaluation            ...        0 min,  0.016 sec (  3.612%)
 iterations                     ...        0 min,  0.368 sec ( 83.070%)
 molecular gradient             ...        0 min,  0.053 sec ( 11.964%)
 printout                       ...        0 min,  0.002 sec (  0.451%)

         :::::::::::::::::::::::::::::::::::::::::::::::::::::
         ::                     SUMMARY                     ::
         :::::::::::::::::::::::::::::::::::::::::::::::::::::
         :: total energy            -126.083246584789 Eh    ::
         :: gradient norm              0.081558888910 Eh/a0 ::
         :: HOMO-LUMO gap              0.024123446258 eV    ::
         ::.................................................::
         :: SCC energy              -128.353482774284 Eh    ::
         :: -> isotropic ES            0.003292955462 Eh    ::
         :: -> anisotropic ES          0.007686919001 Eh    ::
         :: -> anisotropic XC          0.058288363335 Eh    ::
         :: -> dispersion             -0.136804778659 Eh    ::
         :: repulsion energy           2.270236189495 Eh    ::
         :: add. restraining           0.000000000000 Eh    ::
         :: total charge               0.000000000041 e     ::
         :::::::::::::::::::::::::::::::::::::::::::::::::::::

      ----------------------------------------------------------- 
     |                   =====================                   |
     |                        A N C O P T                        |
     |                   =====================                   |
     |               Approximate Normal Coordinate               |
     |                Rational Function Optimizer                |
      ----------------------------------------------------------- 
      ----------------------------------------------------------- 
     |                   =====================                   |
     |                        A N C O P T                        |
     |                   =====================                   |
     |               Approximate Normal Coordinate               |
     |                Rational Function Optimizer                |
      ----------------------------------------------------------- 

          ...................................................
          :                      SETUP                      :
          :.................................................:
          :   optimization level            normal          :
          :   max. optcycles                   216          :
          :   ANC micro-cycles                  20          :
          :   degrees of freedom               210          :
          :.................................................:
          :   RF solver                   davidson          :
          :   write xtbopt.log                true          :
          :   linear?                        false          :
          :   energy convergence         0.5000000E-05 Eh   :
          :   grad. convergence          0.1000000E-02 Eh/α :
          :   maxmium RF displ.          1.0000000          :
          :   Hlow (freq-cutoff)         0.1000000E-01      :
          :   Hmax (freq-cutoff)         5.0000000          :
          :   S6 in model hess.         20.0000000          :
          ...................................................

generating ANC from exact Hessian ...
Using Lindh-Hessian (1995)
 Shifting diagonal of input Hessian by   9.691373502718367E-003
 Lowest  eigenvalues of input Hessian
    0.000000    0.000000    0.000000    0.000000    0.000000    0.000000
    0.010000    0.010328    0.010688    0.011023    0.011385    0.013004
    0.013573    0.014079    0.014750    0.015985    0.016698    0.016998
 Highest eigenvalues
    2.007758    2.016674    2.037102    2.047090    2.090112    2.115621
 

........................................................................
.............................. CYCLE    1 ..............................
........................................................................

 iter      E             dE          RMSdq      gap      omega  full diag
   1   -128.3513809 -0.128351E+03  0.161E-04    0.02       0.0  T
   2   -128.3513731  0.779046E-05  0.761E-03    0.02       1.5  T
   3   -128.3513809 -0.777414E-05  0.384E-04    0.02      30.7  T
   4   -128.3513809 -0.165879E-07  0.150E-04    0.02      78.8  T
   5   -128.3513809 -0.374030E-09  0.138E-04    0.02      85.1  T
     SCC iter.                  ...        0 min,  0.082 sec
     gradient                   ...        0 min,  0.053 sec
 * total energy  :  -126.0832466 Eh     change       -0.1021513E-07 Eh
   gradient norm :     0.0815821 Eh/α   predicted     0.0000000E+00 (-100.00%)
   displ. norm   :     0.3723839 α      lambda       -0.1863842E-01
   maximum displ.:     0.2228608 α      in ANC's #33, #49, #30, ...

........................................................................
.............................. CYCLE    2 ..............................
........................................................................

 iter      E             dE          RMSdq      gap      omega  full diag
   1   -128.1105818 -0.128111E+03  0.170E+00    0.25       0.0  T
   2   -126.8068196  0.130376E+01  0.327E+00    0.54       1.0  T
   3   -128.1577407 -0.135092E+01  0.162E+00    0.86       1.0  T
   4   -128.2404925 -0.827518E-01  0.130E+00    0.27       1.0  T
   5   -128.3606588 -0.120166E+00  0.862E-01    0.05       1.0  T
   6   -128.2505287  0.110130E+00  0.131E+00    0.24       1.0  T
   7   -128.3432989 -0.927702E-01  0.959E-01    0.11       1.0  T
   8   -128.4031343 -0.598353E-01  0.645E-01    0.04       1.0  T
   9   -128.4253151 -0.221808E-01  0.505E-01    0.05       1.0  T
  10   -128.4572906 -0.319755E-01  0.303E-02    0.01       1.0  T
  11   -128.4570456  0.245090E-03  0.531E-02    0.02       1.0  T
  12   -128.4573738 -0.328256E-03  0.165E-02    0.01       1.0  T
  13   -128.4574080 -0.342195E-04  0.222E-03    0.01       5.3  T
  14   -128.4574085 -0.494423E-06  0.114E-03    0.01      10.3  T
  15   -128.4574087 -0.157179E-06  0.166E-04    0.01      71.1  T
  16   -128.4574086  0.603658E-07  0.699E-04    0.01      16.9  T
     SCC iter.                  ...        0 min,  0.263 sec
     gradient                   ...        0 min,  0.052 sec
 * total energy  :  -126.0970810 Eh     change       -0.1383436E-01 Eh
   gradient norm :     0.0466576 Eh/α   predicted    -0.1061286E-01 ( -23.29%)
   displ. norm   :     0.3356262 α      lambda       -0.8513390E-02
   maximum displ.:     0.1988813 α      in ANC's #33, #30, #15, ...

........................................................................
.............................. CYCLE    3 ..............................
........................................................................

 iter      E             dE          RMSdq      gap      omega  full diag
   1   -128.2315390 -0.128232E+03  0.159E+00    0.28       0.0  T
   2   -127.0591644  0.117237E+01  0.315E+00    0.58       1.0  T
   3   -128.2111539 -0.115199E+01  0.169E+00    0.86       1.0  T
   4   -128.3060429 -0.948890E-01  0.135E+00    0.18       1.0  T
   5   -128.3352287 -0.291857E-01  0.124E+00    0.12       1.0  T
   6   -128.2839113  0.513173E-01  0.145E+00    0.25       1.0  T
   7   -128.4256320 -0.141721E+00  0.937E-01    0.08       1.0  T
   8   -128.5323180 -0.106686E+00  0.558E-02    0.00       1.0  T
   9   -128.5225094  0.980861E-02  0.287E-01    0.02       1.0  T
  10   -128.5318069 -0.929751E-02  0.875E-02    0.01       1.0  T
  11   -128.5326556 -0.848760E-03  0.286E-02    0.00       1.0  T
  12   -128.5327581 -0.102410E-03  0.130E-03    0.00       9.1  T
  13   -128.5327511  0.691572E-05  0.747E-03    0.01       1.6  T
  14   -128.5327489  0.227142E-05  0.864E-03    0.00       1.4  T
  15   -128.5327582 -0.934281E-05  0.357E-04    0.00      33.0  T
  16   -128.5327582 -0.193208E-08  0.332E-04    0.00      35.4  T
  17   -128.5327582 -0.910831E-08  0.198E-04    0.00      59.6  T
     SCC iter.                  ...        0 min,  0.270 sec
     gradient                   ...        0 min,  0.047 sec
 * total energy  :  -126.1019651 Eh     change       -0.4884129E-02 Eh
   gradient norm :     0.0151597 Eh/α   predicted    -0.4736600E-02 (  -3.02%)
   displ. norm   :     0.0918814 α      lambda       -0.4561859E-03
   maximum displ.:     0.0442612 α      in ANC's #15, #33, #30, ...

........................................................................
.............................. CYCLE    4 ..............................
........................................................................

 iter      E             dE          RMSdq      gap      omega  full diag
   1   -128.4695305 -0.128470E+03  0.761E-01    0.06       0.0  T
   2   -127.9201102  0.549420E+00  0.217E+00    1.42       1.0  T
   3   -128.2622466 -0.342136E+00  0.152E+00    0.41       1.0  T
   4   -128.4983721 -0.236125E+00  0.592E-01    0.05       1.0  T
   5   -128.5206939 -0.223217E-01  0.405E-01    0.03       1.0  T
   6   -128.5358937 -0.151998E-01  0.212E-01    0.02       1.0  T
   7   -128.5413227 -0.542903E-02  0.376E-02    0.00       1.0  T
   8   -128.5412692  0.535041E-04  0.425E-02    0.00       1.0  T
   9   -128.5414921 -0.222882E-03  0.478E-03    0.00       2.5  T
  10   -128.5414906  0.153425E-05  0.583E-03    0.00       2.0  T
  11   -128.5414940 -0.340436E-05  0.264E-03    0.00       4.5  T
  12   -128.5414948 -0.866075E-06  0.175E-04    0.00      67.4  T
  13   -128.5414948  0.163790E-07  0.404E-04    0.00      29.1  T
     SCC iter.                  ...        0 min,  0.190 sec
     gradient                   ...        0 min,  0.050 sec
 * total energy  :  -126.1022441 Eh     change       -0.2790206E-03 Eh
   gradient norm :     0.0065896 Eh/α   predicted    -0.2301272E-03 ( -17.52%)
   displ. norm   :     0.0429369 α      lambda       -0.7308186E-04
   maximum displ.:     0.0170275 α      in ANC's #15, #4, #1, ...

........................................................................
.............................. CYCLE    5 ..............................
........................................................................

 iter      E             dE          RMSdq      gap      omega  full diag
   1   -128.5355692 -0.128536E+03  0.204E-01    0.01       0.0  T
   2   -128.2139544  0.321615E+00  0.159E+00    0.76       1.0  T
   3   -128.5261358 -0.312181E+00  0.342E-01    0.03       1.0  T
   4   -128.5395834 -0.134476E-01  0.937E-02    0.01       1.0  T
   5   -128.5405593 -0.975939E-03  0.314E-02    0.00       1.0  T
   6   -128.5406782 -0.118848E-03  0.459E-03    0.00       2.6  T
   7   -128.5406796 -0.142444E-05  0.207E-03    0.00       5.7  T
   8   -128.5406795  0.121105E-06  0.231E-03    0.00       5.1  T
   9   -128.5406801 -0.573703E-06  0.844E-04    0.00      14.0  T
  10   -128.5406801  0.680154E-08  0.871E-04    0.00      13.5  T
     SCC iter.                  ...        0 min,  0.154 sec
     gradient                   ...        0 min,  0.053 sec
 * total energy  :  -126.1022920 Eh     change       -0.4786073E-04 Eh
   gradient norm :     0.0023461 Eh/α   predicted    -0.3680228E-04 ( -23.11%)
   displ. norm   :     0.0405728 α      lambda       -0.2285319E-04
   maximum displ.:     0.0223605 α      in ANC's #4, #1, #6, ...

........................................................................
.............................. CYCLE    6 ..............................
........................................................................

 iter      E             dE          RMSdq      gap      omega  full diag
   1   -128.5387908 -0.128539E+03  0.385E-02    0.00       0.0  T
   2   -128.3395060  0.199285E+00  0.126E+00    0.14       1.0  T
   3   -128.5388999 -0.199394E+00  0.228E-02    0.00       1.0  T
   4   -128.5389595 -0.595787E-04  0.468E-03    0.00       2.5  T
   5   -128.5389582  0.129717E-05  0.472E-03    0.00       2.5  T
   6   -128.5389604 -0.219275E-05  0.117E-03    0.00      10.1  T
   7   -128.5389604 -0.588753E-07  0.910E-04    0.00      12.9  T
   8   -128.5389605 -0.100240E-06  0.203E-04    0.00      58.2  T
     SCC iter.                  ...        0 min,  0.117 sec
     gradient                   ...        0 min,  0.045 sec
 * total energy  :  -126.1023079 Eh     change       -0.1594733E-04 Eh
   gradient norm :     0.0008420 Eh/α   predicted    -0.1144769E-04 ( -28.22%)
   displ. norm   :     0.0819158 α      lambda       -0.1475607E-04
   maximum displ.:     0.0490907 α      in ANC's #4, #1, #6, ...

........................................................................
.............................. CYCLE    7 ..............................
........................................................................

 iter      E             dE          RMSdq      gap      omega  full diag
   1   -128.5371775 -0.128537E+03  0.260E-02    0.00       0.0  T
   2   -128.4563458  0.808317E-01  0.801E-01    0.07       1.0  T
   3   -128.5371806 -0.808348E-01  0.200E-02    0.00       1.0  T
   4   -128.5372140 -0.333417E-04  0.532E-03    0.00       2.2  T
   5   -128.5372074  0.656925E-05  0.777E-03    0.00       1.5  T
   6   -128.5372147 -0.728758E-05  0.109E-03    0.00      10.8  T
   7   -128.5372147  0.285361E-07  0.117E-03    0.00      10.1  T
   8   -128.5372148 -0.142267E-06  0.460E-04    0.00      25.6  T
   9   -128.5372148 -0.267018E-07  0.514E-05    0.00     229.2  T
     SCC iter.                  ...        0 min,  0.139 sec
     gradient                   ...        0 min,  0.045 sec
 * total energy  :  -126.1023229 Eh     change       -0.1501620E-04 Eh
   gradient norm :     0.0025131 Eh/α   predicted    -0.7415988E-05 ( -50.61%)
   displ. norm   :     0.0636318 α      lambda       -0.1527613E-04
   maximum displ.:     0.0379232 α      in ANC's #4, #1, #6, ...

........................................................................
.............................. CYCLE    8 ..............................
........................................................................

 iter      E             dE          RMSdq      gap      omega  full diag
   1   -128.5369334 -0.128537E+03  0.259E-02    0.00       0.0  T
   2   -128.4195964  0.117337E+00  0.951E-01    0.08       1.0  T
   3   -128.5369282 -0.117332E+00  0.238E-02    0.00       1.0  T
   4   -128.5369897 -0.614810E-04  0.523E-03    0.00       2.3  T
   5   -128.5369897 -0.353090E-07  0.313E-03    0.00       3.8  T
   6   -128.5369909 -0.117041E-05  0.974E-04    0.00      12.1  T
   7   -128.5369910 -0.117534E-06  0.137E-04    0.00      86.1  T
   8   -128.5369910  0.428884E-08  0.220E-04    0.00      53.7  T
     SCC iter.                  ...        0 min,  0.121 sec
     gradient                   ...        0 min,  0.043 sec
 * total energy  :  -126.1023371 Eh     change       -0.1420808E-04 Eh
   gradient norm :     0.0025787 Eh/α   predicted    -0.7669711E-05 ( -46.02%)
   displ. norm   :     0.1859608 α      lambda       -0.4509381E-04
   maximum displ.:     0.1080055 α      in ANC's #4, #1, #6, ...

........................................................................
.............................. CYCLE    9 ..............................
........................................................................

 iter      E             dE          RMSdq      gap      omega  full diag
   1   -128.5370127 -0.128537E+03  0.615E-02    0.01       0.0  T
   2   -128.2912890  0.245724E+00  0.137E+00    0.17       1.0  T
   3   -128.5370538 -0.245765E+00  0.477E-02    0.00       1.0  T
   4   -128.5372338 -0.180004E-03  0.184E-02    0.00       1.0  T
   5   -128.5372619 -0.280356E-04  0.736E-03    0.00       1.6  T
   6   -128.5372686 -0.673374E-05  0.760E-04    0.00      15.5  T
   7   -128.5372676  0.100169E-05  0.289E-03    0.00       4.1  T
   8   -128.5372686 -0.102342E-05  0.495E-04    0.00      23.8  T
   9   -128.5372687 -0.263507E-07  0.168E-04    0.00      70.0  T
  10   -128.5372687 -0.354606E-08  0.190E-05    0.00     619.8  T
     SCC iter.                  ...        0 min,  0.152 sec
     gradient                   ...        0 min,  0.054 sec
 * total energy  :  -126.1023744 Eh     change       -0.3730807E-04 Eh
   gradient norm :     0.0021328 Eh/α   predicted    -0.2333875E-04 ( -37.44%)
   displ. norm   :     0.2378355 α      lambda       -0.4378763E-04
   maximum displ.:     0.1412814 α      in ANC's #4, #1, #6, ...

........................................................................
.............................. CYCLE   10 ..............................
........................................................................

 iter      E             dE          RMSdq      gap      omega  full diag
   1   -128.5376329 -0.128538E+03  0.611E-02    0.00       0.0  T
   2   -128.3438706  0.193762E+00  0.122E+00    0.12       1.0  T
   3   -128.5373126 -0.193442E+00  0.668E-02    0.01       1.0  T
   4   -128.5377292 -0.416549E-03  0.190E-02    0.00       1.0  T
   5   -128.5377644 -0.352241E-04  0.532E-03    0.00       2.2  T
   6   -128.5377677 -0.329309E-05  0.841E-04    0.00      14.0  T
   7   -128.5377655  0.219834E-05  0.422E-03    0.00       2.8  T
   8   -128.5377678 -0.224171E-05  0.537E-04    0.00      22.0  T
   9   -128.5377678 -0.347900E-07  0.611E-05    0.00     192.9  T
  10   -128.5377678 -0.218535E-09  0.257E-05    0.00     459.3  T
     SCC iter.                  ...        0 min,  0.156 sec
     gradient                   ...        0 min,  0.043 sec
 * total energy  :  -126.1024054 Eh     change       -0.3098866E-04 Eh
   gradient norm :     0.0017573 Eh/α   predicted    -0.2313421E-04 ( -25.35%)
   displ. norm   :     0.1719275 α      lambda       -0.1853261E-04
   maximum displ.:     0.1089076 α      in ANC's #4, #1, #6, ...

........................................................................
.............................. CYCLE   11 ..............................
........................................................................

 iter      E             dE          RMSdq      gap      omega  full diag
   1   -128.5389427 -0.128539E+03  0.345E-02    0.00       0.0  T
   2   -128.5364947  0.244799E-02  0.140E-01    0.01       1.0  T
   3   -128.5342401  0.225459E-02  0.193E-01    0.01       1.0  T
   4   -128.5389431 -0.470298E-02  0.309E-03    0.00       3.8  T
   5   -128.5389399  0.317410E-05  0.558E-03    0.00       2.1  T
   6   -128.5389418 -0.188921E-05  0.405E-03    0.00       2.9  T
   7   -128.5389439 -0.210847E-05  0.233E-04    0.00      50.5  T
   8   -128.5389439 -0.159525E-08  0.209E-04    0.00      56.3  T
   9   -128.5389439 -0.257299E-08  0.149E-04    0.00      79.1  T
     SCC iter.                  ...        0 min,  0.135 sec
     gradient                   ...        0 min,  0.051 sec
 * total energy  :  -126.1024256 Eh     change       -0.2015847E-04 Eh
   gradient norm :     0.0010596 Eh/α   predicted    -0.9389124E-05 ( -53.42%)
   displ. norm   :     0.0889253 α      lambda       -0.1486701E-04
   maximum displ.:     0.0576751 α      in ANC's #4, #1, #2, ...

........................................................................
.............................. CYCLE   12 ..............................
........................................................................

 iter      E             dE          RMSdq      gap      omega  full diag
   1   -128.5398889 -0.128540E+03  0.287E-02    0.00       0.0  T
   2   -128.4222417  0.117647E+00  0.966E-01    0.09       1.0  T
   3   -128.5398254 -0.117584E+00  0.332E-02    0.00       1.0  T
   4   -128.5399495 -0.124079E-03  0.613E-03    0.00       1.9  T
   5   -128.5399503 -0.880873E-06  0.292E-03    0.00       4.0  T
   6   -128.5399490  0.135071E-05  0.446E-03    0.00       2.6  T
   7   -128.5399515 -0.252500E-05  0.249E-04    0.00      47.3  T
   8   -128.5399515 -0.599536E-08  0.391E-05    0.00     301.3  T
   9   -128.5399515  0.511022E-09  0.727E-05    0.00     162.0  T
     SCC iter.                  ...        0 min,  0.133 sec
     gradient                   ...        0 min,  0.050 sec
 * total energy  :  -126.1024430 Eh     change       -0.1739751E-04 Eh
   gradient norm :     0.0010254 Eh/α   predicted    -0.7463187E-05 ( -57.10%)
   displ. norm   :     0.1208794 α      lambda       -0.1582132E-04
   maximum displ.:     0.0763470 α      in ANC's #4, #1, #2, ...

........................................................................
.............................. CYCLE   13 ..............................
........................................................................

 iter      E             dE          RMSdq      gap      omega  full diag
   1   -128.5398369 -0.128540E+03  0.318E-02    0.00       0.0  T
   2   -128.4377439  0.102093E+00  0.900E-01    0.08       1.0  T
   3   -128.5397449 -0.102001E+00  0.364E-02    0.00       1.0  T
   4   -128.5398858 -0.140938E-03  0.643E-03    0.00       1.8  T
   5   -128.5398874 -0.160419E-05  0.207E-03    0.00       5.7  T
   6   -128.5398862  0.127595E-05  0.373E-03    0.00       3.2  T
   7   -128.5398879 -0.170702E-05  0.569E-04    0.00      20.7  T
   8   -128.5398879 -0.394568E-07  0.386E-05    0.00     305.1  T
   9   -128.5398879  0.424495E-08  0.185E-04    0.00      63.6  T
     SCC iter.                  ...        0 min,  0.136 sec
     gradient                   ...        0 min,  0.053 sec
 * total energy  :  -126.1024615 Eh     change       -0.1855266E-04 Eh
   gradient norm :     0.0013356 Eh/α   predicted    -0.7962334E-05 ( -57.08%)
   displ. norm   :     0.1287385 α      lambda       -0.1283254E-04
   maximum displ.:     0.0792454 α      in ANC's #4, #1, #2, ...

........................................................................
.............................. CYCLE   14 ..............................
........................................................................

 iter      E             dE          RMSdq      gap      omega  full diag
   1   -128.5394613 -0.128539E+03  0.255E-02    0.00       0.0  T
   2   -128.5391629  0.298430E-03  0.505E-02    0.01       1.0  T
   3   -128.5292008  0.996210E-02  0.283E-01    0.02       1.0  T
   4   -128.5394605 -0.102597E-01  0.307E-03    0.00       3.8  T
   5   -128.5394611 -0.598058E-06  0.198E-03    0.00       6.0  T
   6   -128.5394616 -0.455609E-06  0.286E-04    0.00      41.3  T
   7   -128.5394616  0.339554E-09  0.178E-04    0.00      66.2  T
     SCC iter.                  ...        0 min,  0.107 sec
     gradient                   ...        0 min,  0.049 sec
 * total energy  :  -126.1024766 Eh     change       -0.1504613E-04 Eh
   gradient norm :     0.0011656 Eh/α   predicted    -0.6468378E-05 ( -57.01%)
   displ. norm   :     0.1243314 α      lambda       -0.9810194E-05
   maximum displ.:     0.0783681 α      in ANC's #1, #4, #2, ...

........................................................................
.............................. CYCLE   15 ..............................
........................................................................

 iter      E             dE          RMSdq      gap      omega  full diag
   1   -128.5390626 -0.128539E+03  0.234E-02    0.01       0.0  T
   2   -128.5384024  0.660122E-03  0.732E-02    0.01       1.0  T
   3   -128.5358496  0.255284E-02  0.159E-01    0.01       1.0  T
   4   -128.5390618 -0.321218E-02  0.326E-03    0.01       3.6  T
   5   -128.5390628 -0.993983E-06  0.143E-03    0.01       8.2  T
   6   -128.5390629 -0.164313E-06  0.515E-04    0.01      22.9  T
   7   -128.5390630 -0.137380E-07  0.351E-04    0.01      33.6  T
     SCC iter.                  ...        0 min,  0.113 sec
     gradient                   ...        0 min,  0.051 sec
 * total energy  :  -126.1024882 Eh     change       -0.1163126E-04 Eh
   gradient norm :     0.0006402 Eh/α   predicted    -0.4939325E-05 ( -57.53%)
   displ. norm   :     0.1254111 α      lambda       -0.8605059E-05
   maximum displ.:     0.0819708 α      in ANC's #1, #4, #2, ...

........................................................................
.............................. CYCLE   16 ..............................
........................................................................

 iter      E             dE          RMSdq      gap      omega  full diag
   1   -128.5387319 -0.128539E+03  0.283E-02    0.01       0.0  T
   2   -128.4581456  0.805863E-01  0.789E-01    0.06       1.0  T
   3   -128.5387212 -0.805756E-01  0.230E-02    0.01       1.0  T
   4   -128.5387670 -0.458417E-04  0.450E-03    0.01       2.6  T
   5   -128.5387669  0.139863E-06  0.150E-03    0.01       7.9  T
   6   -128.5387670 -0.162292E-06  0.847E-04    0.01      13.9  T
   7   -128.5387671 -0.679503E-07  0.233E-04    0.01      50.5  T
     SCC iter.                  ...        0 min,  0.108 sec
     gradient                   ...        0 min,  0.052 sec
 * total energy  :  -126.1024987 Eh     change       -0.1044546E-04 Eh
   gradient norm :     0.0004762 Eh/α   predicted    -0.4333448E-05 ( -58.51%)
   displ. norm   :     0.1382478 α      lambda       -0.9054635E-05
   maximum displ.:     0.0932113 α      in ANC's #1, #4, #2, ...

........................................................................
.............................. CYCLE   17 ..............................
........................................................................

 iter      E             dE          RMSdq      gap      omega  full diag
   1   -128.5387658 -0.128539E+03  0.255E-02    0.01       0.0  T
   2   -128.5318188  0.694701E-02  0.233E-01    0.02       1.0  T
   3   -128.5384312 -0.661240E-02  0.532E-02    0.01       1.0  T
   4   -128.5387683 -0.337111E-03  0.227E-03    0.01       5.2  T
   5   -128.5387679  0.460393E-06  0.248E-03    0.01       4.8  T
   6   -128.5387686 -0.703735E-06  0.504E-04    0.01      23.4  T
   7   -128.5387686  0.163307E-07  0.506E-04    0.01      23.3  T
     SCC iter.                  ...        0 min,  0.110 sec
     gradient                   ...        0 min,  0.045 sec
 * total energy  :  -126.1025098 Eh     change       -0.1113706E-04 Eh
   gradient norm :     0.0008151 Eh/α   predicted    -0.4568071E-05 ( -58.98%)
   displ. norm   :     0.1578712 α      lambda       -0.1023316E-04
   maximum displ.:     0.1072387 α      in ANC's #1, #4, #2, ...

........................................................................
.............................. CYCLE   18 ..............................
........................................................................

 iter      E             dE          RMSdq      gap      omega  full diag
   1   -128.5387967 -0.128539E+03  0.327E-02    0.01       0.0  T
   2   -128.4650665  0.737301E-01  0.755E-01    0.06       1.0  T
   3   -128.5387702 -0.737037E-01  0.267E-02    0.01       1.0  T
   4   -128.5388281 -0.579742E-04  0.465E-03    0.01       2.5  T
   5   -128.5388259  0.226440E-05  0.455E-03    0.01       2.6  T
   6   -128.5388283 -0.241256E-05  0.129E-03    0.01       9.1  T
   7   -128.5388285 -0.166010E-06  0.409E-04    0.01      28.8  T
   8   -128.5388285 -0.146136E-07  0.147E-04    0.01      80.3  T
     SCC iter.                  ...        0 min,  0.119 sec
     gradient                   ...        0 min,  0.055 sec
 * total energy  :  -126.1025226 Eh     change       -0.1283466E-04 Eh
   gradient norm :     0.0009410 Eh/α   predicted    -0.5176111E-05 ( -59.67%)
   displ. norm   :     0.1957983 α      lambda       -0.1303632E-04
   maximum displ.:     0.1326697 α      in ANC's #1, #4, #3, ...

........................................................................
.............................. CYCLE   19 ..............................
........................................................................

 iter      E             dE          RMSdq      gap      omega  full diag
   1   -128.5391427 -0.128539E+03  0.362E-02    0.01       0.0  T
   2   -128.5317107  0.743204E-02  0.242E-01    0.02       1.0  T
   3   -128.5363412 -0.463052E-02  0.150E-01    0.01       1.0  T
   4   -128.5391456 -0.280437E-02  0.308E-03    0.01       3.8  T
   5   -128.5391410  0.458208E-05  0.623E-03    0.01       1.9  T
   6   -128.5391436 -0.263562E-05  0.435E-03    0.01       2.7  T
   7   -128.5391459 -0.232612E-05  0.819E-04    0.01      14.4  T
   8   -128.5391460 -0.740030E-07  0.223E-04    0.01      52.8  T
   9   -128.5391460  0.112468E-07  0.359E-04    0.01      32.8  T
     SCC iter.                  ...        0 min,  0.140 sec
     gradient                   ...        0 min,  0.050 sec
 * total energy  :  -126.1025391 Eh     change       -0.1643834E-04 Eh
   gradient norm :     0.0009090 Eh/α   predicted    -0.6630898E-05 ( -59.66%)
   displ. norm   :     0.2220135 α      lambda       -0.1584276E-04
   maximum displ.:     0.1468868 α      in ANC's #1, #4, #3, ...

........................................................................
.............................. CYCLE   20 ..............................
........................................................................

 iter      E             dE          RMSdq      gap      omega  full diag
   1   -128.5393282 -0.128539E+03  0.421E-02    0.01       0.0  T
   2   -128.5087881  0.305401E-01  0.488E-01    0.04       1.0  T
   3   -128.5388431 -0.300550E-01  0.664E-02    0.01       1.0  T
   4   -128.5393386 -0.495465E-03  0.509E-03    0.01       2.3  T
   5   -128.5393304  0.820659E-05  0.887E-03    0.01       1.3  T
   6   -128.5393391 -0.871517E-05  0.345E-03    0.01       3.4  T
   7   -128.5393406 -0.147254E-05  0.510E-04    0.01      23.1  T
   8   -128.5393406 -0.281093E-07  0.127E-04    0.01      92.7  T
   9   -128.5393406  0.143289E-07  0.347E-04    0.01      33.9  T
     SCC iter.                  ...        0 min,  0.139 sec
     gradient                   ...        0 min,  0.046 sec
 * total energy  :  -126.1025599 Eh     change       -0.2087187E-04 Eh
   gradient norm :     0.0008630 Eh/α   predicted    -0.8097838E-05 ( -61.20%)
   displ. norm   :     0.2482776 α      lambda       -0.2014626E-04
   maximum displ.:     0.1606077 α      in ANC's #1, #4, #3, ...
 * RMSD in coord.:     0.2645495 α      energy gain  -0.1931336E-01 Eh

generating ANC from exact Hessian ...
Using Lindh-Hessian (1995)
 Shifting diagonal of input Hessian by   9.657345103362301E-003
 Lowest  eigenvalues of input Hessian
    0.000000    0.000000    0.000000    0.000000    0.000000    0.000000
    0.010000    0.010350    0.010769    0.011117    0.011526    0.013174
    0.013903    0.014499    0.015196    0.016581    0.017440    0.017570
 Highest eigenvalues
    2.090128    2.098515    2.123556    2.149434    2.174317    2.192930
 

........................................................................
.............................. CYCLE   21 ..............................
........................................................................

 iter      E             dE          RMSdq      gap      omega  full diag
   1   -128.5395521 -0.128540E+03  0.466E-02    0.01       0.0  T
   2   -128.5347206  0.483151E-02  0.196E-01    0.02       1.0  T
   3   -128.5331501  0.157048E-02  0.226E-01    0.02       1.0  T
   4   -128.5395534 -0.640333E-02  0.407E-03    0.01       2.9  T
   5   -128.5395496  0.386605E-05  0.626E-03    0.01       1.9  T
   6   -128.5395509 -0.130838E-05  0.543E-03    0.01       2.2  T
   7   -128.5395546 -0.369745E-05  0.796E-04    0.01      14.8  T
   8   -128.5395546 -0.722744E-07  0.172E-04    0.01      68.4  T
   9   -128.5395546  0.169756E-07  0.390E-04    0.01      30.2  T
     SCC iter.                  ...        0 min,  0.135 sec
     gradient                   ...        0 min,  0.051 sec
 * total energy  :  -126.1025871 Eh     change       -0.2717280E-04 Eh
   gradient norm :     0.0009552 Eh/α   predicted     0.0000000E+00 (-100.00%)
   displ. norm   :     0.0355793 α      lambda       -0.8563179E-05
   maximum displ.:     0.0208208 α      in ANC's #3, #5, #2, ...

........................................................................
.............................. CYCLE   22 ..............................
........................................................................

 iter      E             dE          RMSdq      gap      omega  full diag
   1   -128.5394845 -0.128539E+03  0.932E-03    0.01       0.0  T
   2   -128.5391505  0.333999E-03  0.513E-02    0.01       1.0  T
   3   -128.5391197  0.307881E-04  0.538E-02    0.01       1.0  T
   4   -128.5394757 -0.355984E-03  0.827E-03    0.01       1.4  T
   5   -128.5394845 -0.883665E-05  0.105E-03    0.01      11.2  T
   6   -128.5394847 -0.139443E-06  0.147E-04    0.01      79.9  T
   7   -128.5394847 -0.711964E-10  0.125E-04    0.01      94.5  T
     SCC iter.                  ...        0 min,  0.107 sec
     gradient                   ...        0 min,  0.051 sec
 * total energy  :  -126.1025982 Eh     change       -0.1104247E-04 Eh
   gradient norm :     0.0004358 Eh/α   predicted    -0.4313286E-05 ( -60.94%)
   displ. norm   :     0.1144843 α      lambda       -0.1989525E-04
   maximum displ.:     0.0631458 α      in ANC's #3, #5, #1, ...

........................................................................
.............................. CYCLE   23 ..............................
........................................................................

 iter      E             dE          RMSdq      gap      omega  full diag
   1   -128.5392639 -0.128539E+03  0.291E-02    0.01       0.0  T
   2   -128.5251600  0.141039E-01  0.334E-01    0.03       1.0  T
   3   -128.5390937 -0.139337E-01  0.405E-02    0.01       1.0  T
   4   -128.5392532 -0.159501E-03  0.113E-02    0.01       1.0  T
   5   -128.5392637 -0.105029E-04  0.669E-03    0.01       1.8  T
   6   -128.5392694 -0.568770E-05  0.769E-04    0.01      15.3  T
   7   -128.5392695 -0.564586E-07  0.328E-04    0.01      35.9  T
   8   -128.5392695 -0.443657E-08  0.237E-04    0.01      49.6  T
     SCC iter.                  ...        0 min,  0.118 sec
     gradient                   ...        0 min,  0.046 sec
 * total energy  :  -126.1026182 Eh     change       -0.2000026E-04 Eh
   gradient norm :     0.0007819 Eh/α   predicted    -0.1000591E-04 ( -49.97%)
   displ. norm   :     0.0820555 α      lambda       -0.7452054E-05
   maximum displ.:     0.0446644 α      in ANC's #3, #5, #1, ...

........................................................................
.............................. CYCLE   24 ..............................
........................................................................

 iter      E             dE          RMSdq      gap      omega  full diag
   1   -128.5393690 -0.128539E+03  0.187E-02    0.01       0.0  T
   2   -128.5388895  0.479456E-03  0.622E-02    0.01       1.0  T
   3   -128.5373703  0.151924E-02  0.125E-01    0.01       1.0  T
   4   -128.5393691 -0.199885E-02  0.834E-04    0.01      14.1  T
   5   -128.5393692 -0.576437E-07  0.414E-04    0.01      28.5  T
   6   -128.5393691  0.175683E-07  0.527E-04    0.01      22.4  T
     SCC iter.                  ...        0 min,  0.099 sec
     gradient                   ...        0 min,  0.045 sec
 * total energy  :  -126.1026265 Eh     change       -0.8333794E-05 Eh
   gradient norm :     0.0008017 Eh/α   predicted    -0.3737278E-05 ( -55.16%)
   displ. norm   :     0.0873050 α      lambda       -0.7043370E-05
   maximum displ.:     0.0459326 α      in ANC's #3, #1, #5, ...

........................................................................
.............................. CYCLE   25 ..............................
........................................................................

 iter      E             dE          RMSdq      gap      omega  full diag
   1   -128.5394791 -0.128539E+03  0.188E-02    0.01       0.0  T
   2   -128.5361936  0.328543E-02  0.161E-01    0.01       1.0  T
   3   -128.5392723 -0.307870E-02  0.417E-02    0.01       1.0  T
   4   -128.5394792 -0.206836E-03  0.316E-03    0.01       3.7  T
   5   -128.5394796 -0.448351E-06  0.239E-03    0.01       4.9  T
   6   -128.5394803 -0.682180E-06  0.573E-04    0.01      20.6  T
   7   -128.5394803 -0.357897E-07  0.150E-04    0.01      78.7  T
     SCC iter.                  ...        0 min,  0.101 sec
     gradient                   ...        0 min,  0.049 sec
 * total energy  :  -126.1026353 Eh     change       -0.8800758E-05 Eh
   gradient norm :     0.0004913 Eh/α   predicted    -0.3533991E-05 ( -59.84%)
   displ. norm   :     0.1403720 α      lambda       -0.1124187E-04
   maximum displ.:     0.0728874 α      in ANC's #1, #3, #5, ...

........................................................................
.............................. CYCLE   26 ..............................
........................................................................

 iter      E             dE          RMSdq      gap      omega  full diag
   1   -128.5395239 -0.128540E+03  0.290E-02    0.01       0.0  T
   2   -128.5375145  0.200946E-02  0.126E-01    0.01       1.0  T
   3   -128.5374008  0.113646E-03  0.130E-01    0.01       1.0  T
   4   -128.5395202 -0.211932E-02  0.642E-03    0.01       1.8  T
   5   -128.5395237 -0.359866E-05  0.325E-03    0.01       3.6  T
   6   -128.5395245 -0.788031E-06  0.197E-03    0.01       6.0  T
   7   -128.5395249 -0.392169E-06  0.854E-04    0.01      13.8  T
   8   -128.5395250 -0.907881E-07  0.946E-05    0.01     124.5  T
     SCC iter.                  ...        0 min,  0.126 sec
     gradient                   ...        0 min,  0.043 sec
 * total energy  :  -126.1026487 Eh     change       -0.1343992E-04 Eh
   gradient norm :     0.0005401 Eh/α   predicted    -0.5677426E-05 ( -57.76%)
   displ. norm   :     0.1746281 α      lambda       -0.1220472E-04
   maximum displ.:     0.0947766 α      in ANC's #1, #3, #5, ...

........................................................................
.............................. CYCLE   27 ..............................
........................................................................

 iter      E             dE          RMSdq      gap      omega  full diag
   1   -128.5394299 -0.128539E+03  0.362E-02    0.01       0.0  T
   2   -128.5237824  0.156475E-01  0.350E-01    0.03       1.0  T
   3   -128.5389448 -0.151624E-01  0.651E-02    0.01       1.0  T
   4   -128.5394294 -0.484559E-03  0.782E-03    0.01       1.5  T
   5   -128.5394308 -0.145126E-05  0.659E-03    0.01       1.8  T
   6   -128.5394358 -0.501686E-05  0.186E-03    0.01       6.3  T
   7   -128.5394362 -0.379168E-06  0.502E-04    0.01      23.5  T
   8   -128.5394362 -0.254673E-07  0.169E-04    0.01      69.6  T
     SCC iter.                  ...        0 min,  0.123 sec
     gradient                   ...        0 min,  0.049 sec
 * total energy  :  -126.1026625 Eh     change       -0.1378201E-04 Eh
   gradient norm :     0.0010357 Eh/α   predicted    -0.6185593E-05 ( -55.12%)
   displ. norm   :     0.1505165 α      lambda       -0.9588424E-05
   maximum displ.:     0.0866475 α      in ANC's #1, #5, #3, ...

........................................................................
.............................. CYCLE   28 ..............................
........................................................................

 iter      E             dE          RMSdq      gap      omega  full diag
   1   -128.5394558 -0.128539E+03  0.308E-02    0.01       0.0  T
   2   -128.5317269  0.772887E-02  0.246E-01    0.02       1.0  T
   3   -128.5388157 -0.708875E-02  0.729E-02    0.01       1.0  T
   4   -128.5394552 -0.639503E-03  0.592E-03    0.01       2.0  T
   5   -128.5394559 -0.737285E-06  0.503E-03    0.01       2.3  T
   6   -128.5394586 -0.264825E-05  0.200E-03    0.01       5.9  T
   7   -128.5394591 -0.481426E-06  0.315E-04    0.01      37.4  T
   8   -128.5394591 -0.106379E-07  0.856E-05    0.01     137.6  T
     SCC iter.                  ...        0 min,  0.124 sec
     gradient                   ...        0 min,  0.048 sec
 * total energy  :  -126.1026739 Eh     change       -0.1139366E-04 Eh
   gradient norm :     0.0011609 Eh/α   predicted    -0.4846978E-05 ( -57.46%)
   displ. norm   :     0.1445383 α      lambda       -0.1028536E-04
   maximum displ.:     0.0874003 α      in ANC's #1, #5, #3, ...

........................................................................
.............................. CYCLE   29 ..............................
........................................................................

 iter      E             dE          RMSdq      gap      omega  full diag
   1   -128.5395342 -0.128540E+03  0.296E-02    0.01       0.0  T
   2   -128.5372546  0.227959E-02  0.134E-01    0.01       1.0  T
   3   -128.5371471  0.107460E-03  0.138E-01    0.01       1.0  T
   4   -128.5395341 -0.238697E-02  0.379E-03    0.01       3.1  T
   5   -128.5395338  0.354896E-06  0.368E-03    0.01       3.2  T
   6   -128.5395347 -0.916398E-06  0.243E-03    0.01       4.9  T
   7   -128.5395354 -0.737984E-06  0.330E-04    0.01      35.8  T
   8   -128.5395354 -0.119967E-07  0.863E-05    0.01     136.5  T
     SCC iter.                  ...        0 min,  0.121 sec
     gradient                   ...        0 min,  0.049 sec
 * total energy  :  -126.1026864 Eh     change       -0.1248058E-04 Eh
   gradient norm :     0.0008566 Eh/α   predicted    -0.5191162E-05 ( -58.41%)
   displ. norm   :     0.1697760 α      lambda       -0.1172473E-04
   maximum displ.:     0.1053535 α      in ANC's #1, #5, #3, ...

........................................................................
.............................. CYCLE   30 ..............................
........................................................................

 iter      E             dE          RMSdq      gap      omega  full diag
   1   -128.5394371 -0.128539E+03  0.350E-02    0.01       0.0  T
   2   -128.5349807  0.445638E-02  0.187E-01    0.01       1.0  T
   3   -128.5370599 -0.207919E-02  0.138E-01    0.01       1.0  T
   4   -128.5394377 -0.237777E-02  0.426E-03    0.01       2.8  T
   5   -128.5394371  0.555152E-06  0.412E-03    0.01       2.9  T
   6   -128.5394379 -0.820180E-06  0.321E-03    0.01       3.7  T
   7   -128.5394392 -0.130025E-05  0.413E-04    0.01      28.5  T
   8   -128.5394392 -0.185852E-07  0.113E-04    0.01     104.1  T
   9   -128.5394392  0.545990E-08  0.223E-04    0.01      52.9  T
     SCC iter.                  ...        0 min,  0.137 sec
     gradient                   ...        0 min,  0.042 sec
 * total energy  :  -126.1027004 Eh     change       -0.1397638E-04 Eh
   gradient norm :     0.0004836 Eh/α   predicted    -0.5942285E-05 ( -57.48%)
   displ. norm   :     0.1800380 α      lambda       -0.1095344E-04
   maximum displ.:     0.1132696 α      in ANC's #1, #5, #3, ...

........................................................................
.............................. CYCLE   31 ..............................
........................................................................

 iter      E             dE          RMSdq      gap      omega  full diag
   1   -128.5393540 -0.128539E+03  0.375E-02    0.01       0.0  T
   2   -128.5295242  0.982979E-02  0.277E-01    0.02       1.0  T
   3   -128.5381849 -0.866073E-02  0.979E-02    0.01       1.0  T
   4   -128.5393524 -0.116755E-02  0.713E-03    0.01       1.7  T
   5   -128.5393531 -0.641388E-06  0.629E-03    0.01       1.9  T
   6   -128.5393570 -0.394437E-05  0.300E-03    0.01       3.9  T
   7   -128.5393581 -0.103923E-05  0.841E-04    0.01      14.0  T
   8   -128.5393582 -0.874615E-07  0.111E-04    0.01     106.4  T
   9   -128.5393582  0.579456E-08  0.227E-04    0.01      52.0  T
     SCC iter.                  ...        0 min,  0.139 sec
     gradient                   ...        0 min,  0.051 sec
 * total energy  :  -126.1027135 Eh     change       -0.1316926E-04 Eh
   gradient norm :     0.0005871 Eh/α   predicted    -0.5560528E-05 ( -57.78%)
   displ. norm   :     0.1742783 α      lambda       -0.1010211E-04
   maximum displ.:     0.1104016 α      in ANC's #1, #5, #3, ...

........................................................................
.............................. CYCLE   32 ..............................
........................................................................

 iter      E             dE          RMSdq      gap      omega  full diag
   1   -128.5394067 -0.128539E+03  0.364E-02    0.01       0.0  T
   2   -128.5304191  0.898762E-02  0.265E-01    0.02       1.0  T
   3   -128.5382829 -0.786384E-02  0.959E-02    0.01       1.0  T
   4   -128.5394059 -0.112294E-02  0.648E-03    0.01       1.8  T
   5   -128.5394063 -0.396499E-06  0.577E-03    0.01       2.0  T
   6   -128.5394093 -0.299463E-05  0.316E-03    0.01       3.7  T
   7   -128.5394105 -0.122299E-05  0.580E-04    0.01      20.3  T
   8   -128.5394105 -0.400005E-07  0.903E-05    0.01     130.5  T
   9   -128.5394105  0.124088E-07  0.314E-04    0.01      37.6  T
     SCC iter.                  ...        0 min,  0.135 sec
     gradient                   ...        0 min,  0.050 sec
 * total energy  :  -126.1027258 Eh     change       -0.1224237E-04 Eh
   gradient norm :     0.0006979 Eh/α   predicted    -0.5120146E-05 ( -58.18%)
   displ. norm   :     0.1650511 α      lambda       -0.9148007E-05
   maximum displ.:     0.1052197 α      in ANC's #1, #3, #5, ...

........................................................................
.............................. CYCLE   33 ..............................
........................................................................

 iter      E             dE          RMSdq      gap      omega  full diag
   1   -128.5394966 -0.128539E+03  0.348E-02    0.01       0.0  T
   2   -128.5167718  0.227248E-01  0.420E-01    0.03       1.0  T
   3   -128.5392597 -0.224879E-01  0.477E-02    0.01       1.0  T
   4   -128.5394965 -0.236855E-03  0.879E-03    0.01       1.3  T
   5   -128.5394975 -0.955487E-06  0.793E-03    0.01       1.5  T
   6   -128.5395050 -0.753735E-05  0.229E-03    0.01       5.1  T
   7   -128.5395056 -0.575757E-06  0.721E-04    0.01      16.3  T
   8   -128.5395057 -0.643904E-07  0.886E-05    0.01     133.0  T
     SCC iter.                  ...        0 min,  0.119 sec
     gradient                   ...        0 min,  0.049 sec
 * total energy  :  -126.1027367 Eh     change       -0.1094743E-04 Eh
   gradient norm :     0.0005708 Eh/α   predicted    -0.4633703E-05 ( -57.67%)
   displ. norm   :     0.1323690 α      lambda       -0.7016632E-05
   maximum displ.:     0.0851484 α      in ANC's #1, #3, #5, ...

........................................................................
.............................. CYCLE   34 ..............................
........................................................................

 iter      E             dE          RMSdq      gap      omega  full diag
   1   -128.5397462 -0.128540E+03  0.269E-02    0.01       0.0  T
   2   -128.5340569  0.568927E-02  0.211E-01    0.02       1.0  T
   3   -128.5392481 -0.519120E-02  0.642E-02    0.01       1.0  T
   4   -128.5397437 -0.495638E-03  0.628E-03    0.01       1.9  T
   5   -128.5397459 -0.213709E-05  0.451E-03    0.01       2.6  T
   6   -128.5397479 -0.201351E-05  0.219E-03    0.01       5.4  T
   7   -128.5397485 -0.600486E-06  0.238E-04    0.01      49.6  T
   8   -128.5397485 -0.592388E-08  0.599E-05    0.01     196.6  T
     SCC iter.                  ...        0 min,  0.123 sec
     gradient                   ...        0 min,  0.050 sec
 * total energy  :  -126.1027451 Eh     change       -0.8388714E-05 Eh
   gradient norm :     0.0003884 Eh/α   predicted    -0.3537816E-05 ( -57.83%)
   displ. norm   :     0.1035834 α      lambda       -0.5441851E-05
   maximum displ.:     0.0670651 α      in ANC's #1, #3, #2, ...

........................................................................
.............................. CYCLE   35 ..............................
........................................................................

 iter      E             dE          RMSdq      gap      omega  full diag
   1   -128.5398873 -0.128540E+03  0.205E-02    0.01       0.0  T
   2   -128.5306811  0.920620E-02  0.268E-01    0.02       1.0  T
   3   -128.5398165 -0.913538E-02  0.266E-02    0.01       1.0  T
   4   -128.5398851 -0.686134E-04  0.678E-03    0.01       1.7  T
   5   -128.5398871 -0.192939E-05  0.537E-03    0.01       2.2  T
   6   -128.5398906 -0.357214E-05  0.133E-03    0.01       8.8  T
   7   -128.5398908 -0.215456E-06  0.222E-04    0.01      53.0  T
   8   -128.5398909 -0.571700E-08  0.475E-05    0.01     248.1  T
     SCC iter.                  ...        0 min,  0.121 sec
     gradient                   ...        0 min,  0.042 sec
 * total energy  :  -126.1027519 Eh     change       -0.6755204E-05 Eh
   gradient norm :     0.0003588 Eh/α   predicted    -0.2735421E-05 ( -59.51%)
   displ. norm   :     0.0951793 α      lambda       -0.5411755E-05
   maximum displ.:     0.0604288 α      in ANC's #1, #2, #3, ...

........................................................................
.............................. CYCLE   36 ..............................
........................................................................

 iter      E             dE          RMSdq      gap      omega  full diag
   1   -128.5400049 -0.128540E+03  0.180E-02    0.01       0.0  T
   2   -128.5353906  0.461431E-02  0.190E-01    0.02       1.0  T
   3   -128.5398746 -0.448401E-02  0.336E-02    0.01       1.0  T
   4   -128.5400043 -0.129705E-03  0.437E-03    0.01       2.7  T
   5   -128.5400052 -0.838665E-06  0.339E-03    0.01       3.5  T
   6   -128.5400065 -0.132060E-05  0.125E-03    0.01       9.5  T
   7   -128.5400067 -0.178947E-06  0.379E-04    0.01      31.1  T
   8   -128.5400067 -0.186729E-07  0.743E-05    0.01     158.6  T
     SCC iter.                  ...        0 min,  0.121 sec
     gradient                   ...        0 min,  0.052 sec
 * total energy  :  -126.1027587 Eh     change       -0.6865959E-05 Eh
   gradient norm :     0.0004175 Eh/α   predicted    -0.2717894E-05 ( -60.41%)
   displ. norm   :     0.1110031 α      lambda       -0.6475739E-05
   maximum displ.:     0.0685971 α      in ANC's #1, #2, #3, ...

........................................................................
.............................. CYCLE   37 ..............................
........................................................................

 iter      E             dE          RMSdq      gap      omega  full diag
   1   -128.5400622 -0.128540E+03  0.204E-02    0.01       0.0  T
   2   -128.5373649  0.269737E-02  0.145E-01    0.01       1.0  T
   3   -128.5396626 -0.229771E-02  0.571E-02    0.01       1.0  T
   4   -128.5400600 -0.397422E-03  0.507E-03    0.01       2.3  T
   5   -128.5400619 -0.195067E-05  0.320E-03    0.01       3.7  T
   6   -128.5400630 -0.109466E-05  0.144E-03    0.01       8.2  T
   7   -128.5400633 -0.251178E-06  0.354E-04    0.01      33.3  T
   8   -128.5400633 -0.136308E-07  0.160E-04    0.01      73.7  T
     SCC iter.                  ...        0 min,  0.121 sec
     gradient                   ...        0 min,  0.051 sec
 * total energy  :  -126.1027668 Eh     change       -0.8036754E-05 Eh
   gradient norm :     0.0005191 Eh/α   predicted    -0.3256302E-05 ( -59.48%)
   displ. norm   :     0.1204760 α      lambda       -0.6627368E-05
   maximum displ.:     0.0732147 α      in ANC's #1, #2, #3, ...

........................................................................
.............................. CYCLE   38 ..............................
........................................................................

 iter      E             dE          RMSdq      gap      omega  full diag
   1   -128.5400267 -0.128540E+03  0.216E-02    0.01       0.0  T
   2   -128.5390497  0.977013E-03  0.881E-02    0.01       1.0  T
   3   -128.5384904  0.559293E-03  0.110E-01    0.01       1.0  T
   4   -128.5400258 -0.153537E-02  0.329E-03    0.01       3.6  T
   5   -128.5400267 -0.923299E-06  0.188E-03    0.01       6.3  T
   6   -128.5400269 -0.156992E-06  0.154E-03    0.01       7.6  T
   7   -128.5400272 -0.305317E-06  0.105E-04    0.01     112.6  T
   8   -128.5400272  0.324405E-09  0.101E-04    0.01     116.7  T
     SCC iter.                  ...        0 min,  0.123 sec
     gradient                   ...        0 min,  0.050 sec
 * total energy  :  -126.1027747 Eh     change       -0.7913282E-05 Eh
   gradient norm :     0.0004649 Eh/α   predicted    -0.3336616E-05 ( -57.84%)
   displ. norm   :     0.1073205 α      lambda       -0.5236544E-05
   maximum displ.:     0.0653842 α      in ANC's #2, #1, #3, ...

........................................................................
.............................. CYCLE   39 ..............................
........................................................................

 iter      E             dE          RMSdq      gap      omega  full diag
   1   -128.5400694 -0.128540E+03  0.192E-02    0.01       0.0  T
   2   -128.5393870  0.682428E-03  0.738E-02    0.01       1.0  T
   3   -128.5384785  0.908531E-03  0.112E-01    0.01       1.0  T
   4   -128.5400687 -0.159027E-02  0.277E-03    0.01       4.3  T
   5   -128.5400695 -0.775816E-06  0.133E-03    0.01       8.9  T
   6   -128.5400696 -0.932026E-07  0.102E-03    0.01      11.5  T
   7   -128.5400697 -0.119848E-06  0.327E-04    0.01      36.0  T
   8   -128.5400697 -0.128585E-07  0.373E-05    0.01     316.1  T
     SCC iter.                  ...        0 min,  0.123 sec
     gradient                   ...        0 min,  0.047 sec
 * total energy  :  -126.1027808 Eh     change       -0.6114466E-05 Eh
   gradient norm :     0.0003509 Eh/α   predicted    -0.2636479E-05 ( -56.88%)
   displ. norm   :     0.0801915 α      lambda       -0.3509918E-05
   maximum displ.:     0.0514458 α      in ANC's #2, #1, #3, ...

........................................................................
.............................. CYCLE   40 ..............................
........................................................................

 iter      E             dE          RMSdq      gap      omega  full diag
   1   -128.5400505 -0.128540E+03  0.145E-02    0.01       0.0  T
   2   -128.5382102  0.184031E-02  0.120E-01    0.01       1.0  T
   3   -128.5398375 -0.162734E-02  0.416E-02    0.01       1.0  T
   4   -128.5400511 -0.213601E-03  0.884E-04    0.01      13.3  T
   5   -128.5400511  0.269701E-07  0.894E-04    0.01      13.2  T
   6   -128.5400512 -0.682000E-07  0.511E-04    0.01      23.1  T
     SCC iter.                  ...        0 min,  0.094 sec
     gradient                   ...        0 min,  0.044 sec
 * total energy  :  -126.1027848 Eh     change       -0.3979418E-05 Eh
   gradient norm :     0.0002264 Eh/α   predicted    -0.1763418E-05 ( -55.69%)
   displ. norm   :     0.0587062 α      lambda       -0.2261456E-05
   maximum displ.:     0.0390002 α      in ANC's #2, #1, #7, ...

   *** GEOMETRY OPTIMIZATION CONVERGED AFTER 40 ITERATIONS ***

------------------------------------------------------------------------
 total energy gain   :        -0.0195382 Eh      -12.2604 kcal/mol
 total RMSD          :         0.4379652 a0        0.2318 Å
 total power (kW/mol):        -1.2824380 (step)   -6.3276 (real)
------------------------------------------------------------------------

 ANCopt (total)                0 d,  0 h,  0 min,  8.107 sec
 optimizer setup                ...        0 min,  0.001 sec (  0.012%)
 model hessian                  ...        0 min,  0.086 sec (  1.061%)
 ANC generation                 ...        0 min,  0.015 sec (  0.185%)
 coordinate transformation      ...        0 min,  0.003 sec (  0.037%)
 single point calculation       ...        0 min,  7.943 sec ( 97.977%)
 optimization log               ...        0 min,  0.037 sec (  0.456%)
 hessian update                 ...        0 min,  0.004 sec (  0.049%)
 rational function              ...        0 min,  0.009 sec (  0.111%)

================
 final structure:
================
72
 xtb: 6.7.1pre (5071a88)
C           -3.10779749273301        5.10064910571161        0.54717461535731
C           -5.26183913105463        4.05822597365376        0.52133224225161
C           -0.24012575732787        4.94112083527562       -0.00326742397217
C           -4.48480686768570        5.18078648626159        0.68080974892283
C           -2.46783671202757        3.89313003288813        0.27245656117528
C           -4.65723786543947        2.82502412721594        0.26046500714305
C            5.41505531043639        4.54862959020955       -0.44187400172826
C            1.12050433426398        4.85476887554913       -0.14107995196002
C            0.51033260484593       -4.83469655229908        0.47406487409471
C            3.21524825748083        3.53136978694282       -0.25600288156269
C            5.24245315113865        2.15162709250871       -0.24979703229627
C           -3.55780784397766       -2.24256803100319       -0.27306420717775
C           -1.49571421380536       -3.55192434061462        0.07386070152064
C           -1.03715292369295        3.79858523558212        0.09783634344195
C            0.99313101773375        2.44611473100854       -0.08222712329601
C            3.03223252393816        1.07986557745310       -0.10472736649527
C           -5.64807549328401       -3.44806580097426       -0.68121758972235
C            5.08544992267568       -0.27241036496982       -0.05477426639777
C           -3.63814636285166       -4.68015809949877       -0.38527930087592
C           -3.23447300073518        2.71189057941535        0.16790045434022
C            4.94268154760201       -2.69656437262812        0.15563174473013
C           -1.20819540246476        1.34285273039973        0.00139434935859
C            0.83505315537592       -0.00766334131361       -0.02221817338031
C            2.88120625513348       -1.35551534048110        0.06581931430736
C           -5.35142279656894        1.64697133713953        0.04996848521618
C            2.75826484419846       -3.80293103915029        0.29053889423221
C           -3.39906741839354        0.25212871783281       -0.11576858419665
C            4.81501588050076       -5.09572956289682        0.36046355346200
C           -1.37815659387546       -1.10236378036639       -0.06446058756812
C            0.68536701382782       -2.45406592816742        0.12700148821900
C            4.03159689421029        4.65637330830810       -0.38323935559470
C           -4.82267508281288        0.44150946682572       -0.18409557429303
C            3.42843832373909       -5.02519692203656        0.37473462060710
C            6.02010171712964        3.32018108751976       -0.37000904589540
C           -2.78869843528667       -1.02507116619151       -0.15327269998565
C           -0.72986061275905       -2.37214847052360        0.03503126227530
C            1.31710798181500       -3.70669926937196        0.29327432442320
C            1.77551836725618        3.62148897607061       -0.16224165371411
C            3.82134231773579        2.25678089091166       -0.20291220253141
C           -4.94543405165202       -2.26718749036528       -0.50773715349179
C            5.84267117926707        0.89429382043865       -0.17107148011756
C           -2.91234963808033       -3.49937038055807       -0.18220234607626
C           -0.85087000057668       -4.76044425085009        0.36435218636508
C           -0.42076598171776        2.53368593298422        0.01179202600227
C            1.61588661323554        1.16782198254414       -0.07529207578602
C            3.65605972069487       -0.18143191060426       -0.03284389124957
C           -4.98939127194753       -4.66157392584686       -0.63518968651043
C            5.69311679685233       -1.52582426451252        0.03778842739649
C           -2.62630122821086        1.43419466420428        0.01391708309217
C            5.56875930621189       -3.95422349610154        0.25686469308280
C           -0.59183746020632        0.07926662595755       -0.03425811030348
C            1.46651451382535       -1.26767020382040        0.04950069153549
C            3.51920951519390       -2.61977471618730        0.17001896826176
H           -6.33736864522622        4.10561555049700        0.59182887755001
H            0.95287276117910       -5.79031876642391        0.70188208722297
H           -6.71081962084014       -3.39748221583410       -0.86307487671271
H           -3.13253742376048       -5.63066862054954       -0.37313061661933
H            5.29655540431454       -6.06037574856827        0.42950095314376
H            2.87720034570985       -5.94845414812321        0.44367590317855
H           -1.42480175406511       -5.65862406782711        0.52130898114757
H           -5.53181387544015       -5.58095747096152       -0.79361312935069
H           -2.53169342170273        6.00187589121010        0.67825112525086
H           -0.69122183515083        5.91971554991438        0.00845893154409
H           -4.94438045880295        6.13315979020118        0.90116510363880
H            6.01178644675812        5.44385474054762       -0.54043738055703
H            1.68075102262695        5.77162813891894       -0.22132919513027
H            3.60119535321243        5.64237188105169       -0.44170509719571
H            7.09561726636133        3.22850222369018       -0.40613673874600
H            6.92051261919112        0.82146164716603       -0.19775279483018
H            6.77171432333042       -1.58977386833517        0.02059818452751
H            6.64769150335610       -4.00121266005920        0.24729034153627
S           -5.94097643820096       -0.83638239599571       -0.62483255423563
 
 Bond Distances (Angstroems)
 ---------------------------
C1-C4=1.3858         C1-C5=1.3940         C1-H62=1.0776        C2-C4=1.3745         C2-C6=1.3980         C2-H54=1.0789        
C3-C8=1.3703         C3-C14=1.3967        C3-H63=1.0776        C4-C1=1.3858         C4-C2=1.3745         C4-H64=1.0802        
C5-C1=1.3940         C5-C14=1.4444        C5-C20=1.4121        C6-C2=1.3980         C6-C20=1.4303        C6-C25=1.3835        
C7-C31=1.3889        C7-C34=1.3713        C7-H65=1.0804        C8-C3=1.3703         C8-C38=1.3966        C8-H66=1.0775        
C9-C37=1.3986        C9-C43=1.3676        C9-H55=1.0775        C10-C31=1.3958       C10-C38=1.4456       C10-C39=1.4124       
C11-C34=1.4088       C11-C39=1.4258       C11-C41=1.3955       C12-C35=1.4451       C12-C40=1.4075       C12-C42=1.4158       
C13-C36=1.4071       C13-C42=1.4406       C13-C43=1.4003       C14-C3=1.3967        C14-C5=1.4444        C14-C44=1.4097       
C15-C38=1.4142       C15-C44=1.4197       C15-C45=1.4219       C16-C39=1.4204       C16-C45=1.4194       C16-C46=1.4090       
C17-C40=1.3850       C17-C47=1.3815       C17-H56=1.0794       C18-C41=1.3957       C18-C46=1.4325       C18-C48=1.3960       
C19-C42=1.4008       C19-C47=1.3743       C19-H57=1.0767       C20-C5=1.4121        C20-C6=1.4303        C20-C49=1.4234       
C21-C48=1.3956       C21-C50=1.4085       C21-C53=1.4256       C22-C44=1.4277       C22-C49=1.4211       C22-C51=1.4063       
C23-C45=1.4122       C23-C51=1.4296       C23-C52=1.4112       C24-C46=1.4102       C24-C52=1.4175       C24-C53=1.4199       
C25-C6=1.3835        C25-C32=1.3370       C26-C33=1.3965       C26-C37=1.4444       C26-C53=1.4119       C27-C32=1.4378       
C27-C35=1.4160       C27-C49=1.4182       C28-C33=1.3884       C28-C50=1.3718       C28-H58=1.0804       C29-C35=1.4154       
C29-C36=1.4292       C29-C51=1.4197       C30-C36=1.4206       C30-C37=1.4127       C30-C52=1.4226       C31-C7=1.3889        
C31-C10=1.3958       C31-H67=1.0774       C32-C25=1.3370       C32-C27=1.4378       C32-S72=1.7544       C33-C26=1.3965       
C33-C28=1.3884       C33-H59=1.0775       C34-C7=1.3713        C34-C11=1.4088       C34-H68=1.0800       C35-C12=1.4451       
C35-C27=1.4160       C35-C29=1.4154       C36-C13=1.4071       C36-C29=1.4292       C36-C30=1.4206       C37-C9=1.3986        
C37-C26=1.4444       C37-C30=1.4127       C38-C8=1.3966        C38-C10=1.4456       C38-C15=1.4142       C39-C10=1.4124       
C39-C11=1.4258       C39-C16=1.4204       C40-C12=1.4075       C40-C17=1.3850       C40-S72=1.7470       C41-C11=1.3955       
C41-C18=1.3957       C41-H69=1.0806       C42-C12=1.4158       C42-C13=1.4406       C42-C19=1.4008       C43-C9=1.3676        
C43-C13=1.4003       C43-H60=1.0774       C44-C14=1.4097       C44-C15=1.4197       C44-C22=1.4277       C45-C15=1.4219       
C45-C16=1.4194       C45-C23=1.4122       C46-C16=1.4090       C46-C18=1.4325       C46-C24=1.4102       C47-C17=1.3815       
C47-C19=1.3743       C47-H61=1.0792       C48-C18=1.3960       C48-C21=1.3956       C48-H70=1.0806       C49-C20=1.4234       
C49-C22=1.4211       C49-C27=1.4182       C50-C21=1.4085       C50-C28=1.3718       C50-H71=1.0800       C51-C22=1.4063       
C51-C23=1.4296       C51-C29=1.4197       C52-C23=1.4112       C52-C24=1.4175       C52-C30=1.4226       C53-C21=1.4256       
C53-C24=1.4199       C53-C26=1.4119       H54-C2=1.0789        H55-C9=1.0775        H56-C17=1.0794       H57-C19=1.0767       
H58-C28=1.0804       H59-C33=1.0775       H60-C43=1.0774       H61-C47=1.0792       H62-C1=1.0776        H63-C3=1.0776        
H64-C4=1.0802        H65-C7=1.0804        H66-C8=1.0775        H67-C31=1.0774       H68-C34=1.0800       H69-C41=1.0806       
H70-C48=1.0806       H71-C50=1.0800       S72-C32=1.7544       S72-C40=1.7470       
 C  H  Rav=1.0788 sigma=0.0014  Rmin=1.0767  Rmax=1.0806    18
 C  C  Rav=1.4079 sigma=0.0210  Rmin=1.3370  Rmax=1.4456    69
 S  C  Rav=1.7507 sigma=0.0037  Rmin=1.7470  Rmax=1.7544     2
 
 selected bond angles (degree)
 --------------------
C5-C1-C4=121.69                H62-C1-C4=118.11               H62-C1-C5=120.20               C6-C2-C4=119.84                
H54-C2-C4=121.34               H54-C2-C6=118.82               C14-C3-C8=121.49               H63-C3-C8=118.29               
H63-C3-C14=120.21              C2-C4-C1=120.22                H64-C4-C1=119.57               H64-C4-C2=120.21               
C14-C5-C1=122.36               C20-C5-C1=119.34               C20-C5-C14=118.30              C20-C6-C2=120.80               
C25-C6-C2=124.23               C25-C6-C20=114.96              C34-C7-C31=120.45              H65-C7-C31=119.32              
H65-C7-C34=120.22              C38-C8-C3=121.52               H66-C8-C3=118.04               H66-C8-C38=120.43              
C43-C9-C37=121.33              H55-C9-C37=120.38              H55-C9-C43=118.29              C38-C10-C31=122.56             
C39-C10-C31=118.67             C39-C10-C38=118.77             
 
 selected dihedral angles (degree)
 ---------------------------------
C2-C4-C1-C5=358.93            C2-C4-C1-H62=179.94           H64-C4-C1-C5=179.55           H64-C4-C1-H62=  0.56          
C1-C4-C2-C6=  1.79            C1-C4-C2-H54=181.87           H64-C4-C2-C6=181.17           H64-C4-C2-H54=  1.25          
C14-C5-C1-C4=178.45           C14-C5-C1-H62=357.41          C20-C5-C1-C4=358.00           C20-C5-C1-H62=176.97          
C20-C6-C2-C4=  0.54           C20-C6-C2-H54=180.46          C25-C6-C2-C4=181.77           C25-C6-C2-H54=  1.69          
C38-C8-C3-C14=358.81          C38-C8-C3-H63=179.88          H66-C8-C3-C14=179.57          H66-C8-C3-H63=  0.63          
           -------------------------------------------------
          |                Final Singlepoint                |
           -------------------------------------------------

          ...................................................
          :                      SETUP                      :
          :.................................................:
          :  # basis functions                 240          :
          :  # atomic orbitals                 239          :
          :  # shells                          127          :
          :  # electrons                       236          :
          :  max. iterations                   250          :
          :  Hamiltonian                  GFN2-xTB          :
          :  restarted?                      false          :
          :  GBSA solvation                  false          :
          :  PC potential                    false          :
          :  electronic temp.          300.0000000     K    :
          :  accuracy                    1.0000000          :
          :  -> integral cutoff          0.2500000E+02      :
          :  -> integral neglect         0.1000000E-07      :
          :  -> SCF convergence          0.1000000E-05 Eh   :
          :  -> wf. convergence          0.1000000E-03 e    :
          :  Broyden damping             0.4000000          :
          :  net charge                          0          :
          :  unpaired electrons                  0          :
          ...................................................

[...]
       109        2.0000           -0.4033151             -10.9748
       110        2.0000           -0.4016039             -10.9282
       111        2.0000           -0.3985864             -10.8461
       112        2.0000           -0.3964197             -10.7871
       113        2.0000           -0.3945194             -10.7354
       114        2.0000           -0.3913920             -10.6503
       115        2.0000           -0.3791601             -10.3175
       116        2.0000           -0.3631718              -9.8824
       117        2.0000           -0.3485647              -9.4849
       118        1.0875           -0.3269074              -8.8956 (HOMO)
       119        0.9125           -0.3265741              -8.8865 (LUMO)
       120                         -0.2920454              -7.9470
       121                         -0.2768110              -7.5324
       122                         -0.2586047              -7.0370
       123                         -0.2508194              -6.8251
       124                         -0.2445336              -6.6541
       125                         -0.2432191              -6.6183
       126                         -0.2343745              -6.3777
       127                         -0.2324523              -6.3253
       128                         -0.2303269              -6.2675
       129                         -0.2175051              -5.9186
       ...                                ...                  ...
       239                          0.7605055              20.6944
      -------------------------------------------------------------
                  HL-Gap            0.0003333 Eh            0.0091 eV
             Fermi-level           -0.3267408 Eh           -8.8911 eV

     #   Z          covCN         q      C6AA      α(0)
     1   6 C        2.922    -0.039    28.959     8.825
     2   6 C        2.919    -0.033    28.830     8.805
     3   6 C        2.920    -0.037    28.919     8.819
     4   6 C        2.915    -0.029    28.715     8.787
     5   6 C        2.978     0.009    27.818     8.652
     6   6 C        2.984     0.027    27.393     8.585
     7   6 C        2.912    -0.030    28.737     8.790
     8   6 C        2.920    -0.037    28.909     8.817
     9   6 C        2.920    -0.037    28.915     8.818
    10   6 C        2.976     0.007    27.869     8.659
    11   6 C        2.980     0.013    27.722     8.637
    12   6 C        3.000     0.000    28.014     8.682
    13   6 C        2.983     0.004    27.918     8.667
    14   6 C        2.982     0.005    27.905     8.665
    15   6 C        2.990     0.002    27.978     8.677
    16   6 C        2.986     0.001    28.000     8.680
    17   6 C        3.029    -0.044    29.050     8.841
    18   6 C        2.975     0.012    27.747     8.640
    19   6 C        2.925    -0.043    29.073     8.842
    20   6 C        3.004     0.001    27.983     8.677
    21   6 C        2.979     0.013    27.721     8.636
    22   6 C        2.986     0.001    28.007     8.681
    23   6 C        2.985    -0.001    28.033     8.685
    24   6 C        2.986     0.001    28.006     8.681
    25   6 C        2.109    -0.087    33.217     9.313
    26   6 C        2.976     0.006    27.872     8.660
    27   6 C        3.003     0.004    27.930     8.669
    28   6 C        2.912    -0.030    28.737     8.790
    29   6 C        2.984    -0.002    28.068     8.691
    30   6 C        2.990     0.001    27.985     8.678
    31   6 C        2.922    -0.036    28.905     8.817
    32   6 C        2.961     0.049    26.889     8.505
    33   6 C        2.922    -0.036    28.903     8.816
    34   6 C        2.922    -0.037    28.919     8.819
    35   6 C        2.971     0.004    27.923     8.668
    36   6 C        2.989     0.002    27.974     8.676
    37   6 C        2.981     0.004    27.918     8.667
    38   6 C        2.980     0.004    27.922     8.668
    39   6 C        2.994     0.002    27.973     8.676
    40   6 C        2.971     0.046    26.960     8.517
    41   6 C        2.925    -0.045    29.110     8.848
    42   6 C        2.986     0.006    27.878     8.661
    43   6 C        2.920    -0.038    28.935     8.821
    44   6 C        2.989     0.001    27.998     8.680
    45   6 C        2.987    -0.001    28.041     8.686
    46   6 C        2.993     0.000    28.018     8.683
    47   6 C        2.916    -0.029    28.716     8.787
    48   6 C        2.925    -0.044    29.105     8.847
    49   6 C        2.986    -0.004    28.109     8.697
    50   6 C        2.922    -0.037    28.916     8.818
    51   6 C        2.984    -0.001    28.036     8.686
    52   6 C        2.987    -0.000    28.024     8.684
    53   6 C        2.994     0.002    27.973     8.676
    54   1 H        0.926     0.042     2.420     2.433
    55   1 H        0.926     0.035     2.521     2.483
    56   1 H        0.926     0.042     2.425     2.435
    57   1 H        0.926     0.038     2.475     2.460
    58   1 H        0.926     0.030     2.579     2.512
    59   1 H        0.926     0.033     2.538     2.491
    60   1 H        0.926     0.035     2.511     2.478
    61   1 H        0.926     0.037     2.494     2.470
    62   1 H        0.926     0.034     2.532     2.488
    63   1 H        0.926     0.035     2.513     2.479
    64   1 H        0.926     0.032     2.558     2.501
    65   1 H        0.926     0.030     2.579     2.512
    66   1 H        0.926     0.035     2.519     2.482
    67   1 H        0.926     0.033     2.540     2.492
    68   1 H        0.926     0.032     2.560     2.502
    69   1 H        0.926     0.032     2.551     2.498
    70   1 H        0.926     0.033     2.551     2.498
    71   1 H        0.926     0.032     2.559     2.502
    72  16 S        2.206    -0.096   145.055    20.271

 Mol. C6AA /au·bohr⁶  :     104080.556749
 Mol. C8AA /au·bohr⁸  :    2890615.370856
 Mol. α(0) /au        :        527.437385


Wiberg/Mayer (AO) data.
largest (>0.10) Wiberg bond orders for each atom

 ---------------------------------------------------------------------------
     #   Z sym  total        # sym  WBO       # sym  WBO       # sym  WBO
 ---------------------------------------------------------------------------
     1   6 C    3.944 --     4 C    1.413     5 C    1.382    62 H    0.962
     2   6 C    3.942 --     4 C    1.471     6 C    1.316    54 H    0.968
     3   6 C    3.962 --     8 C    1.489    14 C    1.339    63 H    0.961
     4   6 C    3.980 --     2 C    1.471     1 C    1.413    64 H    0.970
     5   6 C    3.972 --     1 C    1.382    20 C    1.268    14 C    1.127
     6   6 C    3.950 --     2 C    1.316    25 C    1.277    20 C    1.181
     7   6 C    3.983 --    34 C    1.496    31 C    1.394    65 H    0.970
     8   6 C    3.968 --     3 C    1.489    38 C    1.344    66 H    0.960
     9   6 C    3.971 --    43 C    1.506    37 C    1.330    55 H    0.961
    10   6 C    3.979 --    31 C    1.374    39 C    1.279    38 C    1.136
    11   6 C    3.985 --    41 C    1.332    34 C    1.276    39 C    1.216
    12   6 C    3.978 --    40 C    1.299    42 C    1.284    35 C    1.164
    13   6 C    3.969 --    43 C    1.323    36 C    1.299    42 C    1.142
    14   6 C    3.959 --     3 C    1.339    44 C    1.294     5 C    1.127
    15   6 C    3.980 --    38 C    1.282    44 C    1.253    45 C    1.220
    16   6 C    3.976 --    46 C    1.284    45 C    1.236    39 C    1.235
    17   6 C    3.973 --    40 C    1.412    47 C    1.406    56 H    0.967
    18   6 C    3.989 --    41 C    1.328    48 C    1.327    46 C    1.174
    19   6 C    3.977 --    47 C    1.469    42 C    1.347    57 H    0.961
    20   6 C    3.922 --     5 C    1.268    49 C    1.238     6 C    1.181
    21   6 C    3.985 --    48 C    1.331    50 C    1.277    53 C    1.215
    22   6 C    3.965 --    51 C    1.300    49 C    1.231    44 C    1.205
    23   6 C    3.970 --    45 C    1.276    52 C    1.274    51 C    1.197
    24   6 C    3.975 --    46 C    1.277    52 C    1.243    53 C    1.235
    25   6 C    3.117 --    32 C    1.589     6 C    1.277
    26   6 C    3.979 --    33 C    1.369    53 C    1.279    37 C    1.139
    27   6 C    3.904 --    49 C    1.275    35 C    1.271    32 C    1.138
    28   6 C    3.983 --    50 C    1.493    33 C    1.397    58 H    0.970
    29   6 C    3.970 --    35 C    1.288    51 C    1.249    36 C    1.201
    30   6 C    3.980 --    37 C    1.289    36 C    1.251    52 C    1.214
    31   6 C    3.884 --     7 C    1.394    10 C    1.374    67 H    0.962
    32   6 C    3.930 --    25 C    1.589    27 C    1.138    72 S    1.027
    33   6 C    3.881 --    28 C    1.397    26 C    1.369    59 H    0.962
    34   6 C    3.889 --     7 C    1.496    11 C    1.276    68 H    0.969
    35   6 C    3.946 --    29 C    1.288    27 C    1.271    12 C    1.164
    36   6 C    3.977 --    13 C    1.299    30 C    1.251    29 C    1.201
    37   6 C    3.953 --     9 C    1.330    30 C    1.289    26 C    1.139
    38   6 C    3.956 --     8 C    1.344    15 C    1.282    10 C    1.136
    39   6 C    3.944 --    10 C    1.279    16 C    1.235    11 C    1.216
    40   6 C    3.954 --    17 C    1.412    12 C    1.299    72 S    1.066
    41   6 C    3.772 --    11 C    1.332    18 C    1.328    69 H    0.966
    42   6 C    3.976 --    19 C    1.347    12 C    1.284    13 C    1.142
    43   6 C    3.959 --     9 C    1.506    13 C    1.323    60 H    0.960
    44   6 C    3.978 --    14 C    1.294    15 C    1.253    22 C    1.205
    45   6 C    3.940 --    23 C    1.276    16 C    1.236    15 C    1.220
    46   6 C    3.964 --    16 C    1.284    24 C    1.277    18 C    1.174
    47   6 C    3.977 --    19 C    1.469    17 C    1.406    61 H    0.969
    48   6 C    3.768 --    21 C    1.331    18 C    1.327    70 H    0.966
    49   6 C    3.972 --    27 C    1.275    20 C    1.238    22 C    1.231
    50   6 C    3.886 --    28 C    1.493    21 C    1.277    71 H    0.969
    51   6 C    3.971 --    22 C    1.300    29 C    1.249    23 C    1.197
    52   6 C    3.935 --    23 C    1.274    24 C    1.243    30 C    1.214
    53   6 C    3.944 --    26 C    1.279    24 C    1.235    21 C    1.215
    54   1 H    0.995 --     2 C    0.968
    55   1 H    0.998 --     9 C    0.961
    56   1 H    0.997 --    17 C    0.967
    57   1 H    0.997 --    19 C    0.961
    58   1 H    0.998 --    28 C    0.970
    59   1 H    0.998 --    33 C    0.962
    60   1 H    0.998 --    43 C    0.960
    61   1 H    0.997 --    47 C    0.969
    62   1 H    0.998 --     1 C    0.962
    63   1 H    0.998 --     3 C    0.961
    64   1 H    0.997 --     4 C    0.970
    65   1 H    0.998 --     7 C    0.970
    66   1 H    0.997 --     8 C    0.960
    67   1 H    0.998 --    31 C    0.962
    68   1 H    0.998 --    34 C    0.969
    69   1 H    0.998 --    41 C    0.966
    70   1 H    0.998 --    48 C    0.966
    71   1 H    0.998 --    50 C    0.969
    72  16 S    2.414 --    40 C    1.066    32 C    1.027
 ---------------------------------------------------------------------------

Topologies differ in total number of bonds
Writing topology from bond orders to xtbtopo.mol

molecular dipole:
                 x           y           z       tot (Debye)
 q only:        0.788      -0.091       0.081
   full:        1.127      -0.129       0.119       2.898
molecular quadrupole (traceless):
                xx          xy          yy          xz          yz          zz
 q only:       -6.030       1.590      15.710      -1.265       0.190      -9.680
  q+dip:       -0.484       2.318      33.596      -2.183      -0.403     -33.112
   full:       -9.826       2.336      23.169      -2.120      -0.002     -13.343

           -------------------------------------------------
          |                Geometry Summary                 |
           -------------------------------------------------

      molecular mass/u    :      686.7767236
   center of mass at/Å    :       -0.0179997       0.0013240      -0.0319152
  moments of inertia/u·Å² :        0.7031027E+04   0.9798253E+04   0.1669300E+05
rotational constants/cm⁻¹ :        0.2397606E-02   0.1720473E-02   0.1009862E-02

 * 82 selected distances

     #   Z          #   Z                                           value/Å
     1   6 C        4   6 C                                       1.3857978
     2   6 C        4   6 C                                       1.3745380
     1   6 C        5   6 C                                       1.3939593
     2   6 C        6   6 C                                       1.3979920
     3   6 C        8   6 C                                       1.3703151
     3   6 C       14   6 C                                       1.3967327
     5   6 C       20   6 C                                       1.4120872
     6   6 C       20   6 C                                       1.4302544
     6   6 C       25   6 C                                       1.3834776
     7   6 C       31   6 C                                       1.3888860
    10   6 C       31   6 C                                       1.3957964
    25   6 C       32   6 C                                       1.3369737
    26   6 C       33   6 C                                       1.3964797
    28   6 C       33   6 C                                       1.3884438
     7   6 C       34   6 C                                       1.3712519
    11   6 C       34   6 C                                       1.4087963
    27   6 C       35   6 C                                       1.4160497
    29   6 C       35   6 C                                       1.4154471
    13   6 C       36   6 C                                       1.4070931
    29   6 C       36   6 C                                       1.4291745
    30   6 C       36   6 C                                       1.4205769
     9   6 C       37   6 C                                       1.3985528
    30   6 C       37   6 C                                       1.4127399
     8   6 C       38   6 C                                       1.3965926
    15   6 C       38   6 C                                       1.4142267
    10   6 C       39   6 C                                       1.4123547
    11   6 C       39   6 C                                       1.4257671
    16   6 C       39   6 C                                       1.4203748
    12   6 C       40   6 C                                       1.4075455
    17   6 C       40   6 C                                       1.3850178
    11   6 C       41   6 C                                       1.3954737
    18   6 C       41   6 C                                       1.3957464
    12   6 C       42   6 C                                       1.4157771
    19   6 C       42   6 C                                       1.4008145
     9   6 C       43   6 C                                       1.3676341
    13   6 C       43   6 C                                       1.4002607
    14   6 C       44   6 C                                       1.4097188
    15   6 C       44   6 C                                       1.4197230
    22   6 C       44   6 C                                       1.4276685
    15   6 C       45   6 C                                       1.4219372
    16   6 C       45   6 C                                       1.4193798
    23   6 C       45   6 C                                       1.4121912
    16   6 C       46   6 C                                       1.4089710
    18   6 C       46   6 C                                       1.4324506
    24   6 C       46   6 C                                       1.4101789
    17   6 C       47   6 C                                       1.3815158
    19   6 C       47   6 C                                       1.3742866
    18   6 C       48   6 C                                       1.3960206
    21   6 C       48   6 C                                       1.3955905
    20   6 C       49   6 C                                       1.4234082
    22   6 C       49   6 C                                       1.4210998
    27   6 C       49   6 C                                       1.4181912
    21   6 C       50   6 C                                       1.4085199
    28   6 C       50   6 C                                       1.3718230
    22   6 C       51   6 C                                       1.4063493
    23   6 C       51   6 C                                       1.4295870
    29   6 C       51   6 C                                       1.4196692
    23   6 C       52   6 C                                       1.4112068
    24   6 C       52   6 C                                       1.4175106
    30   6 C       52   6 C                                       1.4225797
    21   6 C       53   6 C                                       1.4256145
    24   6 C       53   6 C                                       1.4199500
    26   6 C       53   6 C                                       1.4118857
     2   6 C       54   1 H                                       1.0788788
     9   6 C       55   1 H                                       1.0774769
    17   6 C       56   1 H                                       1.0793776
    19   6 C       57   1 H                                       1.0766887 (min)
    28   6 C       58   1 H                                       1.0803652
    33   6 C       59   1 H                                       1.0775065
    43   6 C       60   1 H                                       1.0773859
    47   6 C       61   1 H                                       1.0791601
     1   6 C       62   1 H                                       1.0776302
     3   6 C       63   1 H                                       1.0776238
     4   6 C       64   1 H                                       1.0801757
     7   6 C       65   1 H                                       1.0803847
     8   6 C       66   1 H                                       1.0774727
    31   6 C       67   1 H                                       1.0774308
    34   6 C       68   1 H                                       1.0800204
    41   6 C       69   1 H                                       1.0806289
    48   6 C       70   1 H                                       1.0806285
    50   6 C       71   1 H                                       1.0799975
    40   6 C       72  16 S                                       1.7470031 (max)

 * 3 distinct bonds (by element types)

   Z      Z             #   av. dist./Å        max./Å        min./Å
   1 H    6 C          18     1.0788240     1.0806289     1.0766887
   6 C    6 C          63     1.4045401     1.4324506     1.3369737
   6 C   16 S           1     1.7470031     1.7470031     1.7470031


optimized geometry written to: xtbopt.xyz


           -------------------------------------------------
          | TOTAL ENERGY             -126.102784809554 Eh   |
          | GRADIENT NORM               0.000225256188 Eh/α |
          | HOMO-LUMO GAP               0.009070250592 eV   |
           -------------------------------------------------

------------------------------------------------------------------------
 * finished run on 2025/12/08 at 00:35:18.634     
------------------------------------------------------------------------
 total:
 * wall-time:     0 d,  0 h,  0 min,  8.765 sec
 *  cpu-time:     0 d,  0 h,  0 min, 34.250 sec
 * ratio c/w:     3.908 speedup
 SCF:
 * wall-time:     0 d,  0 h,  0 min,  0.444 sec
 *  cpu-time:     0 d,  0 h,  0 min,  1.734 sec
 * ratio c/w:     3.906 speedup
 ANC optimizer:
 * wall-time:     0 d,  0 h,  0 min,  8.253 sec
 *  cpu-time:     0 d,  0 h,  0 min, 32.250 sec
 * ratio c/w:     3.908 speedup

normal termination of xtb
