72
 energy: -126.083246595004 gnorm: 0.081582126698 xtb: 6.7.1pre (5071a88)
C           -3.14496100000000        5.17535600000000        0.18680100000000
C           -5.30276700000000        4.11223400000000        0.24019600000000
C           -0.22952500000000        4.97321100000000       -0.03818700000000
C           -4.53748700000000        5.26585900000000        0.25808800000000
C           -2.49756800000000        3.93400200000000        0.10141500000000
C           -4.71316000000000        2.82810500000000        0.15761200000000
C            5.48722700000000        4.57508500000000       -0.20740600000000
C            1.14482900000000        4.88683100000000       -0.09206900000000
C            0.54381200000000       -4.90065500000000        0.16301800000000
C            3.25300600000000        3.54963800000000       -0.12407700000000
C            5.29618500000000        2.16330800000000       -0.10997800000000
C           -3.61143400000000       -2.27267100000000       -0.08607900000000
C           -1.50008400000000       -3.58804700000000       -0.00796700000000
C           -1.04693900000000        3.83015400000000        0.02063600000000
C            1.00354800000000        2.46326900000000       -0.04235000000000
C            3.05624800000000        1.08570700000000       -0.04323900000000
C           -5.74191800000000       -3.49803100000000       -0.27911200000000
C            5.11865800000000       -0.26982000000000       -0.01122500000000
C           -3.68768300000000       -4.72825900000000       -0.28172600000000
C           -3.28002900000000        2.73901700000000        0.09793300000000
C            4.98981800000000       -2.70671600000000        0.09234300000000
C           -1.22462600000000        1.35291400000000        0.01719500000000
C            0.83403200000000       -0.00725800000000       -0.00053700000000
C            2.90340300000000       -1.36202800000000        0.03880400000000
C           -5.57156800000000        1.67866600000000        0.12881500000000
C            2.79363100000000       -3.82759800000000        0.13525100000000
C           -3.46057600000000        0.26594600000000        0.02495700000000
C            4.88444200000000       -5.12308300000000        0.19456300000000
C           -1.40638800000000       -1.11029000000000       -0.00643000000000
C            0.69070400000000       -2.47702700000000        0.05463300000000
C            4.08821700000000        4.67635800000000       -0.18439300000000
C           -4.88190500000000        0.48675300000000        0.04868000000000
C            3.48358700000000       -5.04886100000000        0.18639500000000
C            6.09249500000000        3.33697300000000       -0.16829000000000
C           -2.83219200000000       -1.03133300000000       -0.01491300000000
C           -0.74180000000000       -2.39211000000000        0.00991800000000
C            1.33872700000000       -3.74491600000000        0.11699100000000
C            1.79898300000000        3.64598000000000       -0.08751600000000
C            3.85908700000000        2.26463200000000       -0.09206200000000
C           -5.03694400000000       -2.30223600000000       -0.14328200000000
C            5.89373000000000        0.89900300000000       -0.06628500000000
C           -2.94721100000000       -3.53543200000000       -0.12526100000000
C           -0.82704400000000       -4.82124000000000        0.10006000000000
C           -0.42514600000000        2.55176100000000        0.00088900000000
C            1.62784800000000        1.17625300000000       -0.02974800000000
C            3.68101200000000       -0.18132900000000       -0.00548500000000
C           -5.06688900000000       -4.71277100000000       -0.36153600000000
C            5.73931100000000       -1.52589200000000        0.03872100000000
C           -2.65118500000000        1.45048700000000        0.04538700000000
C            5.63643100000000       -3.96817200000000        0.14712800000000
C           -0.60499400000000        0.08044600000000        0.00377300000000
C            1.47440000000000       -1.27791600000000        0.03106600000000
C            3.55319100000000       -2.62943700000000        0.08871200000000
H           -6.38757600000000        4.15699900000000        0.28771100000000
H            0.99510600000000       -5.88110200000000        0.24677200000000
H           -6.82729400000000       -3.47068700000000       -0.32775000000000
H           -3.17996600000000       -5.67961000000000       -0.36325000000000
H            5.36627700000000       -6.09421800000000        0.23595700000000
H            2.93432800000000       -5.98181800000000        0.21872600000000
H           -1.38526800000000       -5.74612000000000        0.15212800000000
H           -5.61943800000000       -5.63936600000000       -0.48741200000000
H           -2.57155700000000        6.09444200000000        0.20688400000000
H           -0.67374900000000        5.96035700000000       -0.04654500000000
H           -5.00812600000000        6.24340600000000        0.32585900000000
H            6.08542600000000        5.47923800000000       -0.25438400000000
H            1.71113000000000        5.80926100000000       -0.13347700000000
H            3.65693300000000        5.66939400000000       -0.21528800000000
H            7.17378400000000        3.24025500000000       -0.18171600000000
H            6.97712600000000        0.81843600000000       -0.07448000000000
H            6.82444300000000       -1.58282200000000        0.03615300000000
H            6.72146300000000       -4.00512500000000        0.15043300000000
S           -6.03501800000000       -0.86374000000000       -0.03133100000000
72
 energy: -126.097080950785 gnorm: 0.046657581613 xtb: 6.7.1pre (5071a88)
C           -3.14183559298145        5.15649254888490        0.18656599127603
C           -5.28854980239443        4.10721764081138        0.23831148525053
C           -0.23201134393447        4.95322306125403       -0.03736651295349
C           -4.52649443772257        5.25015559279824        0.25716591994252
C           -2.49206607839231        3.92213902542222        0.10115717323787
C           -4.68423869609579        2.83909869313980        0.15687892269255
C            5.46361446732628        4.56214463354346       -0.20649544183680
C            1.13757296555054        4.86677557495008       -0.09167158967945
C            0.54198195600729       -4.88083704454964        0.16309319897586
C            3.24265897363862        3.54215176056944       -0.12349191189669
C            5.27504092868648        2.15973547226464       -0.10939981275919
C           -3.59438141495411       -2.26511224223484       -0.08570853025319
C           -1.49500263786125       -3.57557938653884       -0.00847041613517
C           -1.04660862362042        3.81520807107283        0.02159392663599
C            0.99925316502075        2.45447724633847       -0.04167106835359
C            3.04695563966786        1.08456423676429       -0.04294882441934
C           -5.72071138735067       -3.48347115944882       -0.27709986699199
C            5.10442455646468       -0.26907099731768       -0.01101602674909
C           -3.68039357331871       -4.70600335266474       -0.28263194394867
C           -3.26294893890373        2.72978654241305        0.09707293830299
C            4.97266208495961       -2.70080609565150        0.09187514500731
C           -1.21887548483528        1.34760388672081        0.01704182300395
C            0.83367372282363       -0.00832138810866       -0.00025572186573
C            2.89545557219846       -1.35998885464195        0.03880667621616
C           -5.47007833350127        1.66927916553091        0.12845039862286
C            2.78646247609345       -3.81963900955058        0.13416201135017
C           -3.43571095992413        0.25536676085536        0.02425435377314
C            4.86414087209654       -5.10785075859496        0.19356001809077
C           -1.39809770006700       -1.10884411464316       -0.00704233322754
C            0.69067972780717       -2.46848131237097        0.05397907853122
C            4.07381057028061        4.66594449394676       -0.18358413862294
C           -4.84980504148150        0.46235597994332        0.04659941284849
C            3.47236930099844       -5.03805222225017        0.18553088343792
C            6.06522172984315        3.32991507328922       -0.16751874203639
C           -2.81883259593898       -1.03413491185360       -0.01566211607679
C           -0.73639559285282       -2.38480448613548        0.00944403186363
C            1.33747505911980       -3.73079152822976        0.11537338195806
C            1.79314301979269        3.63219913449197       -0.08670649708633
C            3.84611553755175        2.26177683842021       -0.09157673542841
C           -5.00990618240093       -2.29872000899961       -0.14272691674504
C            5.87196594622519        0.89895574023250       -0.06610868543187
C           -2.93652039739363       -3.52257311846568       -0.12441107406160
C           -0.82386789870419       -4.80322469217882        0.10086136660025
C           -0.42478251872519        2.54281196474247        0.00114947768544
C            1.62262341862022        1.17207795437325       -0.02962790989063
C            3.67144456341281       -0.18051119891649       -0.00536068957397
C           -5.05350015447246       -4.69191145663777       -0.36199762021922
C            5.72038664994747       -1.52314728001759        0.03870706192860
C           -2.64161307401147        1.44246412938997        0.04484219217175
C            5.61274588946836       -3.95872687472328        0.14658596223373
C           -0.60112156467559        0.07820532776919        0.00312118378634
C            1.47195435101411       -1.27418837639469        0.03083713082164
C            3.54322016971375       -2.62529774590981        0.08807264401515
H           -6.36879272052578        4.15435041343848        0.28600421764102
H            0.99119015271317       -5.85885197950944        0.24704401678981
H           -6.80153571555158       -3.45003603648900       -0.32218978015642
H           -3.18022714675687       -5.65746894234100       -0.36167337510652
H            5.34720580170719       -6.07527428868203        0.23517102153850
H            2.92936562685192       -5.97019837328818        0.21864546327855
H           -1.37853845858251       -5.72687385340035        0.15288280380171
H           -5.60693414223334       -5.61381962507892       -0.48507332455761
H           -2.57483521680427        6.07478643809696        0.20606421105496
H           -0.67277471206780        5.93859435712727       -0.04586462683186
H           -4.99594085298746        6.22333191357123        0.32470817670123
H            6.06279237860888        5.46232184630371       -0.25344120555013
H            1.70113751005540        5.78715920684752       -0.13367660985582
H            3.64926965355187        5.65774277931934       -0.21477342094382
H            7.14342368124938        3.23506595481674       -0.18116738842254
H            6.95207105818000        0.82054616203103       -0.07436487404740
H            6.80187628802392       -1.58084388302978        0.03636581020544
H            6.69437579896557       -3.99750893519507        0.15010482639605
S           -6.01326927221307       -0.87306008744220       -0.03349160595290
72
 energy: -126.101965079656 gnorm: 0.015159735200 xtb: 6.7.1pre (5071a88)
C           -3.13191779699450        5.14141156686959        0.18655826959541
C           -5.27919861395186        4.10196249959703        0.23822944347184
C           -0.23383739302428        4.94051699537689       -0.03686166924714
C           -4.51309583344133        5.23831419129731        0.25650861498100
C           -2.48238171734193        3.91164952498920        0.10168917618290
C           -4.66306011501586        2.84736155656107        0.15850812675619
C            5.43801186275007        4.55570389778694       -0.20588974627578
C            1.13229392098226        4.85334082674824       -0.09191940890181
C            0.54046325256456       -4.86803599746207        0.16428713789859
C            3.22988181698985        3.53592494635303       -0.12327379277497
C            5.25492731236856        2.15706947875859       -0.10891176052110
C           -3.57753107778751       -2.25622116272472       -0.08621704473858
C           -1.48858248811677       -3.56648182972419       -0.00880875761314
C           -1.04258673885917        3.80354326235138        0.02218768565780
C            0.99533851989477        2.44681831481078       -0.04122946312552
C            3.03724940082487        1.08257582434231       -0.04257789068266
C           -5.70172411780722       -3.46864846849286       -0.27462311283070
C            5.09201510913470       -0.26852032555686       -0.01082521936188
C           -3.66823015977320       -4.68882074057158       -0.28298348235502
C           -3.24584473680598        2.72121546625140        0.09769565463950
C            4.95739796722974       -2.69609492723573        0.09139359080363
C           -1.21276296040743        1.34274679838145        0.01703476287299
C            0.83399783132121       -0.00971611532402       -0.00054028040533
C            2.88750974263146       -1.35820378532970        0.03867312239367
C           -5.37481446331097        1.65885903117218        0.12504806801586
C            2.77784707936186       -3.81360571930973        0.13357295509484
C           -3.41208940048732        0.24613962671475        0.02313548874257
C            4.84311197602751       -5.09888577073245        0.19285989168598
C           -1.38667347876224       -1.10823792354630       -0.00817727655130
C            0.69159256493674       -2.46262106751781        0.05324084072452
C            4.05337719655451        4.66139525773533       -0.18313064785123
C           -4.82772691037836        0.43752059717282        0.04500251500989
C            3.45657192439548       -5.03292900200795        0.18507755752435
C            6.03924175624647        3.32562000295480       -0.16698313596204
C           -2.80270846488115       -1.03553736559634       -0.01656557792351
C           -0.72923464631909       -2.38032494532087        0.00852019104764
C            1.33540337787438       -3.72050885961192        0.11494357608113
C            1.78598761797263        3.62106446906549       -0.08648125072172
C            3.83246958511638        2.25949576059447       -0.09117181203946
C           -4.98550816764576       -2.29095183985420       -0.14194339771112
C            5.85311490766506        0.89896698598346       -0.06591638446871
C           -2.92415815423173       -3.51128790347184       -0.12503363334149
C           -0.82230219752371       -4.79231504070165        0.10176659001248
C           -0.42338975819052        2.53535469923823        0.00161077788063
C            1.61759210044210        1.16768932926293       -0.02950284000887
C            3.66208474627885       -0.18008518115315       -0.00520544985511
C           -5.03902321971862       -4.67572251811707       -0.36171419823405
C            5.70477279545128       -1.52075077948681        0.03869707884146
C           -2.63261150942867        1.43504590367772        0.04436734973139
C            5.59157349319854       -3.95213888436855        0.14601513608809
C           -0.59636667307391        0.07608779938197        0.00238130316512
C            1.47001760677169       -1.27128314876648        0.03030353810549
C            3.53334616243328       -2.62250554567624        0.08747274273921
H           -6.35604235317763        4.14977673746517        0.28400711271399
H            0.99049616797350       -5.84316703930933        0.24957790052625
H           -6.77948123995048       -3.42546090669659       -0.31624489513749
H           -3.17040624084696       -5.63967324608966       -0.36045583902856
H            5.32766478362539       -6.06360099637549        0.23449437796985
H            2.91474284832602       -5.96329859990843        0.21854295050887
H           -1.37705183738858       -5.71376720268141        0.15356300603679
H           -5.59264086208107       -5.59400581555645       -0.48563415831066
H           -2.56632475406249        6.05791783898057        0.20530162826593
H           -0.67495903804015        5.92348065180928       -0.04449012828501
H           -4.97947997367913        6.20996136752638        0.32330606880296
H            6.03807037557619        5.45304146157059       -0.25282458213309
H            1.69624210669633        5.77078861244763       -0.13485118897337
H            3.62978888612844        5.65145802231759       -0.21415018789853
H            7.11534601309772        3.23148249803543       -0.18074904076151
H            6.93107784243313        0.82345350094221       -0.07438788527978
H            6.78373914814931       -1.57906350030804        0.03665212667138
H            6.67098860775365       -3.99163740466102        0.14967699871901
S           -5.99903831467293       -0.87864574527668       -0.03581121664900
72
 energy: -126.102244100253 gnorm: 0.006589591294 xtb: 6.7.1pre (5071a88)
C           -3.12631240319712        5.14006598101638        0.18783671517144
C           -5.27667579043635        4.10190523997650        0.23917977270005
C           -0.23349160213624        4.94059870377222       -0.03703863571942
C           -4.50722478347855        5.23792620293991        0.25747726230314
C           -2.47718188086854        3.91018612056298        0.10267905632036
C           -4.66037303910233        2.84894537778553        0.15938465132294
C            5.42834998925481        4.55808823938636       -0.20612633581531
C            1.13164231942058        4.85271366862152       -0.09293519333867
C            0.54077410471246       -4.86840284776131        0.16741350979722
C            3.22467717514880        3.53450013916683       -0.12372621149238
C            5.24972868825858        2.15765723202152       -0.10890675840544
C           -3.57238093874187       -2.25450638733284       -0.08697111831396
C           -1.48571538720826       -3.56667835826058       -0.00898328015743
C           -1.03932620952739        3.80200602972537        0.02255482027483
C            0.99460305939042        2.44474570597869       -0.04145958999721
C            3.03493925238237        1.08135306152297       -0.04268232809315
C           -5.69674770938835       -3.46500335184469       -0.27426629263609
C            5.08985692229792       -0.26840720638384       -0.01074783451601
C           -3.66413385198412       -4.68690864709793       -0.28600190129827
C           -3.24008674584380        2.72045313204969        0.09845515135976
C            4.95427196953480       -2.69615913421165        0.09126620489425
C           -1.21066853948453        1.34125084754338        0.01687964203027
C            0.83478837322690       -0.01060847420596       -0.00111765550994
C            2.88612776305326       -1.35823769783428        0.03854054479470
C           -5.35737028242089        1.65629403285767        0.12477054144736
C            2.77528157012803       -3.81322846946241        0.13400251828727
C           -3.40604397082141        0.24414828755479        0.02238270420450
C            4.83686604913027       -5.10025047460015        0.19275415663388
C           -1.38161422036213       -1.10914456974717       -0.00941237372668
C            0.69267738644931       -2.46282193334213        0.05299417946401
C            4.04383923176695        4.66281545916237       -0.18352141654841
C           -4.82634933091922        0.43146344362775        0.04470453597004
C            3.45046976772476       -5.03440148268305        0.18533216049947
C            6.03118349523276        3.32784685118991       -0.16708941614276
C           -2.79645322367493       -1.03591812188101       -0.01762198414740
C           -0.72628651578832       -2.38118450968536        0.00772095081997
C            1.33467405599175       -3.72031131588312        0.11592816876476
C            1.78286352003408        3.61911403978594       -0.08706152604087
C            3.82808481990827        2.25907430829915       -0.09131460955060
C           -4.97952208423632       -2.28784654021436       -0.14176342392739
C            5.84939910441619        0.89993494636379       -0.06584503518292
C           -2.92003994136369       -3.51030127650562       -0.12623482556466
C           -0.82148510956284       -4.79338665879676        0.10418632939898
C           -0.42243806373197        2.53353661844946        0.00169142608631
C            1.61682328175041        1.16619963782566       -0.02974780423874
C            3.66013975053681       -0.18043398329485       -0.00522608493409
C           -5.03518773505919       -4.67306624372236       -0.36408662045019
C            5.70212306224643       -1.52079559556470        0.03873286567872
C           -2.62988029529958        1.43366885100306        0.04451293759603
C            5.58630095985764       -3.95315701165868        0.14584608550402
C           -0.59423702860127        0.07520708042102        0.00164410838464
C            1.47012576289095       -1.27145140155516        0.02982232902212
C            3.53087713510705       -2.62273854864979        0.08744631442198
H           -6.35324703867043        4.14939667828577        0.28437125031181
H            0.99198439530898       -5.84241033161475        0.25522758356788
H           -6.77421783082666       -3.41660025452330       -0.31341020057966
H           -3.16585242530892       -5.63713460674257       -0.36548181830027
H            5.32111576578427       -6.06494925358819        0.23425174223458
H            2.90625000537462       -5.96341847843364        0.21864069498147
H           -1.37666759907708       -5.71402292542855        0.15852643924321
H           -5.58911479072640       -5.59057906688116       -0.48865626640431
H           -2.55948814803647        6.05560810796945        0.20658475800787
H           -0.67600292666400        5.92255379638549       -0.04466754453709
H           -4.97155163902180        6.21053211881864        0.32347625047355
H            6.02732672626626        5.45584970503917       -0.25301329975890
H            1.69683799087217        5.76886625475603       -0.13673636720385
H            3.61696837168525        5.65150275824246       -0.21443959359221
H            7.10699922494073        3.23461558535589       -0.18083661849003
H            6.92726146684553        0.82620779833742       -0.07445475474229
H            6.78088851089822       -1.57938073470946        0.03687526290307
H            6.66540453757490       -3.99315176405845        0.14945154453806
S           -5.99659348383250       -0.87783438364087       -0.03614345005793
72
 energy: -126.102291960983 gnorm: 0.002346071802 xtb: 6.7.1pre (5071a88)
C           -3.12459938603076        5.14071445815863        0.18956323122597
C           -5.27584913751839        4.10267346816833        0.24039729560676
C           -0.23336843109337        4.94149714771306       -0.03771237268982
C           -4.50502041164234        5.23885532886724        0.25893564768358
C           -2.47537112655138        3.91015091949684        0.10370665401159
C           -4.66091584956091        2.84963413187598        0.16050593003743
C            5.42518191303147        4.56012206091080       -0.20663094632770
C            1.13131438794507        4.85332124150411       -0.09428648234969
C            0.54038701026594       -4.86966655359573        0.17172818246006
C            3.22302135442346        3.53413743900023       -0.12447443760443
C            5.24881914383247        2.15844566678732       -0.10910629939306
C           -3.57118542191069       -2.25437797797399       -0.08793700954886
C           -1.48502140352902       -3.56745014536716       -0.00891506961036
C           -1.03810162527940        3.80185466311167        0.02278482266849
C            0.99448599902066        2.44407744752456       -0.04194570304403
C            3.03480214998943        1.08075750626976       -0.04304012397053
C           -5.69549316278600       -3.46459109374479       -0.27455834597466
C            5.09019008558347       -0.26839624591870       -0.01074456067609
C           -3.66310614401638       -4.68713658409607       -0.29022236554506
C           -3.23834533520210        2.72104183762872        0.09927415903727
C            4.95418297048768       -2.69681116419507        0.09126635840989
C           -1.21045795416305        1.34070153307766        0.01668589443860
C            0.83522903265699       -0.01111792219941       -0.00177937377287
C            2.88633485302198       -1.35861733641311        0.03845568234154
C           -5.35464951759884        1.65607345484268        0.12528471190946
C            2.77495477794378       -3.81385418127074        0.13472430364831
C           -3.40490313514351        0.24383139795197        0.02222650432186
C            4.83577702228529       -5.10188325014478        0.19266044270721
C           -1.38003377398494       -1.10971892888419       -0.01035126111280
C            0.69322252056928       -2.46366449695652        0.05299096401193
C            4.04064392095947        4.66390317392656       -0.18429263157129
C           -4.82836148007868        0.42979487627804        0.04485683240901
C            3.44929842162716       -5.03588367297792        0.18562766751405
C            6.02884867042383        3.32986610647146       -0.16734920019399
C           -2.79473594658086       -1.03588316501579       -0.01820391416754
C           -0.72544383709327       -2.38210924508479        0.00719167813312
C            1.33445749658981       -3.72140808000346        0.11738280219008
C            1.78163293594631        3.61881149208300       -0.08792598023480
C            3.82704347182352        2.25908767295880       -0.09172732599222
C           -4.97819086404295       -2.28714847184077       -0.14207423437654
C            5.84921463556693        0.90068103258479       -0.06583869007879
C           -2.91906653288720       -3.51066326905031       -0.12804534802492
C           -0.82179716328087       -4.79474365660949        0.10782379285381
C           -0.42229560390056        2.53289508193217        0.00162047871328
C            1.61705654220154        1.16563281267615       -0.03024921778897
C            3.66025852315621       -0.18080195465907       -0.00536982882681
C           -5.03442632775520       -4.67296046260129       -0.36713559193426
C            5.70227993082644       -1.52117183083742        0.03876210647540
C           -2.62974330106625        1.43354533342937        0.04468294146967
C            5.58543455555118       -3.95448714515500        0.14574690980376
C           -0.59363285982758        0.07483592126837        0.00093166076367
C            1.47048782740054       -1.27201129532640        0.02940875064856
C            3.53063025949468       -2.62342393273233        0.08763810722168
H           -6.35249282990557        4.15029580691720        0.28541733313432
H            0.99147478915124       -5.84334275017950        0.26275092884615
H           -6.77298813622829       -3.41348865902347       -0.31211375162326
H           -3.16402775850941       -5.63672433435490       -0.37277722777417
H            5.31976283410045       -6.06679612726894        0.23385567375136
H            2.90409466031619       -5.96432801375303        0.21860751340114
H           -1.37741193261727       -5.71492485324938        0.16506084613886
H           -5.58846100518027       -5.59018737536709       -0.49323620881675
H           -2.55719309817759        6.05587923915456        0.20917472607790
H           -0.67650829819516        5.92299751566380       -0.04569997100281
H           -4.96825251220954        6.21213486885490        0.32504390368536
H            6.02318236265616        5.45855388529324       -0.25349141993802
H            1.69660098131164        5.76913718706179       -0.13896499503655
H            3.61207977760884        5.65179445314891       -0.21537359120706
H            7.10470127236303        3.23765582389239       -0.18096723015904
H            6.92720497761433        0.82805889958845       -0.07439878921311
H            6.78112742897583       -1.57999297800224        0.03697648806040
H            6.66452526512197       -3.99503914398515        0.14917790266916
S           -5.99593045829666       -0.87664458823540       -0.03617332889984
72
 energy: -126.102307908315 gnorm: 0.000841996817 xtb: 6.7.1pre (5071a88)
C           -3.12438350581523        5.14126708099587        0.19175406281648
C           -5.27562133834480        4.10304316903660        0.24198492126975
C           -0.23346092664464        4.94186506858011       -0.03876555261321
C           -4.50436935314257        5.23939207445186        0.26111012008858
C           -2.47507932822870        3.91013519547602        0.10476263523060
C           -4.66178756251986        2.84975530035532        0.16169477671812
C            5.42460597900774        4.56102963333751       -0.20730243205777
C            1.13107461205900        4.85364982644834       -0.09598449932199
C            0.53991014524206       -4.87018433342490        0.17715898673469
C            3.22276807385078        3.53401978031547       -0.12547867477442
C            5.24915115901207        2.15887388004254       -0.10942431161929
C           -3.57125465550132       -2.25452900720624       -0.08888453700642
C           -1.48506228583822       -3.56778609368021       -0.00860342229242
C           -1.03792595605281        3.80178472979157        0.02284588952182
C            0.99451353386142        2.44389415756630       -0.04264087639166
C            3.03516424303594        1.08051915118601       -0.04358639936706
C           -5.69538268491681       -3.46493237318887       -0.27559419986270
C            5.09088638002569       -0.26842142945231       -0.01080738730590