72
 energy: -126.102784809554 gnorm: 0.000225256188 xtb: 6.7.1pre (5071a88)
C           -3.10779749273301        5.10064910571161        0.54717461535731
C           -5.26183913105463        4.05822597365376        0.52133224225161
C           -0.24012575732787        4.94112083527562       -0.00326742397217
C           -4.48480686768570        5.18078648626159        0.68080974892283
C           -2.46783671202757        3.89313003288813        0.27245656117528
C           -4.65723786543947        2.82502412721594        0.26046500714305
C            5.41505531043639        4.54862959020955       -0.44187400172826
C            1.12050433426398        4.85476887554913       -0.14107995196002
C            0.51033260484593       -4.83469655229908        0.47406487409471
C            3.21524825748083        3.53136978694282       -0.25600288156269
C            5.24245315113865        2.15162709250871       -0.24979703229627
C           -3.55780784397766       -2.24256803100319       -0.27306420717775
C           -1.49571421380536       -3.55192434061462        0.07386070152064
C           -1.03715292369295        3.79858523558212        0.09783634344195
C            0.99313101773375        2.44611473100854       -0.08222712329601
C            3.03223252393816        1.07986557745310       -0.10472736649527
C           -5.64807549328401       -3.44806580097426       -0.68121758972235
C            5.08544992267568       -0.27241036496982       -0.05477426639777
C           -3.63814636285166       -4.68015809949877       -0.38527930087592
C           -3.23447300073518        2.71189057941535        0.16790045434022
C            4.94268154760201       -2.69656437262812        0.15563174473013
C           -1.20819540246476        1.34285273039973        0.00139434935859
C            0.83505315537592       -0.00766334131361       -0.02221817338031
C            2.88120625513348       -1.35551534048110        0.06581931430736
C           -5.35142279656894        1.64697133713953        0.04996848521618
C            2.75826484419846       -3.80293103915029        0.29053889423221
C           -3.39906741839354        0.25212871783281       -0.11576858419665
C            4.81501588050076       -5.09572956289682        0.36046355346200
C           -1.37815659387546       -1.10236378036639       -0.06446058756812
C            0.68536701382782       -2.45406592816742        0.12700148821900
C            4.03159689421029        4.65637330830810       -0.38323935559470
C           -4.82267508281288        0.44150946682572       -0.18409557429303
C            3.42843832373909       -5.02519692203656        0.37473462060710
C            6.02010171712964        3.32018108751976       -0.37000904589540
C           -2.78869843528667       -1.02507116619151       -0.15327269998565
C           -0.72986061275905       -2.37214847052360        0.03503126227530
C            1.31710798181500       -3.70669926937196        0.29327432442320
C            1.77551836725618        3.62148897607061       -0.16224165371411
C            3.82134231773579        2.25678089091166       -0.20291220253141
C           -4.94543405165202       -2.26718749036528       -0.50773715349179
C            5.84267117926707        0.89429382043865       -0.17107148011756
C           -2.91234963808033       -3.49937038055807       -0.18220234607626
C           -0.85087000057668       -4.76044425085009        0.36435218636508
C           -0.42076598171776        2.53368593298422        0.01179202600227
C            1.61588661323554        1.16782198254414       -0.07529207578602
C            3.65605972069487       -0.18143191060426       -0.03284389124957
C           -4.98939127194753       -4.66157392584686       -0.63518968651043
C            5.69311679685233       -1.52582426451252        0.03778842739649
C           -2.62630122821086        1.43419466420428        0.01391708309217
C            5.56875930621189       -3.95422349610154        0.25686469308280
C           -0.59183746020632        0.07926662595755       -0.03425811030348
C            1.46651451382535       -1.26767020382040        0.04950069153549
C            3.51920951519390       -2.61977471618730        0.17001896826176
H           -6.33736864522622        4.10561555049700        0.59182887755001
H            0.95287276117910       -5.79031876642391        0.70188208722297
H           -6.71081962084014       -3.39748221583410       -0.86307487671271
H           -3.13253742376048       -5.63066862054954       -0.37313061661933
H            5.29655540431454       -6.06037574856827        0.42950095314376
H            2.87720034570985       -5.94845414812321        0.44367590317855
H           -1.42480175406511       -5.65862406782711        0.52130898114757
H           -5.53181387544015       -5.58095747096152       -0.79361312935069
H           -2.53169342170273        6.00187589121010        0.67825112525086
H           -0.69122183515083        5.91971554991438        0.00845893154409
H           -4.94438045880295        6.13315979020118        0.90116510363880
H            6.01178644675812        5.44385474054762       -0.54043738055703
H            1.68075102262695        5.77162813891894       -0.22132919513027
H            3.60119535321243        5.64237188105169       -0.44170509719571
H            7.09561726636133        3.22850222369018       -0.40613673874600
H            6.92051261919112        0.82146164716603       -0.19775279483018
H            6.77171432333042       -1.58977386833517        0.02059818452751
H            6.64769150335610       -4.00121266005920        0.24729034153627
S           -5.94097643820096       -0.83638239599571       -0.62483255423563
