      -----------------------------------------------------------      
     |                   =====================                   |     
     |                           x T B                           |     
     |                   =====================                   |     
     |                         S. Grimme                         |     
     |          Mulliken Center for Theoretical Chemistry        |     
     |                    University of Bonn                     |     
      -----------------------------------------------------------      

   * xtb version 6.7.1pre (5071a88) compiled by 'Marcel@Raven' on 2024-07-23

   xtb is free software: you can redistribute it and/or modify it under
   the terms of the GNU Lesser General Public License as published by
   the Free Software Foundation, either version 3 of the License, or
   (at your option) any later version.
   
   xtb is distributed in the hope that it will be useful,
   but WITHOUT ANY WARRANTY; without even the implied warranty of
   MERCHANTABILITY or FITNESS FOR A PARTICULAR PURPOSE.  See the
   GNU Lesser General Public License for more details.
   
   Cite this work as:
   * C. Bannwarth, E. Caldeweyher, S. Ehlert, A. Hansen, P. Pracht,
     J. Seibert, S. Spicher, S. Grimme, WIREs Comput. Mol. Sci., 2020, 11,
     e01493. DOI: 10.1002/wcms.1493
   
   for GFN2-xTB:
   * C. Bannwarth, S. Ehlert and S. Grimme., J. Chem. Theory Comput., 2019,
     15, 1652-1671. DOI: 10.1021/acs.jctc.8b01176
   for GFN1-xTB:
   * S. Grimme, C. Bannwarth, P. Shushkov, J. Chem. Theory Comput., 2017,
     13, 1989-2009. DOI: 10.1021/acs.jctc.7b00118
   for GFN0-xTB:
   * P. Pracht, E. Caldeweyher, S. Ehlert, S. Grimme, ChemRxiv, 2019, preprint.
     DOI: 10.26434/chemrxiv.8326202.v1
   for GFN-FF:
   * S. Spicher and S. Grimme, Angew. Chem. Int. Ed., 2020, 59, 15665-15673.
     DOI: 10.1002/anie.202004239
   
   for ALPB and GBSA implicit solvation:
   * S. Ehlert, M. Stahn, S. Spicher, S. Grimme, J. Chem. Theory Comput.,
     2021, 17, 4250-4261. DOI: 10.1021/acs.jctc.1c00471
   
   for ddCOSMO and CPCM-X implicit solvation:
   * M. Stahn, S. Ehlert, S. Grimme, J. Phys. Chem. A,
     2023, XX, XXXX-XXXX. DOI: 10.1021/acs.jpca.3c04382
   
   for DFT-D4:
   * E. Caldeweyher, C. Bannwarth and S. Grimme, J. Chem. Phys., 2017,
     147, 034112. DOI: 10.1063/1.4993215
   * E. Caldeweyher, S. Ehlert, A. Hansen, H. Neugebauer, S. Spicher,
     C. Bannwarth and S. Grimme, J. Chem. Phys., 2019, 150, 154122.
     DOI: 10.1063/1.5090222
   * E. Caldeweyher, J.-M. Mewes, S. Ehlert and S. Grimme, Phys. Chem. Chem. Phys.
     2020, 22, 8499-8512. DOI: 10.1039/D0CP00502A
   
   for sTDA-xTB:
   * S. Grimme and C. Bannwarth, J. Chem. Phys., 2016, 145, 054103.
     DOI: 10.1063/1.4959605
   
   in the mass-spec context:
   * V. Asgeirsson, C. Bauer and S. Grimme, Chem. Sci., 2017, 8, 4879.
     DOI: 10.1039/c7sc00601b
   * J. Koopman and S. Grimme, ACS Omega 2019, 4, 12, 15120-15133.
     DOI: 10.1021/acsomega.9b02011
   
   for metadynamics refer to:
   * S. Grimme, J. Chem. Theory Comput., 2019, 155, 2847-2862
     DOI: 10.1021/acs.jctc.9b00143
   
   for SPH calculations refer to:
   * S. Spicher and S. Grimme, J. Chem. Theory Comput., 2021, 17, 1701-1714
     DOI: 10.1021/acs.jctc.0c01306
   
   for ONIOM refer to:
   * C. Plett, A. Katbashev, S. Ehlert, S. Grimme, M. Bursch,
     Phys. Chem. Chem. Phys., 2023, 25, 17860-17868. DOI: 10.1039/D3CP02178E
   
   for DIPRO refer to:
   * J. Kohn, N. Gildemeister, S. Grimme, D. Fazzi, A. Hansen,
     J. Chem. Phys., 2023, just accepted.
   
   for PTB refer to:
   * S. Grimme, M. Mueller, A. Hansen, J. Chem. Phys., 2023, 158, 124111.
     DOI: 10.1063/5.0137838
   
   with help from (in alphabetical order)
   P. Atkinson, C. Bannwarth, F. Bohle, G. Brandenburg, E. Caldeweyher
   M. Checinski, S. Dohm, S. Ehlert, S. Ehrlich, I. Gerasimov, C. Hölzer
   A. Katbashev, J. Kohn, J. Koopman, C. Lavigne, S. Lehtola, F. März, M. Müller,
   F. Musil, H. Neugebauer, J. Pisarek, C. Plett, P. Pracht, F. Pultar,
   J. Seibert, P. Shushkov, S. Spicher, M. Stahn, M. Steiner, T. Strunk,
   J. Stückrath, T. Rose, and J. Unsleber
   
 * started run on 2025/12/08 at 00:33:14.215     
   ID    Z sym.   atoms
    1    6 C      1-5, 7-38, 40-100
    2    8 O      6, 39, 124-127
    3    1 H      101-123, 128

           -------------------------------------------------
          |                Calculation Setup                |
           -------------------------------------------------

          program call               : xtb "C:\Users\LENOVO GAMING\Documents\GitHub\molecular-conductivity-sim\dataset\1.5nm-6Odoped-5percent.xyz" --opt --parallel 4
          coordinate file            : C:\Users\LENOVO GAMING\Documents\GitHub\molecular-conductivity-sim\dataset\1.5nm-6Odoped-5percent.xyz
          omp threads                :                     4


           -------------------------------------------------
          |                 G F N 2 - x T B                 |
           -------------------------------------------------

        Reference                      10.1021/acs.jctc.8b01176
      * Hamiltonian:
        H0-scaling (s, p, d)           1.850000    2.230000    2.230000
        zeta-weighting                 0.500000
      * Dispersion:
        s8                             2.700000
        a1                             0.520000
        a2                             5.000000
        s9                             5.000000
      * Repulsion:
        kExp                           1.500000    1.000000
        rExp                           1.000000
      * Coulomb:
        alpha                          2.000000
        third order                    shell-resolved
        anisotropic                    true
        a3                             3.000000
        a5                             4.000000
        cn-shift                       1.200000
        cn-exp                         4.000000
        max-rad                        5.000000


          ...................................................
          :                      SETUP                      :
          :.................................................:
          :  # basis functions                 440          :
          :  # atomic orbitals                 440          :
          :  # shells                          232          :
          :  # electrons                       452          :
          :  max. iterations                   250          :
          :  Hamiltonian                  GFN2-xTB          :
          :  restarted?                      false          :
          :  GBSA solvation                  false          :
          :  PC potential                    false          :
          :  electronic temp.          300.0000000     K    :
          :  accuracy                    1.0000000          :
          :  -> integral cutoff          0.2500000E+02      :
          :  -> integral neglect         0.1000000E-07      :
          :  -> SCF convergence          0.1000000E-05 Eh   :
          :  -> wf. convergence          0.1000000E-03 e    :
          :  Broyden damping             0.4000000          :
          :  net charge                          0          :
          :  unpaired electrons                  0          :
          ...................................................

 iter      E             dE          RMSdq      gap      omega  full diag
   1   -251.1344592 -0.251134E+03  0.496E+00    0.60       0.0  T
   2   -250.8001359  0.334323E+00  0.345E+00    0.76       1.0  T
   3   -249.4247016  0.137543E+01  0.275E+00    0.16       1.0  T
   4   -250.9307526 -0.150605E+01  0.134E+00    0.39       1.0  T
   5   -251.2707772 -0.340025E+00  0.774E-01    0.81       1.0  T
   6   -251.3267355 -0.559583E-01  0.478E-01    0.72       1.0  T
   7   -251.3532274 -0.264919E-01  0.269E-01    0.69       1.0  T
   8   -251.3584628 -0.523542E-02  0.106E-01    0.61       1.0  T
   9   -251.3582996  0.163137E-03  0.864E-02    0.65       1.0  T
  10   -251.3591285 -0.828866E-03  0.362E-02    0.62       1.0  T
  11   -251.3593203 -0.191795E-03  0.114E-02    0.63       1.0  T
  12   -251.3593323 -0.119863E-04  0.521E-03    0.63       1.7  T
  13   -251.3593333 -0.102015E-05  0.250E-03    0.63       3.5  T
  14   -251.3593341 -0.762286E-06  0.797E-04    0.63      11.1  T
  15   -251.3593341 -0.417303E-07  0.348E-04    0.63      25.4  T

   *** convergence criteria satisfied after 15 iterations ***

         #    Occupation            Energy/Eh            Energy/eV
      -------------------------------------------------------------
         1        2.0000           -0.7505869             -20.4245
       ...           ...                  ...                  ...
       220        2.0000           -0.3753940             -10.2150
       221        2.0000           -0.3687742             -10.0349
       222        2.0000           -0.3607998              -9.8179
       223        2.0000           -0.3591083              -9.7718
       224        2.0000           -0.3473745              -9.4525
       225        2.0000           -0.3388682              -9.2211
       226        2.0000           -0.3209588              -8.7337 (HOMO)
       227        0.0000           -0.2978462              -8.1048 (LUMO)
       228        0.0000           -0.2947989              -8.0219
       229                         -0.2872772              -7.8172
       230                         -0.2726143              -7.4182
       231                         -0.2690408              -7.3210
       ...                                ...                  ...
       440                          0.7581868              20.6313
      -------------------------------------------------------------
                  HL-Gap            0.0231126 Eh            0.6289 eV
             Fermi-level           -0.3094214 Eh           -8.4198 eV

 SCC (total)                   0 d,  0 h,  0 min,  1.102 sec
 SCC setup                      ...        0 min,  0.002 sec (  0.181%)
 Dispersion                     ...        0 min,  0.007 sec (  0.635%)
 classical contributions        ...        0 min,  0.001 sec (  0.091%)
 integral evaluation            ...        0 min,  0.041 sec (  3.720%)
 iterations                     ...        0 min,  0.871 sec ( 79.038%)
 molecular gradient             ...        0 min,  0.175 sec ( 15.880%)
 printout                       ...        0 min,  0.005 sec (  0.454%)

         :::::::::::::::::::::::::::::::::::::::::::::::::::::
         ::                     SUMMARY                     ::
         :::::::::::::::::::::::::::::::::::::::::::::::::::::
         :: total energy            -247.179915244815 Eh    ::
         :: gradient norm              0.059338587608 Eh/a0 ::
         :: HOMO-LUMO gap              0.628925588702 eV    ::
         ::.................................................::
         :: SCC energy              -251.366363877700 Eh    ::
         :: -> isotropic ES            0.071046874436 Eh    ::
         :: -> anisotropic ES          0.011166787117 Eh    ::
         :: -> anisotropic XC          0.070732466035 Eh    ::
         :: -> dispersion             -0.276815800209 Eh    ::
         :: repulsion energy           4.186448632885 Eh    ::
         :: add. restraining           0.000000000000 Eh    ::
         :: total charge              -0.000000000065 e     ::
         :::::::::::::::::::::::::::::::::::::::::::::::::::::

      ----------------------------------------------------------- 
     |                   =====================                   |
     |                        A N C O P T                        |
     |                   =====================                   |
     |               Approximate Normal Coordinate               |
     |                Rational Function Optimizer                |
      ----------------------------------------------------------- 
      ----------------------------------------------------------- 
     |                   =====================                   |
     |                        A N C O P T                        |
     |                   =====================                   |
     |               Approximate Normal Coordinate               |
     |                Rational Function Optimizer                |
      ----------------------------------------------------------- 

          ...................................................
          :                      SETUP                      :
          :.................................................:
          :   optimization level            normal          :
          :   max. optcycles                   384          :
          :   ANC micro-cycles                  20          :
          :   degrees of freedom               378          :
          :.................................................:
          :   RF solver                   davidson          :
          :   write xtbopt.log                true          :
          :   linear?                        false          :
          :   energy convergence         0.5000000E-05 Eh   :
          :   grad. convergence          0.1000000E-02 Eh/α :
          :   maxmium RF displ.          1.0000000          :
          :   Hlow (freq-cutoff)         0.1000000E-01      :
          :   Hmax (freq-cutoff)         5.0000000          :
          :   S6 in model hess.         20.0000000          :
          ...................................................

generating ANC from exact Hessian ...
Using Lindh-Hessian (1995)
 Shifting diagonal of input Hessian by   9.863903650712455E-003
 Lowest  eigenvalues of input Hessian
    0.000000    0.000000    0.000000    0.000000    0.000000    0.000000
    0.010000    0.010177    0.010229    0.010449    0.010583    0.011381
    0.011450    0.011703    0.011939    0.012619    0.012999    0.013760
 Highest eigenvalues
    2.123809    2.129460    2.149674    2.159334    2.177614    2.204796
 

........................................................................
.............................. CYCLE    1 ..............................
........................................................................

 iter      E             dE          RMSdq      gap      omega  full diag
   1   -251.3593341 -0.251359E+03  0.160E-04    0.63       0.0  T
   2   -251.3593341  0.101400E-07  0.235E-04    0.63      37.6  T
   3   -251.3593341 -0.862329E-08  0.150E-04    0.63      59.0  T
     SCC iter.                  ...        0 min,  0.181 sec
     gradient                   ...        0 min,  0.180 sec
 * total energy  :  -247.1799153 Eh     change       -0.1084848E-07 Eh
   gradient norm :     0.0593393 Eh/α   predicted     0.0000000E+00 (-100.00%)
   displ. norm   :     0.4709438 α      lambda       -0.1495634E-01
   maximum displ.:     0.2162220 α      in ANC's #41, #43, #44, ...

........................................................................
.............................. CYCLE    2 ..............................
........................................................................

 iter      E             dE          RMSdq      gap      omega  full diag
   1   -251.4846974 -0.251485E+03  0.126E-01    0.62       0.0  T
   2   -251.4824092  0.228818E-02  0.130E-01    0.66       1.0  T
   3   -251.4819687  0.440504E-03  0.125E-01    0.60       1.0  T
   4   -251.4847188 -0.275007E-02  0.580E-02    0.65       1.0  T
   5   -251.4851660 -0.447191E-03  0.995E-03    0.63       1.0  T
   6   -251.4851800 -0.140613E-04  0.470E-03    0.63       1.9  T
   7   -251.4851831 -0.313128E-05  0.146E-03    0.63       6.1  T
   8   -251.4851833 -0.109296E-06  0.850E-04    0.63      10.4  T
   9   -251.4851833 -0.627868E-07  0.329E-04    0.63      26.8  T
     SCC iter.                  ...        0 min,  0.504 sec
     gradient                   ...        0 min,  0.178 sec
 * total energy  :  -247.1911990 Eh     change       -0.1128370E-01 Eh
   gradient norm :     0.0299904 Eh/α   predicted    -0.9195079E-02 ( -18.51%)
   displ. norm   :     0.4771418 α      lambda       -0.7289739E-02
   maximum displ.:     0.2103344 α      in ANC's #41, #43, #44, ...

........................................................................
.............................. CYCLE    3 ..............................
........................................................................

 iter      E             dE          RMSdq      gap      omega  full diag
   1   -251.5878605 -0.251588E+03  0.117E-01    0.62       0.0  T
   2   -251.5863219  0.153857E-02  0.113E-01    0.65       1.0  T
   3   -251.5849583  0.136360E-02  0.123E-01    0.60       1.0  T
   4   -251.5878128 -0.285443E-02  0.563E-02    0.64       1.0  T
   5   -251.5882479 -0.435134E-03  0.952E-03    0.63       1.0  T
   6   -251.5882592 -0.112952E-04  0.476E-03    0.63       1.9  T
   7   -251.5882625 -0.332730E-05  0.133E-03    0.63       6.6  T
   8   -251.5882626 -0.111103E-06  0.733E-04    0.63      12.1  T
   9   -251.5882627 -0.413928E-07  0.310E-04    0.63      28.6  T
     SCC iter.                  ...        0 min,  0.510 sec
     gradient                   ...        0 min,  0.165 sec
 * total energy  :  -247.1957273 Eh     change       -0.4528365E-02 Eh
   gradient norm :     0.0096522 Eh/α   predicted    -0.4474912E-02 (  -1.18%)
   displ. norm   :     0.2061619 α      lambda       -0.9247895E-03
   maximum displ.:     0.0999245 α      in ANC's #41, #43, #44, ...

........................................................................
.............................. CYCLE    4 ..............................
........................................................................

 iter      E             dE          RMSdq      gap      omega  full diag
   1   -251.6199988 -0.251620E+03  0.454E-02    0.63       0.0  T
   2   -251.6198197  0.179111E-03  0.410E-02    0.63       1.0  T
   3   -251.6194980  0.321673E-03  0.502E-02    0.61       1.0  T
   4   -251.6199871 -0.489100E-03  0.208E-02    0.63       1.0  T
   5   -251.6200519 -0.648017E-04  0.354E-03    0.63       2.5  T
   6   -251.6200532 -0.134183E-05  0.172E-03    0.63       5.1  T
   7   -251.6200537 -0.478405E-06  0.393E-04    0.63      22.5  T
   8   -251.6200537 -0.318224E-08  0.259E-04    0.63      34.1  T
     SCC iter.                  ...        0 min,  0.491 sec
     gradient                   ...        0 min,  0.173 sec
 * total energy  :  -247.1962483 Eh     change       -0.5209821E-03 Eh
   gradient norm :     0.0041109 Eh/α   predicted    -0.4820549E-03 (  -7.47%)
   displ. norm   :     0.0860651 α      lambda       -0.1262077E-03
   maximum displ.:     0.0293710 α      in ANC's #15, #18, #21, ...

........................................................................
.............................. CYCLE    5 ..............................
........................................................................

 iter      E             dE          RMSdq      gap      omega  full diag
   1   -251.6234920 -0.251623E+03  0.192E-02    0.62       0.0  T
   2   -251.6234905  0.146991E-05  0.119E-02    0.62       1.0  T
   3   -251.6233894  0.101151E-03  0.208E-02    0.62       1.0  T
   4   -251.6234854 -0.960036E-04  0.610E-03    0.63       1.4  T
   5   -251.6234934 -0.796581E-05  0.529E-04    0.62      16.7  T
   6   -251.6234934 -0.295632E-07  0.254E-04    0.62      34.9  T
   7   -251.6234934 -0.302597E-08  0.128E-04    0.62      69.3  T
     SCC iter.                  ...        0 min,  0.436 sec
     gradient                   ...        0 min,  0.189 sec
 * total energy  :  -247.1963140 Eh     change       -0.6567821E-04 Eh
   gradient norm :     0.0023191 Eh/α   predicted    -0.6357656E-04 (  -3.20%)
   displ. norm   :     0.0483016 α      lambda       -0.3973128E-04
   maximum displ.:     0.0183689 α      in ANC's #11, #12, #15, ...

........................................................................
.............................. CYCLE    6 ..............................
........................................................................

 iter      E             dE          RMSdq      gap      omega  full diag
   1   -251.6219203 -0.251622E+03  0.107E-02    0.62       0.0  T
   2   -251.6219101  0.101728E-04  0.948E-03    0.63       1.0  T
   3   -251.6218861  0.240191E-04  0.128E-02    0.62       1.0  T
   4   -251.6219204 -0.343619E-04  0.285E-03    0.62       3.1  T
   5   -251.6219219 -0.144537E-05  0.627E-04    0.62      14.1  T
   6   -251.6219219 -0.519163E-07  0.272E-04    0.62      32.5  T
   7   -251.6219219 -0.102810E-07  0.100E-04    0.62      88.3  T
     SCC iter.                  ...        0 min,  0.412 sec
     gradient                   ...        0 min,  0.177 sec
 * total energy  :  -247.1963394 Eh     change       -0.2546374E-04 Eh
   gradient norm :     0.0010751 Eh/α   predicted    -0.2000068E-04 ( -21.45%)
   displ. norm   :     0.0669931 α      lambda       -0.1571808E-04
   maximum displ.:     0.0320597 α      in ANC's #11, #12, #7, ...

........................................................................
.............................. CYCLE    7 ..............................
........................................................................

 iter      E             dE          RMSdq      gap      omega  full diag
   1   -251.6190852 -0.251619E+03  0.127E-02    0.62       0.0  T
   2   -251.6190590  0.262241E-04  0.135E-02    0.63       1.0  T
   3   -251.6190569  0.208410E-05  0.125E-02    0.62       1.0  T
   4   -251.6190870 -0.300872E-04  0.284E-03    0.62       3.1  T
   5   -251.6190883 -0.128141E-05  0.584E-04    0.62      15.1  T
   6   -251.6190883 -0.394636E-07  0.283E-04    0.62      31.2  T
   7   -251.6190883 -0.102490E-07  0.100E-04    0.62      88.1  T
     SCC iter.                  ...        0 min,  0.406 sec
     gradient                   ...        0 min,  0.168 sec
 * total energy  :  -247.1963527 Eh     change       -0.1320589E-04 Eh
   gradient norm :     0.0010997 Eh/α   predicted    -0.7878040E-05 ( -40.34%)
   displ. norm   :     0.0434310 α      lambda       -0.6602198E-05
   maximum displ.:     0.0236811 α      in ANC's #11, #7, #12, ...

........................................................................
.............................. CYCLE    8 ..............................
........................................................................

 iter      E             dE          RMSdq      gap      omega  full diag
   1   -251.6195780 -0.251620E+03  0.817E-03    0.62       0.0  T
   2   -251.6195700  0.803241E-05  0.784E-03    0.62       1.1  T
   3   -251.6195612  0.875746E-05  0.907E-03    0.62       1.0  T
   4   -251.6195786 -0.173685E-04  0.137E-03    0.62       6.4  T
   5   -251.6195788 -0.251924E-06  0.203E-04    0.62      43.4  T
   6   -251.6195788 -0.393158E-08  0.109E-04    0.62      81.3  T
     SCC iter.                  ...        0 min,  0.349 sec
     gradient                   ...        0 min,  0.165 sec
 * total energy  :  -247.1963604 Eh     change       -0.7705966E-05 Eh
   gradient norm :     0.0007524 Eh/α   predicted    -0.3303969E-05 ( -57.12%)
   displ. norm   :     0.0824933 α      lambda       -0.8439366E-05
   maximum displ.:     0.0443614 α      in ANC's #11, #7, #5, ...

........................................................................
.............................. CYCLE    9 ..............................
........................................................................

 iter      E             dE          RMSdq      gap      omega  full diag
   1   -251.6201659 -0.251620E+03  0.146E-02    0.62       0.0  T
   2   -251.6201604  0.548942E-05  0.101E-02    0.63       1.0  T
   3   -251.6200502  0.110139E-03  0.221E-02    0.62       1.0  T
   4   -251.6201655 -0.115322E-03  0.261E-03    0.63       3.4  T
   5   -251.6201666 -0.109457E-05  0.332E-04    0.62      26.6  T
   6   -251.6201667 -0.139101E-07  0.158E-04    0.62      56.1  T
   7   -251.6201667 -0.194302E-08  0.768E-05    0.62     115.0  T
     SCC iter.                  ...        0 min,  0.410 sec
     gradient                   ...        0 min,  0.180 sec
 * total energy  :  -247.1963686 Eh     change       -0.8232723E-05 Eh
   gradient norm :     0.0005762 Eh/α   predicted    -0.4233831E-05 ( -48.57%)
   displ. norm   :     0.0504017 α      lambda       -0.3209076E-05
   maximum displ.:     0.0244509 α      in ANC's #11, #7, #5, ...

........................................................................
.............................. CYCLE   10 ..............................
........................................................................

 iter      E             dE          RMSdq      gap      omega  full diag
   1   -251.6204426 -0.251620E+03  0.844E-03    0.63       0.0  T
   2   -251.6204424  0.185631E-06  0.502E-03    0.63       1.8  T
   3   -251.6204284  0.140127E-04  0.786E-03    0.63       1.1  T
   4   -251.6204420 -0.135876E-04  0.180E-03    0.63       4.9  T
   5   -251.6204427 -0.706209E-06  0.192E-04    0.63      46.1  T
   6   -251.6204427 -0.723807E-08  0.702E-05    0.63     125.9  T
     SCC iter.                  ...        0 min,  0.350 sec
     gradient                   ...        0 min,  0.166 sec
 * total energy  :  -247.1963723 Eh     change       -0.3681071E-05 Eh
   gradient norm :     0.0004410 Eh/α   predicted    -0.1609483E-05 ( -56.28%)
   displ. norm   :     0.0666298 α      lambda       -0.3801551E-05
   maximum displ.:     0.0311802 α      in ANC's #7, #11, #5, ...

   *** GEOMETRY OPTIMIZATION CONVERGED AFTER 10 ITERATIONS ***

------------------------------------------------------------------------
 total energy gain   :        -0.0164570 Eh      -10.3269 kcal/mol
 total RMSD          :         0.1087238 a0        0.0575 Å
 total power (kW/mol):        -4.3207918 (step)   -6.6865 (real)
------------------------------------------------------------------------

 ANCopt (total)                0 d,  0 h,  0 min,  6.462 sec
 optimizer setup                ...        0 min,  0.002 sec (  0.031%)
 model hessian                  ...        0 min,  0.110 sec (  1.702%)
 ANC generation                 ...        0 min,  0.034 sec (  0.526%)
 coordinate transformation      ...        0 min,  0.000 sec (  0.000%)
 single point calculation       ...        0 min,  6.291 sec ( 97.354%)
 optimization log               ...        0 min,  0.015 sec (  0.232%)
 hessian update                 ...        0 min,  0.006 sec (  0.093%)
 rational function              ...        0 min,  0.004 sec (  0.062%)

================
 final structure:
================
128
 xtb: 6.7.1pre (5071a88)
C           -2.46979093585084       -7.38202338266417        0.10596962816953
C            1.74302506790747       -7.27954155084706       -0.51986869210364
C           -0.38078414684518       -6.08210732119633        0.04169955103074
C            6.05597098765849       -7.03945412264825       -0.37954201224177
C            3.78853166097483       -5.98029905632285       -0.43097359759568
O            1.66478506336072       -4.91959680384607       -0.57128516847172
C           -1.12002016066395       -7.31455147556458        0.05600924742726
C           -3.27370278577873       -6.20455830780048        0.11966581661927
C            3.09324996318875       -7.21535027986880       -0.64873787641500
C            0.97357215374410       -6.10368887217683       -0.32088753403274
C           -1.17818510765558       -4.89713344794095        0.31174703282674
C            8.01080281437932       -5.64274347272285       -0.22823441104527
C            5.80409530184594       -4.64159430854840       -0.18660288402227
C            3.58712690606179       -3.55744770517562        0.00623861983605
C            5.66927099047556       -2.23596344084523        0.04643905658257
C            7.74766645889596       -0.97754888043425        0.01021102925444
C            7.42258056553735       -6.89810704027462       -0.32973838460143
C            5.21676786889766       -5.91690908503732       -0.32342532063810
C            3.01039227223867       -4.83451553717107       -0.31409079680987
C            0.77071101518390       -3.49310241796836        0.93596233616889
C            7.20865340567723       -4.51964793238903       -0.15839269037014
C            4.99373096424942       -3.47997369785858       -0.04161835494120
C            2.87042802313397       -2.34225415894935        0.29719019480446
C            7.08653101120701       -2.17822132553632        0.00215021784269
C            4.94519392347753       -1.03633169236355        0.10890523191990
C            7.03783561818245        0.24440168534703        0.04579069038344
C           -6.67018980547178       -7.41320104823405       -0.09695274471494
C           -4.66014478015872       -6.22706146374338        0.05513719606422
C           -6.80166850131373       -5.03033645307309       -0.03285279144753
C           -2.57398861657602       -4.95482607519684        0.23051159572705
C           -4.73137619756715       -3.78783082986347        0.13851418452210
C           -6.92206475216819       -2.67892758591087       -0.01718638806617
C           -0.57191416714346       -3.62335399606589        0.57788743023991
C           -2.71191316824218       -2.48854104441415        0.26127934109327
C           -4.87781911961056       -1.36111525562893        0.09931294293565
C           -7.05761285977915       -0.25109277204349       -0.05880727419675
C           -7.44335547060050       -6.30642786582978       -0.10828329224348
C           -5.41908839959386       -5.02821557712211        0.05843264548293
O           -7.54802379443531       -3.90677397912842       -0.05326779432082
C           -3.34287776241512       -3.75077936801933        0.23912050429665
C           -5.50957540843064       -2.61325185092632        0.07965906393050
C           -7.67398879675784       -1.52844061551597       -0.07770924227775
C            1.46904359176473       -2.33232777350646        0.58057152146737
C           -7.13901288207484        2.17711820559635       -0.13134169278556
C            1.21504672674660        7.41997815900001       -0.06836786876091
C           -0.66680628326436       -1.18181528631619        0.38719799383135
C            7.62926989509168        3.94972083786565       -0.00010039141722
C           -2.81738004629600       -0.05033370326884        0.18988049237504
C            5.48093120442472        5.09163109348740        0.00615234792082
C           -4.98378167286728        1.06567001048106        0.02281282942858
C            3.33662105934875        6.26508742512836       -0.01863574677242
C            3.53058653667114       -1.09979270269560        0.21838876090330
C           -5.06518876065321        3.50015055952900       -0.07747263447663
C            1.40007913680902        0.10221836512541        0.26542995967401
C           -7.25866547612423        4.53736362565525       -0.22254624939187
C           -0.75756069838853        1.25825344963259        0.20076201670655
C            7.50590286958024        6.43154779182420       -0.05563642728682
C           -2.91574398482965        2.38626306809247        0.06869794718888
C            5.61892750176291        0.20616964615933        0.09293359093260
C           -3.02677347653658        4.84893941736807       -0.05619964216503
C            3.46761968873462        1.37147617459549        0.16624174463112
C           -5.24579725235530        5.94871298965303       -0.18883923887790
C            1.31184042965116        2.54594791222583        0.13393974593912
C           -7.45725550074761        6.91788157711462       -0.32500882368372
C           -0.84689585570028        3.70441861758386        0.05650142113106
C            7.68497201904160        1.48680455881676        0.03004169812679
C           -0.94167300508148        6.15515672320400       -0.05773038910991
C            5.55397663052493        2.64994954749740        0.07079360175328
C           -3.10989833930411        7.24941287772257       -0.16496918825225
C            3.39502053180729        3.81873823637082        0.06907417987025
C            1.23412042897305        5.00139677852687        0.02356905558471
C           -1.31272298088175       -2.43212460389358        0.39114872077704
C            6.98006266987569        2.68323620710605        0.03512429498806
C           -1.74400817492039        7.31071257857085       -0.12690623764588
C           -3.46893945625021       -1.30390748403556        0.18423012996407
C            4.80467466343832        3.84942165245476        0.05327788326660
C           -5.64610049014059       -0.18049806179208        0.02526103350060
C            2.65571887405453        5.02488982994487        0.02655306657002
C           -7.78437427543235        0.95897916456851       -0.13100772086353
C            0.49498283640270        6.20346567059367       -0.03279244584545
C            0.73926909085734       -1.13715520456690        0.39741484672364
C           -1.41569993189171        0.01000104978476        0.26803513207327
C            6.91923477402751        5.11397678885770       -0.01424268160834
C           -3.57133544592937        1.13917792766468        0.09529220403266
C            4.75196022710713        6.27465983267407       -0.02431088920750
C           -5.72791299731765        2.25121132122612       -0.06003232305204
C            2.57732645535359        7.45419919907073       -0.05983531763956
C            2.80492352596938        0.12602989679292        0.24079196651127
C           -5.85688548887952        4.67578359525965       -0.16350801509220
C            0.65385462873464        1.30232126031353        0.19863404634864
C           -8.05618394065874        5.66282404742037       -0.30311469220975
C           -1.50450540651994        2.45009862788906        0.11104962492496
C            6.71996644733820        7.51566770220739       -0.07869006599839
C           -3.67146483354484        3.57934036995466       -0.01982599759917
C            4.88571781911175        1.41247202129146        0.11610405748958
C           -3.80228000225138        6.02553950620151       -0.13580150667393
C            2.72570357113909        2.57215412906359        0.12730265477281
C           -6.08962668817258        7.06585356292877       -0.27020556077911
C            0.56190436193644        3.74922786068943        0.07429583662922
C           -1.60531377524117        4.90735386535646       -0.01854173917402
H           -2.96955633243052       -8.33860248704973        0.10653484907579
H            1.25952110019674       -8.23934557965883       -0.56453310611315
H            5.63687565317391       -8.02886872029525       -0.45839279691432
H           -0.57908887300342       -8.24548418093028        0.01319555056701
H            3.65253310489355       -8.11398440037565       -0.84381800744709
H            9.08198200277629       -5.52589393698676       -0.19785120866321
H            8.82589125260897       -0.97041234522584       -0.02557395434283
H            8.05446534531436       -7.77238402321342       -0.37393520463489
H           -7.07758531357825       -8.41233013649365       -0.14776554470475
H           -8.51451087767197       -6.37290389960857       -0.17110289434851
H           -8.74802655842060       -1.59987213292224       -0.14809344563137
H            0.68156534070581        8.35606958962927       -0.10361289883342
H            8.70911497133894        3.97658556983610       -0.02017578919453
H            8.57783292286175        6.53644310775199       -0.06903000540096
H           -8.08529669342371        7.79405318149690       -0.38795488154928
H            8.76515330137645        1.51130566502951        0.00402875099614
H           -3.66140984052258        8.17449703221400       -0.22102060877712
H           -1.28154503083166        8.28434495735382       -0.15468637955806
H           -8.86126359857834        0.93575300925298       -0.19081554892694
H            3.10075187867338        8.39759781954064       -0.08787870108775
H           -9.12764754849078        5.55288903622918       -0.34826141598814
H            7.09157242920282        8.52940520447744       -0.11056218590597
H           -5.67674907532767        8.06114022759415       -0.29158755758927
O            7.83244487580150       -3.31711668557385       -0.05642021815779
O           -7.87947702991207        3.32019205835255       -0.20543531430545
O            5.37135863818959        7.49108966017039       -0.06694697899523
O           -5.33384061699155       -7.43336072699333       -0.02595596123699
H            1.27343419882620       -4.28831694814851        1.46450723139798
 
 Bond Distances (Angstroems)
 ---------------------------
C1-C7=1.3524         C1-C8=1.4258         C1-H101=1.0793       C2-C9=1.3579         C2-C10=1.4193        C2-H102=1.0756       
C3-C7=1.4372         C3-C10=1.4022        C3-C11=1.4536        C4-C17=1.3748        C4-C18=1.4027        C4-H103=1.0774       
C5-C9=1.4339         C5-C18=1.4337        C5-C19=1.3900        O6-C10=1.3938        O6-C19=1.3726        C7-C1=1.3524         
C7-C3=1.4372         C7-H104=1.0775       C8-C1=1.4258         C8-C28=1.3881        C8-C30=1.4366        C9-C2=1.3579         
C9-C5=1.4339         C9-H105=1.0763       C10-C2=1.4193        C10-C3=1.4022        C10-O6=1.3938        C11-C3=1.4536        
C11-C30=1.3994       C11-C33=1.4356       C12-C17=1.3901       C12-C21=1.3819       C12-H106=1.0780      C13-C18=1.4107       
C13-C21=1.4101       C13-C22=1.4238       C14-C19=1.4374       C14-C22=1.4095       C14-C23=1.4405       C15-C22=1.4183       
C15-C24=1.4191       C15-C25=1.4026       C16-C24=1.3707       C16-C26=1.4136       C16-H107=1.0788      C17-C4=1.3748        
C17-C12=1.3901       C17-H108=1.0796      C18-C4=1.4027        C18-C5=1.4337        C18-C13=1.4107       C19-C5=1.3900        
C19-O6=1.3726        C19-C14=1.4374       C20-C33=1.3956       C20-C43=1.4005       C20-H128=1.0791      C21-C12=1.3819       
C21-C13=1.4101       C21-O124=1.3585      C22-C13=1.4238       C22-C14=1.4095       C22-C15=1.4183       C23-C14=1.4405       
C23-C43=1.4298       C23-C52=1.4092       C24-C15=1.4191       C24-C16=1.3707       C24-O124=1.3627      C25-C15=1.4026       
C25-C52=1.4203       C25-C59=1.4135       C26-C16=1.4136       C26-C59=1.4202       C26-C66=1.4009       C27-C37=1.3501       
C27-H109=1.0802      C27-O127=1.3384      C28-C8=1.3881        C28-C38=1.4189       C28-O127=1.3841      C29-C37=1.4303       
C29-C38=1.3856       C29-O39=1.3490       C30-C8=1.4366        C30-C11=1.3994       C30-C40=1.4286       C31-C38=1.4205       
C31-C40=1.3926       C31-C41=1.4102       C32-O39=1.3787       C32-C41=1.4173       C32-C42=1.3757       C33-C11=1.4356       
C33-C20=1.3956       C33-C72=1.4152       C34-C40=1.4113       C34-C72=1.4063       C34-C75=1.4080       C35-C41=1.4026       
C35-C75=1.4126       C35-C77=1.4105       C36-C42=1.4184       C36-C77=1.4158       C36-C79=1.4134       C37-C27=1.3501       
C37-C29=1.4303       C37-H110=1.0751      C38-C28=1.4189       C38-C29=1.3856       C38-C31=1.4205       O39-C29=1.3490       
O39-C32=1.3787       C40-C30=1.4286       C40-C31=1.3926       C40-C34=1.4113       C41-C31=1.4102       C41-C32=1.4173       
C41-C35=1.4026       C42-C32=1.3757       C42-C36=1.4184       C42-H111=1.0787      C43-C20=1.4005       C43-C23=1.4298       
C43-C81=1.4123       C44-C79=1.3785       C44-C86=1.4148       C44-O125=1.3640      C45-C80=1.4141       C45-C87=1.3627       
C45-H112=1.0780      C46-C72=1.4073       C46-C81=1.4068       C46-C82=1.4126       C47-C73=1.4236       C47-C83=1.3638       
C47-H113=1.0804      C48-C75=1.4128       C48-C82=1.4052       C48-C84=1.4115       C49-C76=1.4151       C49-C83=1.4386       
C49-C85=1.3899       C50-C77=1.4112       C50-C84=1.4162       C50-C86=1.4022       C51-C78=1.4155       C51-C85=1.4154       
C51-C87=1.4115       C52-C23=1.4092       C52-C25=1.4203       C52-C88=1.4247       C53-C86=1.4140       C53-C89=1.4200       
C53-C94=1.3972       C54-C81=1.4107       C54-C88=1.4053       C54-C90=1.4148       C55-C89=1.4098       C55-C91=1.3817       
C55-O125=1.3665      C56-C82=1.4127       C56-C90=1.4121       C56-C92=1.4094       C57-C83=1.4429       C57-C93=1.3392       
C57-H114=1.0771      C58-C84=1.4092       C58-C92=1.4133       C58-C94=1.4151       C59-C25=1.4135       C59-C26=1.4202       
C59-C95=1.4118       C60-C94=1.4244       C60-C96=1.4114       C60-C100=1.4232      C61-C88=1.4127       C61-C95=1.4196       
C61-C97=1.4119       C62-C89=1.4122       C62-C96=1.4465       C62-C98=1.4024       C63-C90=1.4085       C63-C97=1.4141       
C63-C99=1.4191       C64-C91=1.3908       C64-C98=1.3767       C64-H115=1.0798      C65-C92=1.4173       C65-C99=1.4096       
C65-C100=1.4240      C66-C26=1.4009       C66-C73=1.3887       C66-H116=1.0808      C67-C74=1.4085       C67-C80=1.4377       
C67-C100=1.4138      C68-C73=1.4269       C68-C76=1.4144       C68-C95=1.4071       C69-C74=1.3678       C69-C96=1.4065       
C69-H117=1.0785      C70-C76=1.4101       C70-C78=1.4153       C70-C97=1.4161       C71-C78=1.4218       C71-C80=1.4123       
C71-C99=1.4221       C72-C33=1.4152       C72-C34=1.4063       C72-C46=1.4073       C73-C47=1.4236       C73-C66=1.3887       
C73-C68=1.4269       C74-C67=1.4085       C74-C69=1.3678       C74-H118=1.0782      C75-C34=1.4080       C75-C35=1.4126       
C75-C48=1.4128       C76-C49=1.4151       C76-C68=1.4144       C76-C70=1.4101       C77-C35=1.4105       C77-C36=1.4158       
C77-C50=1.4112       C78-C51=1.4155       C78-C70=1.4153       C78-C71=1.4218       C79-C36=1.4134       C79-C44=1.3785       
C79-H119=1.0788      C80-C45=1.4141       C80-C67=1.4377       C80-C71=1.4123       C81-C43=1.4123       C81-C46=1.4068       
C81-C54=1.4107       C82-C46=1.4126       C82-C48=1.4052       C82-C56=1.4127       C83-C47=1.3638       C83-C49=1.4386       
C83-C57=1.4429       C84-C48=1.4115       C84-C50=1.4162       C84-C58=1.4092       C85-C49=1.3899       C85-C51=1.4154       
C85-O126=1.3657      C86-C44=1.4148       C86-C50=1.4022       C86-C53=1.4140       C87-C45=1.3627       C87-C51=1.4115       
C87-H120=1.0792      C88-C52=1.4247       C88-C54=1.4053       C88-C61=1.4127       C89-C53=1.4200       C89-C55=1.4098       
C89-C62=1.4122       C90-C54=1.4148       C90-C56=1.4121       C90-C63=1.4085       C91-C55=1.3817       C91-C64=1.3908       
C91-H121=1.0780      C92-C56=1.4094       C92-C58=1.4133       C92-C65=1.4173       C93-C57=1.3392       C93-H122=1.0802      
C93-O126=1.3489      C94-C53=1.3972       C94-C58=1.4151       C94-C60=1.4244       C95-C59=1.4118       C95-C61=1.4196       
C95-C68=1.4071       C96-C60=1.4114       C96-C62=1.4465       C96-C69=1.4065       C97-C61=1.4119       C97-C63=1.4141       
C97-C70=1.4161       C98-C62=1.4024       C98-C64=1.3767       C98-H123=1.0777      C99-C63=1.4191       C99-C65=1.4096       
C99-C71=1.4221       C100-C60=1.4232      C100-C65=1.4240      C100-C67=1.4138      H101-C1=1.0793       H102-C2=1.0756       
H103-C4=1.0774       H104-C7=1.0775       H105-C9=1.0763       H106-C12=1.0780      H107-C16=1.0788      H108-C17=1.0796      
H109-C27=1.0802      H110-C37=1.0751      H111-C42=1.0787      H112-C45=1.0780      H113-C47=1.0804      H114-C57=1.0771      
H115-C64=1.0798      H116-C66=1.0808      H117-C69=1.0785      H118-C74=1.0782      H119-C79=1.0788      H120-C87=1.0792      
H121-C91=1.0780      H122-C93=1.0802      H123-C98=1.0777      O124-C21=1.3585      O124-C24=1.3627      O125-C44=1.3640      
O125-C55=1.3665      O126-C85=1.3657      O126-C93=1.3489      O127-C27=1.3384      O127-C28=1.3841      H128-C20=1.0791      
 C  H  Rav=1.0784 sigma=0.0014  Rmin=1.0751  Rmax=1.0808    24
 C  C  Rav=1.4092 sigma=0.0194  Rmin=1.3392  Rmax=1.4536   129
 O  C  Rav=1.3652 sigma=0.0150  Rmin=1.3384  Rmax=1.3938    12
 
 selected bond angles (degree)
 --------------------
C8-C1-C7=121.46                H101-C1-C7=120.42              H101-C1-C8=118.09              C10-C2-C9=120.88               
H102-C2-C9=119.03              H102-C2-C10=120.09             C10-C3-C7=119.09               C11-C3-C7=114.52               
C11-C3-C10=126.19              C18-C4-C17=120.73              H103-C4-C17=118.93             H103-C4-C18=120.34             
C18-C5-C9=122.17               C19-C5-C9=116.83               C19-C5-C18=120.99              C19-O6-C10=120.34              
C3-C7-C1=123.81                H104-C7-C1=117.35              H104-C7-C3=118.83              C28-C8-C1=123.32               
C30-C8-C1=116.39               C30-C8-C28=120.28              C5-C9-C2=120.56                H105-C9-C2=119.63              
H105-C9-C5=119.65              C3-C10-C2=124.94               O6-C10-C2=114.19               O6-C10-C3=120.82               
 
 selected dihedral angles (degree)
 ---------------------------------
C3-C7-C1-C8=  1.38            C3-C7-C1-H101=179.52          H104-C7-C1-C8=182.12          H104-C7-C1-H101=  0.26        
C1-C7-C3-C10=194.71           C1-C7-C3-C11=  9.88           H104-C7-C3-C10= 13.97         H104-C7-C3-C11=189.13         
C28-C8-C1-C7=174.30           C28-C8-C1-H101=356.12         C30-C8-C1-C7=353.19           C30-C8-C1-H101=175.00         
C5-C9-C2-C10=  7.35           C5-C9-C2-H102=187.73          H105-C9-C2-C10=182.78         H105-C9-C2-H102=  3.16        
C2-C9-C5-C18=168.73           C2-C9-C5-C19=349.34           H105-C9-C5-C18=353.30         H105-C9-C5-C19=173.91         
C3-C10-C2-C9=191.14           C3-C10-C2-H102= 10.76         O6-C10-C2-C9= 13.67           O6-C10-C2-H102=193.30         
C2-C10-C3-C7=351.55           C2-C10-C3-C11=177.00          O6-C10-C3-C7=168.86           O6-C10-C3-C11=354.31          
C2-C10-O6-C19=327.09          C3-C10-O6-C19=149.51          
           -------------------------------------------------
          |                Final Singlepoint                |
           -------------------------------------------------

          ...................................................
          :                      SETUP                      :
          :.................................................:
          :  # basis functions                 440          :
          :  # atomic orbitals                 440          :
          :  # shells                          232          :
          :  # electrons                       452          :
          :  max. iterations                   250          :
          :  Hamiltonian                  GFN2-xTB          :
          :  restarted?                      false          :
          :  GBSA solvation                  false          :
          :  PC potential                    false          :
          :  electronic temp.          300.0000000     K    :
          :  accuracy                    1.0000000          :
          :  -> integral cutoff          0.2500000E+02      :
          :  -> integral neglect         0.1000000E-07      :
          :  -> SCF convergence          0.1000000E-05 Eh   :
          :  -> wf. convergence          0.1000000E-03 e    :
          :  Broyden damping             0.4000000          :
          :  net charge                          0          :
          :  unpaired electrons                  0          :
          ...................................................

 iter      E             dE          RMSdq      gap      omega  full diag
   1   -251.6204427 -0.251620E+03  0.396E-05    0.63       0.0  T
   2   -251.6204427  0.102025E-08  0.686E-05    0.63     128.9  T
   3   -251.6204427 -0.104029E-08  0.332E-05    0.63     266.1  T

   *** convergence criteria satisfied after 3 iterations ***

         #    Occupation            Energy/Eh            Energy/eV
      -------------------------------------------------------------
         1        2.0000           -0.7531460             -20.4941
       ...           ...                  ...                  ...
       220        2.0000           -0.3757456             -10.2246
       221        2.0000           -0.3667385              -9.9795
       222        2.0000           -0.3603734              -9.8063
       223        2.0000           -0.3587372              -9.7617
       224        2.0000           -0.3461377              -9.4189
       225        2.0000           -0.3378239              -9.1927
       226        2.0000           -0.3197044              -8.6996 (HOMO)
       227        0.0000           -0.2967033              -8.0737 (LUMO)
       228        0.0000           -0.2938016              -7.9947
       229                         -0.2857915              -7.7768
       230                         -0.2709013              -7.3716
       231                         -0.2674818              -7.2786
       ...                                ...                  ...
       440                          0.7888918              21.4668
      -------------------------------------------------------------
                  HL-Gap            0.0230011 Eh            0.6259 eV
             Fermi-level           -0.3082258 Eh           -8.3873 eV

 SCC (total)                   0 d,  0 h,  0 min,  0.365 sec
 SCC setup                      ...        0 min,  0.002 sec (  0.548%)
 Dispersion                     ...        0 min,  0.004 sec (  1.096%)
 classical contributions        ...        0 min,  0.000 sec (  0.000%)
 integral evaluation            ...        0 min,  0.034 sec (  9.315%)
 iterations                     ...        0 min,  0.170 sec ( 46.575%)
 molecular gradient             ...        0 min,  0.152 sec ( 41.644%)
 printout                       ...        0 min,  0.003 sec (  0.822%)

         :::::::::::::::::::::::::::::::::::::::::::::::::::::
         ::                     SUMMARY                     ::
         :::::::::::::::::::::::::::::::::::::::::::::::::::::
         :: total energy            -247.196372271937 Eh    ::
         :: gradient norm              0.000441646003 Eh/a0 ::
         :: HOMO-LUMO gap              0.625891258919 eV    ::
         ::.................................................::
         :: SCC energy              -251.627576744600 Eh    ::
         :: -> isotropic ES            0.066301085594 Eh    ::
         :: -> anisotropic ES          0.012524813653 Eh    ::
         :: -> anisotropic XC          0.064375121892 Eh    ::
         :: -> dispersion             -0.280428440007 Eh    ::
         :: repulsion energy           4.431204472663 Eh    ::
         :: add. restraining           0.000000000000 Eh    ::
         :: total charge              -0.000000000092 e     ::
         :::::::::::::::::::::::::::::::::::::::::::::::::::::

           -------------------------------------------------
          |                Property Printout                |
           -------------------------------------------------

    * Orbital Energies and Occupations

         #    Occupation            Energy/Eh            Energy/eV
      -------------------------------------------------------------
         1        2.0000           -0.7531460             -20.4941
       ...           ...                  ...                  ...
       214        2.0000           -0.3921476             -10.6709
       215        2.0000           -0.3898839             -10.6093
       216        2.0000           -0.3869760             -10.5302
       217        2.0000           -0.3865188             -10.5177
       218        2.0000           -0.3844015             -10.4601
       219        2.0000           -0.3805316             -10.3548
       220        2.0000           -0.3757456             -10.2246
       221        2.0000           -0.3667385              -9.9795
       222        2.0000           -0.3603734              -9.8063
       223        2.0000           -0.3587372              -9.7617
       224        2.0000           -0.3461377              -9.4189
       225        2.0000           -0.3378239              -9.1927
       226        2.0000           -0.3197044              -8.6996 (HOMO)
       227        0.0000           -0.2967033              -8.0737 (LUMO)
       228        0.0000           -0.2938016              -7.9947
       229                         -0.2857915              -7.7768
       230                         -0.2709013              -7.3716
       231                         -0.2674818              -7.2786
       232                         -0.2586538              -7.0383
       233                         -0.2584310              -7.0323
       234                         -0.2545979              -6.9280
       235                         -0.2526566              -6.8751
       236                         -0.2493259              -6.7845
       237                         -0.2433364              -6.6215
       ...                                ...                  ...
       440                          0.7888918              21.4668
      -------------------------------------------------------------
                  HL-Gap            0.0230011 Eh            0.6259 eV
             Fermi-level           -0.3082258 Eh           -8.3873 eV

     #   Z          covCN         q      C6AA      α(0)
     1   6 C        2.909    -0.042    29.040     8.836
     2   6 C        2.903    -0.049    29.205     8.861
     3   6 C        2.958    -0.022    28.554     8.765
     4   6 C        2.918    -0.047    29.156     8.855
     5   6 C        2.973    -0.016    28.394     8.741
     6   8 O        1.713    -0.236    17.911     5.714
     7   6 C        2.917    -0.038    28.954     8.824
     8   6 C        2.974    -0.016    28.405     8.742
     9   6 C        2.918    -0.038    28.945     8.823
    10   6 C        2.852     0.115    25.452     8.269
    11   6 C        2.977     0.001    27.989     8.678
    12   6 C        2.915    -0.062    29.532     8.911
    13   6 C        2.994    -0.021    28.515     8.759
    14   6 C        2.967    -0.021    28.520     8.760
    15   6 C        2.991    -0.018    28.441     8.748
    16   6 C        2.916    -0.073    29.814     8.954
    17   6 C        2.918    -0.030    28.743     8.792
    18   6 C        2.981     0.003    27.957     8.673
    19   6 C        2.866     0.134    25.075     8.208
    20   6 C        2.933    -0.020    28.513     8.757
    21   6 C        2.881     0.141    24.921     8.184
    22   6 C        2.994     0.006    27.867     8.659
    23   6 C        2.978     0.004    27.922     8.668
    24   6 C        2.875     0.136    25.031     8.202
    25   6 C        2.993     0.001    28.006     8.681
    26   6 C        2.978     0.013    27.708     8.634
    27   6 C        2.815     0.105    25.660     8.300
    28   6 C        2.879     0.110    25.572     8.290
    29   6 C        2.883     0.149    24.770     8.159
    30   6 C        2.989     0.001    27.998     8.680
    31   6 C        3.004     0.000    28.010     8.682
    32   6 C        2.870     0.130    25.153     8.221
    33   6 C        2.985     0.004    27.938     8.670
    34   6 C        3.000     0.001    28.003     8.681
    35   6 C        2.998     0.001    28.003     8.680
    36   6 C        2.977     0.015    27.681     8.630
    37   6 C        2.904    -0.079    29.967     8.976
    38   6 C        2.989    -0.026    28.642     8.779
    39   8 O        1.708    -0.214    17.559     5.658
    40   6 C        2.993    -0.005    28.131     8.700
    41   6 C        2.995    -0.015    28.373     8.738
    42   6 C        2.913    -0.071    29.781     8.949
    43   6 C        2.986     0.006    27.878     8.661
    44   6 C        2.869     0.138    24.980     8.193
    45   6 C        2.916    -0.036    28.904     8.816
    46   6 C        2.998    -0.003    28.079     8.692
    47   6 C        2.917    -0.059    29.459     8.900
    48   6 C        2.997    -0.001    28.052     8.688
    49   6 C        2.989    -0.014    28.353     8.735
    50   6 C        2.997     0.000    28.016     8.682
    51   6 C        2.980    -0.012    28.306     8.727
    52   6 C        2.990     0.001    28.000     8.680
    53   6 C        2.996     0.006    27.884     8.662
    54   6 C        2.995    -0.001    28.041     8.686
    55   6 C        2.876     0.139    24.974     8.192
    56   6 C        2.994    -0.000    28.025     8.684
    57   6 C        2.903    -0.064    29.602     8.921
    58   6 C        2.993     0.000    28.016     8.683
    59   6 C        2.994    -0.008    28.199     8.711
    60   6 C        2.990     0.002    27.964     8.674
    61   6 C        2.990    -0.000    28.022     8.683
    62   6 C        2.976     0.005    27.901     8.664
    63   6 C        2.991    -0.001    28.040     8.686
    64   6 C        2.918    -0.030    28.759     8.794
    65   6 C        2.986    -0.000    28.029     8.684
    66   6 C        2.922    -0.053    29.309     8.878
    67   6 C        2.976     0.004    27.920     8.667
    68   6 C        2.994     0.000    28.015     8.682
    69   6 C        2.917    -0.036    28.905     8.816
    70   6 C        2.990    -0.008    28.204     8.712
    71   6 C        2.989     0.003    27.938     8.670
    72   6 C        3.004     0.000    28.013     8.682
    73   6 C        2.975     0.014    27.700     8.633
    74   6 C        2.916    -0.038    28.933     8.821
    75   6 C        2.995     0.000    28.017     8.683
    76   6 C        2.992    -0.003    28.081     8.693
    77   6 C        2.997    -0.010    28.266     8.721
    78   6 C        2.991     0.001    28.006     8.681
    79   6 C        2.914    -0.073    29.820     8.955
    80   6 C        2.975     0.005    27.903     8.665
    81   6 C        3.002    -0.001    28.045     8.687
    82   6 C        2.995    -0.001    28.037     8.686
    83   6 C        2.979     0.017    27.622     8.621
    84   6 C        2.994     0.000    28.012     8.682
    85   6 C        2.888     0.127    25.218     8.233
    86   6 C        2.992    -0.018    28.452     8.750
    87   6 C        2.914    -0.033    28.821     8.803
    88   6 C        2.992    -0.002    28.078     8.692
    89   6 C        2.996    -0.015    28.372     8.738
    90   6 C        2.994     0.000    28.017     8.683
    91   6 C        2.915    -0.060    29.483     8.904
    92   6 C        2.991    -0.001    28.049     8.688
    93   6 C        2.815     0.097    25.846     8.330
    94   6 C        2.990    -0.005    28.141     8.702
    95   6 C        2.991     0.002    27.973     8.676
    96   6 C        2.976     0.003    27.958     8.673
    97   6 C        2.991     0.000    28.015     8.682
    98   6 C        2.919    -0.045    29.129     8.850
    99   6 C        2.987    -0.001    28.055     8.689
   100   6 C        2.989     0.002    27.975     8.676
   101   1 H        0.926     0.035     2.517     2.481
   102   1 H        0.926     0.041     2.439     2.442
   103   1 H        0.926     0.039     2.468     2.457
   104   1 H        0.926     0.030     2.582     2.513
   105   1 H        0.926     0.033     2.537     2.491
   106   1 H        0.926     0.048     2.344     2.394
   107   1 H        0.926     0.046     2.372     2.408
   108   1 H        0.926     0.039     2.462     2.454
   109   1 H        0.926     0.070     2.089     2.260
   110   1 H        0.926     0.068     2.110     2.272
   111   1 H        0.926     0.048     2.339     2.392
   112   1 H        0.926     0.035     2.517     2.481
   113   1 H        0.926     0.029     2.600     2.521
   114   1 H        0.926     0.045     2.382     2.413
   115   1 H        0.926     0.038     2.470     2.457
   116   1 H        0.926     0.031     2.570     2.507
   117   1 H        0.926     0.033     2.549     2.497
   118   1 H        0.926     0.033     2.547     2.496
   119   1 H        0.926     0.048     2.349     2.397
   120   1 H        0.926     0.042     2.425     2.435
   121   1 H        0.926     0.047     2.354     2.399
   122   1 H        0.926     0.052     2.291     2.367
   123   1 H        0.926     0.037     2.485     2.465
   124   8 O        1.710    -0.228    17.775     5.692
   125   8 O        1.709    -0.229    17.797     5.696
   126   8 O        1.709    -0.203    17.385     5.629
   127   8 O        1.708    -0.195    17.249     5.607
   128   1 H        0.926     0.035     2.512     2.478

 Mol. C6AA /au·bohr⁶  :     336927.177787
 Mol. C8AA /au·bohr⁸  :    9172557.107674
 Mol. α(0) /au        :        942.495896


Wiberg/Mayer (AO) data.
largest (>0.10) Wiberg bond orders for each atom

 ---------------------------------------------------------------------------
     #   Z sym  total        # sym  WBO       # sym  WBO       # sym  WBO
 ---------------------------------------------------------------------------
     1   6 C    3.952 --     7 C    1.655     8 C    1.187   101 H    0.967
     2   6 C    3.966 --     9 C    1.608    10 C    1.238   102 H    0.958
     3   6 C    3.952 --    10 C    1.375     7 C    1.190    11 C    1.148
     4   6 C    3.968 --    17 C    1.491    18 C    1.327   103 H    0.963
     5   6 C    3.964 --    19 C    1.404     9 C    1.175    18 C    1.172
     6   8 O    2.313 --    19 C    1.045    10 C    0.994
     7   6 C    3.967 --     1 C    1.655     3 C    1.190   104 H    0.960
     8   6 C    3.966 --    28 C    1.388     1 C    1.187    30 C    1.173
     9   6 C    3.881 --     2 C    1.608     5 C    1.175   105 H    0.963
    10   6 C    3.786 --     3 C    1.375     2 C    1.238     6 O    0.994
    11   6 C    3.926 --    30 C    1.382    33 C    1.176     3 C    1.148
    12   6 C    3.964 --    21 C    1.409    17 C    1.386   106 H    0.968
    13   6 C    3.979 --    18 C    1.274    21 C    1.266    22 C    1.201
    14   6 C    3.959 --    22 C    1.306    19 C    1.205    23 C    1.194
    15   6 C    3.957 --    25 C    1.286    22 C    1.229    24 C    1.210
    16   6 C    3.937 --    24 C    1.483    26 C    1.257   107 H    0.966
    17   6 C    3.975 --     4 C    1.491    12 C    1.386   108 H    0.970
    18   6 C    3.970 --     4 C    1.327    13 C    1.274     5 C    1.172
    19   6 C    3.884 --     5 C    1.404    14 C    1.205     6 O    1.045
    20   6 C    3.885 --    33 C    1.345    43 C    1.319   128 H    0.965
    21   6 C    3.922 --    12 C    1.409    13 C    1.266   124 O    1.058
    22   6 C    3.959 --    14 C    1.306    15 C    1.229    13 C    1.201
    23   6 C    3.931 --    52 C    1.320    14 C    1.194    43 C    1.188
    24   6 C    3.908 --    16 C    1.483    15 C    1.210   124 O    1.044
    25   6 C    3.972 --    15 C    1.286    59 C    1.251    52 C    1.214
    26   6 C    3.971 --    66 C    1.325    16 C    1.257    59 C    1.228
    27   6 C    3.873 --    37 C    1.648   127 O    1.138   109 H    0.957
    28   6 C    3.803 --     8 C    1.388    38 C    1.208   127 O    1.004
    29   6 C    3.797 --    38 C    1.367    37 C    1.174    39 O    1.100
    30   6 C    3.964 --    11 C    1.382    40 C    1.192     8 C    1.173
    31   6 C    3.945 --    40 C    1.322    41 C    1.241    38 C    1.165
    32   6 C    3.895 --    42 C    1.477    41 C    1.218    39 O    1.020
    33   6 C    3.960 --    20 C    1.345    72 C    1.237    11 C    1.176
    34   6 C    3.967 --    75 C    1.267    72 C    1.244    40 C    1.232
    35   6 C    3.973 --    41 C    1.271    77 C    1.243    75 C    1.239
    36   6 C    3.964 --    79 C    1.282    42 C    1.264    77 C    1.253
    37   6 C    3.961 --    27 C    1.648    29 C    1.174   110 H    0.965
    38   6 C    3.980 --    29 C    1.367    28 C    1.208    31 C    1.165
    39   8 O    2.343 --    29 C    1.100    32 C    1.020
    40   6 C    3.974 --    31 C    1.322    34 C    1.232    30 C    1.192
    41   6 C    3.964 --    35 C    1.271    31 C    1.241    32 C    1.218
    42   6 C    3.931 --    32 C    1.477    36 C    1.264   111 H    0.966
    43   6 C    3.957 --    20 C    1.319    81 C    1.251    23 C    1.188
    44   6 C    3.906 --    79 C    1.459    86 C    1.224   125 O    1.051
    45   6 C    3.969 --    87 C    1.570    80 C    1.273   112 H    0.961
    46   6 C    3.976 --    72 C    1.258    81 C    1.252    82 C    1.236
    47   6 C    3.967 --    83 C    1.538    73 C    1.214   113 H    0.967
    48   6 C    3.964 --    82 C    1.268    84 C    1.241    75 C    1.236
    49   6 C    3.972 --    85 C    1.362    76 C    1.231    83 C    1.148
    50   6 C    3.974 --    86 C    1.275    77 C    1.248    84 C    1.230
    51   6 C    3.967 --    87 C    1.261    78 C    1.256    85 C    1.239
    52   6 C    3.972 --    23 C    1.320    88 C    1.214    25 C    1.214
    53   6 C    3.955 --    94 C    1.312    86 C    1.229    89 C    1.193
    54   6 C    3.963 --    88 C    1.270    90 C    1.239    81 C    1.236
    55   6 C    3.918 --    91 C    1.411    89 C    1.269   125 O    1.049
    56   6 C    3.966 --    92 C    1.265    90 C    1.241    82 C    1.240
    57   6 C    3.972 --    93 C    1.717    83 C    1.132   114 H    0.966
    58   6 C    3.963 --    84 C    1.272    92 C    1.242    94 C    1.230
    59   6 C    3.963 --    95 C    1.257    25 C    1.251    26 C    1.228
    60   6 C    3.983 --    96 C    1.302   100 C    1.249    94 C    1.204
    61   6 C    3.960 --    97 C    1.271    88 C    1.255    95 C    1.217
    62   6 C    3.971 --    98 C    1.335    89 C    1.282    96 C    1.156
    63   6 C    3.964 --    90 C    1.265    97 C    1.243    99 C    1.238
    64   6 C    3.974 --    98 C    1.486    91 C    1.388   115 H    0.971
    65   6 C    3.962 --    99 C    1.285    92 C    1.236   100 C    1.221
    66   6 C    3.901 --    73 C    1.398    26 C    1.325   116 H    0.967
    67   6 C    3.959 --    74 C    1.295   100 C    1.283    80 C    1.184
    68   6 C    3.961 --    95 C    1.281    76 C    1.251    73 C    1.203
    69   6 C    3.965 --    74 C    1.538    96 C    1.300   117 H    0.963
    70   6 C    3.978 --    76 C    1.265    78 C    1.251    97 C    1.230
    71   6 C    3.979 --    80 C    1.294    78 C    1.241    99 C    1.220
    72   6 C    3.960 --    46 C    1.258    34 C    1.244    33 C    1.237
    73   6 C    3.973 --    66 C    1.398    47 C    1.214    68 C    1.203
    74   6 C    3.961 --    69 C    1.538    67 C    1.295   118 H    0.961
    75   6 C    3.968 --    34 C    1.267    35 C    1.239    48 C    1.236
    76   6 C    3.966 --    70 C    1.265    68 C    1.251    49 C    1.231
    77   6 C    3.971 --    36 C    1.253    50 C    1.248    35 C    1.243
    78   6 C    3.976 --    51 C    1.256    70 C    1.251    71 C    1.241
    79   6 C    3.942 --    44 C    1.459    36 C    1.282   119 H    0.966
    80   6 C    3.945 --    71 C    1.294    45 C    1.273    67 C    1.184
    81   6 C    3.961 --    46 C    1.252    43 C    1.251    54 C    1.236
    82   6 C    3.962 --    48 C    1.268    56 C    1.240    46 C    1.236
    83   6 C    3.972 --    47 C    1.538    49 C    1.148    57 C    1.132
    84   6 C    3.965 --    58 C    1.272    48 C    1.241    50 C    1.230
    85   6 C    3.861 --    49 C    1.362    51 C    1.239   126 O    1.047
    86   6 C    3.957 --    50 C    1.275    53 C    1.229    44 C    1.224
    87   6 C    3.951 --    45 C    1.570    51 C    1.261   120 H    0.967
    88   6 C    3.956 --    54 C    1.270    61 C    1.255    52 C    1.214
    89   6 C    3.977 --    62 C    1.282    55 C    1.269    53 C    1.193
    90   6 C    3.964 --    63 C    1.265    56 C    1.241    54 C    1.239
    91   6 C    3.965 --    55 C    1.411    64 C    1.388   121 H    0.968
    92   6 C    3.956 --    56 C    1.265    58 C    1.242    65 C    1.236
    93   6 C    3.908 --    57 C    1.717   126 O    1.093   122 H    0.959
    94   6 C    3.975 --    53 C    1.312    58 C    1.230    60 C    1.204
    95   6 C    3.975 --    68 C    1.281    59 C    1.257    61 C    1.217
    96   6 C    3.961 --    60 C    1.302    69 C    1.300    62 C    1.156
    97   6 C    3.963 --    61 C    1.271    63 C    1.243    70 C    1.230
    98   6 C    3.972 --    64 C    1.486    62 C    1.335   123 H    0.963
    99   6 C    3.960 --    65 C    1.285    63 C    1.238    71 C    1.220
   100   6 C    3.976 --    67 C    1.283    60 C    1.249    65 C    1.221
   101   1 H    0.997 --     1 C    0.967
   102   1 H    0.997 --     2 C    0.958
   103   1 H    0.998 --     4 C    0.963
   104   1 H    0.998 --     7 C    0.960
   105   1 H    0.998 --     9 C    0.963
   106   1 H    0.997 --    12 C    0.968
   107   1 H    0.997 --    16 C    0.966
   108   1 H    0.997 --    17 C    0.970
   109   1 H    0.994 --    27 C    0.957
   110   1 H    0.995 --    37 C    0.965
   111   1 H    0.996 --    42 C    0.966
   112   1 H    0.998 --    45 C    0.961
   113   1 H    0.998 --    47 C    0.967
   114   1 H    0.997 --    57 C    0.966
   115   1 H    0.998 --    64 C    0.971
   116   1 H    0.998 --    66 C    0.967
   117   1 H    0.998 --    69 C    0.963
   118   1 H    0.998 --    74 C    0.961
   119   1 H    0.996 --    79 C    0.966
   120   1 H    0.997 --    87 C    0.967
   121   1 H    0.997 --    91 C    0.968
   122   1 H    0.996 --    93 C    0.959
   123   1 H    0.998 --    98 C    0.963
   124   8 O    2.350 --    21 C    1.058    24 C    1.044
   125   8 O    2.345 --    44 C    1.051    55 C    1.049
   126   8 O    2.366 --    93 C    1.093    85 C    1.047
   127   8 O    2.357 --    27 C    1.138    28 C    1.004
   128   1 H    0.997 --    20 C    0.965
 ---------------------------------------------------------------------------

Topologies differ in total number of bonds
Writing topology from bond orders to xtbtopo.mol

molecular dipole:
                 x           y           z       tot (Debye)
 q only:       -0.597      -0.130       0.109
   full:       -0.629      -0.280       0.018       1.752
molecular quadrupole (traceless):
                xx          xy          yy          xz          yz          zz
 q only:        1.880      31.606      29.719       0.883      -1.616     -31.598
  q+dip:       24.486      35.210      48.688       1.392      -1.643     -73.173
   full:        6.070      36.609      32.520       0.650      -1.172     -38.591

           -------------------------------------------------
          |                Geometry Summary                 |
           -------------------------------------------------

      molecular mass/u    :     1297.2391257
   center of mass at/Å    :       -0.0067977      -0.0001947       0.0008511
  moments of inertia/u·Å² :        0.2779436E+05   0.3150773E+05   0.5915929E+05
rotational constants/cm⁻¹ :        0.6065127E-03   0.5350316E-03   0.2849533E-03

 * 155 selected distances

     #   Z          #   Z                                           value/Å
     1   6 C        7   6 C                                       1.3523794
     1   6 C        8   6 C                                       1.4257932
     2   6 C        9   6 C                                       1.3578790
     5   6 C        9   6 C                                       1.4339421 (max)
     2   6 C       10   6 C                                       1.4192537
     3   6 C       10   6 C                                       1.4022184
     6   8 O       10   6 C                                       1.3937534
     4   6 C       17   6 C                                       1.3748023
    12   6 C       17   6 C                                       1.3900527
     4   6 C       18   6 C                                       1.4026827
     5   6 C       18   6 C                                       1.4336820
    13   6 C       18   6 C                                       1.4107098
     5   6 C       19   6 C                                       1.3899578
     6   8 O       19   6 C                                       1.3726059
    12   6 C       21   6 C                                       1.3819065
    13   6 C       21   6 C                                       1.4101243
    13   6 C       22   6 C                                       1.4237534
    14   6 C       22   6 C                                       1.4095488
    15   6 C       22   6 C                                       1.4183336
    15   6 C       24   6 C                                       1.4191272
    16   6 C       24   6 C                                       1.3706859
    15   6 C       25   6 C                                       1.4026070
    16   6 C       26   6 C                                       1.4136086
     8   6 C       28   6 C                                       1.3881254
    11   6 C       30   6 C                                       1.3993554
    20   6 C       33   6 C                                       1.3956453
    27   6 C       37   6 C                                       1.3501336
    29   6 C       37   6 C                                       1.4303362
    28   6 C       38   6 C                                       1.4188862
    29   6 C       38   6 C                                       1.3855922
    31   6 C       38   6 C                                       1.4205336
    29   6 C       39   8 O                                       1.3490204
    32   6 C       39   8 O                                       1.3786710
    30   6 C       40   6 C                                       1.4286334
    31   6 C       40   6 C                                       1.3926316
    34   6 C       40   6 C                                       1.4113303
    31   6 C       41   6 C                                       1.4102107
    32   6 C       41   6 C                                       1.4173281
    35   6 C       41   6 C                                       1.4026221
    32   6 C       42   6 C                                       1.3757447
    36   6 C       42   6 C                                       1.4184127
    20   6 C       43   6 C                                       1.4004889
    23   6 C       43   6 C                                       1.4297840
    23   6 C       52   6 C                                       1.4091592
    25   6 C       52   6 C                                       1.4202564
    25   6 C       59   6 C                                       1.4134999
    26   6 C       59   6 C                                       1.4202059
    26   6 C       66   6 C                                       1.4009278
    33   6 C       72   6 C                                       1.4151667
    34   6 C       72   6 C                                       1.4063365
    46   6 C       72   6 C                                       1.4073016
    47   6 C       73   6 C                                       1.4236202
    66   6 C       73   6 C                                       1.3886584
    68   6 C       73   6 C                                       1.4269205
    67   6 C       74   6 C                                       1.4084874
    69   6 C       74   6 C                                       1.3677948
    34   6 C       75   6 C                                       1.4079710
    35   6 C       75   6 C                                       1.4125955
    48   6 C       75   6 C                                       1.4128019
    49   6 C       76   6 C                                       1.4151425
    68   6 C       76   6 C                                       1.4143882
    70   6 C       76   6 C                                       1.4100766
    35   6 C       77   6 C                                       1.4105308
    36   6 C       77   6 C                                       1.4157749
    50   6 C       77   6 C                                       1.4112432
    51   6 C       78   6 C                                       1.4155424
    70   6 C       78   6 C                                       1.4153364
    71   6 C       78   6 C                                       1.4217958
    36   6 C       79   6 C                                       1.4133894
    44   6 C       79   6 C                                       1.3785335
    45   6 C       80   6 C                                       1.4140936
    71   6 C       80   6 C                                       1.4122574
    43   6 C       81   6 C                                       1.4122872
    46   6 C       81   6 C                                       1.4068217
    54   6 C       81   6 C                                       1.4107222
    46   6 C       82   6 C                                       1.4126104
    48   6 C       82   6 C                                       1.4051534
    56   6 C       82   6 C                                       1.4127305
    47   6 C       83   6 C                                       1.3637603
    48   6 C       84   6 C                                       1.4115006
    50   6 C       84   6 C                                       1.4162138
    58   6 C       84   6 C                                       1.4091590
    49   6 C       85   6 C                                       1.3899223
    51   6 C       85   6 C                                       1.4153830
    44   6 C       86   6 C                                       1.4148421
    50   6 C       86   6 C                                       1.4021781
    53   6 C       86   6 C                                       1.4139863
    45   6 C       87   6 C                                       1.3627363
    51   6 C       87   6 C                                       1.4114577
    52   6 C       88   6 C                                       1.4246860
    54   6 C       88   6 C                                       1.4052623
    61   6 C       88   6 C                                       1.4127494
    53   6 C       89   6 C                                       1.4199645
    55   6 C       89   6 C                                       1.4098344
    62   6 C       89   6 C                                       1.4122394
    54   6 C       90   6 C                                       1.4147650
    56   6 C       90   6 C                                       1.4121048
    63   6 C       90   6 C                                       1.4084524
    55   6 C       91   6 C                                       1.3817339
    64   6 C       91   6 C                                       1.3908143
    56   6 C       92   6 C                                       1.4094219
    58   6 C       92   6 C                                       1.4133164
    65   6 C       92   6 C                                       1.4173020
    57   6 C       93   6 C                                       1.3392326
    53   6 C       94   6 C                                       1.3971617
    58   6 C       94   6 C                                       1.4150563
    60   6 C       94   6 C                                       1.4243708
    59   6 C       95   6 C                                       1.4118424
    61   6 C       95   6 C                                       1.4195764
    68   6 C       95   6 C                                       1.4071154
    60   6 C       96   6 C                                       1.4114301
    69   6 C       96   6 C                                       1.4064528
    61   6 C       97   6 C                                       1.4119432
    63   6 C       97   6 C                                       1.4141217
    70   6 C       97   6 C                                       1.4161031
    62   6 C       98   6 C                                       1.4023808
    64   6 C       98   6 C                                       1.3767019
    63   6 C       99   6 C                                       1.4190999
    65   6 C       99   6 C                                       1.4096251
    71   6 C       99   6 C                                       1.4221023
    60   6 C      100   6 C                                       1.4231579
    65   6 C      100   6 C                                       1.4240375
    67   6 C      100   6 C                                       1.4138484
     1   6 C      101   1 H                                       1.0792634
     2   6 C      102   1 H                                       1.0756370
     4   6 C      103   1 H                                       1.0774042
     7   6 C      104   1 H                                       1.0775322
     9   6 C      105   1 H                                       1.0762887
    12   6 C      106   1 H                                       1.0779620
    16   6 C      107   1 H                                       1.0788422
    17   6 C      108   1 H                                       1.0796260
    27   6 C      109   1 H                                       1.0801908
    37   6 C      110   1 H                                       1.0750532 (min)
    42   6 C      111   1 H                                       1.0787093
    45   6 C      112   1 H                                       1.0780130
    47   6 C      113   1 H                                       1.0803658
    57   6 C      114   1 H                                       1.0771335
    64   6 C      115   1 H                                       1.0798495
    66   6 C      116   1 H                                       1.0807723
    69   6 C      117   1 H                                       1.0784654
    74   6 C      118   1 H                                       1.0782412
    79   6 C      119   1 H                                       1.0787990
    87   6 C      120   1 H                                       1.0792413
    91   6 C      121   1 H                                       1.0780345
    93   6 C      122   1 H                                       1.0801716
    98   6 C      123   1 H                                       1.0777388
    21   6 C      124   8 O                                       1.3585271
    24   6 C      124   8 O                                       1.3626815
    44   6 C      125   8 O                                       1.3639630
    55   6 C      125   8 O                                       1.3664577
    85   6 C      126   8 O                                       1.3657138
    93   6 C      126   8 O                                       1.3488830
    27   6 C      127   8 O                                       1.3383858
    28   6 C      127   8 O                                       1.3840522
    20   6 C      128   1 H                                       1.0790999

 * 3 distinct bonds (by element types)

   Z      Z             #   av. dist./Å        max./Å        min./Å
   1 H    6 C          24     1.0784348     1.0807723     1.0750532
   6 C    6 C         119     1.4065388     1.4339421     1.3392326
   6 C    8 O          12     1.3652262     1.3937534     1.3383858


optimized geometry written to: xtbopt.xyz


           -------------------------------------------------
          | TOTAL ENERGY             -247.196372271937 Eh   |
          | GRADIENT NORM               0.000441646003 Eh/α |
          | HOMO-LUMO GAP               0.625891258919 eV   |
           -------------------------------------------------

------------------------------------------------------------------------
 * finished run on 2025/12/08 at 00:33:22.268     
------------------------------------------------------------------------
 total:
 * wall-time:     0 d,  0 h,  0 min,  8.049 sec
 *  cpu-time:     0 d,  0 h,  0 min, 31.422 sec
 * ratio c/w:     3.904 speedup
 SCF:
 * wall-time:     0 d,  0 h,  0 min,  1.103 sec
 *  cpu-time:     0 d,  0 h,  0 min,  4.344 sec
 * ratio c/w:     3.938 speedup
 ANC optimizer:
 * wall-time:     0 d,  0 h,  0 min,  6.837 sec
 *  cpu-time:     0 d,  0 h,  0 min, 26.719 sec
 * ratio c/w:     3.908 speedup

normal termination of xtb
