      -----------------------------------------------------------      
     |                   =====================                   |     
     |                           x T B                           |     
     |                   =====================                   |     
     |                         S. Grimme                         |     
     |          Mulliken Center for Theoretical Chemistry        |     
     |                    University of Bonn                     |     
      -----------------------------------------------------------      

   * xtb version 6.7.1pre (5071a88) compiled by 'Marcel@Raven' on 2024-07-23

   xtb is free software: you can redistribute it and/or modify it under
   the terms of the GNU Lesser General Public License as published by
   the Free Software Foundation, either version 3 of the License, or
   (at your option) any later version.
   
   xtb is distributed in the hope that it will be useful,
   but WITHOUT ANY WARRANTY; without even the implied warranty of
   MERCHANTABILITY or FITNESS FOR A PARTICULAR PURPOSE.  See the
   GNU Lesser General Public License for more details.
   
   Cite this work as:
   * C. Bannwarth, E. Caldeweyher, S. Ehlert, A. Hansen, P. Pracht,
     J. Seibert, S. Spicher, S. Grimme, WIREs Comput. Mol. Sci., 2020, 11,
     e01493. DOI: 10.1002/wcms.1493
   
   for GFN2-xTB:
   * C. Bannwarth, S. Ehlert and S. Grimme., J. Chem. Theory Comput., 2019,
     15, 1652-1671. DOI: 10.1021/acs.jctc.8b01176
   for GFN1-xTB:
   * S. Grimme, C. Bannwarth, P. Shushkov, J. Chem. Theory Comput., 2017,
     13, 1989-2009. DOI: 10.1021/acs.jctc.7b00118
   for GFN0-xTB:
   * P. Pracht, E. Caldeweyher, S. Ehlert, S. Grimme, ChemRxiv, 2019, preprint.
     DOI: 10.26434/chemrxiv.8326202.v1
   for GFN-FF:
   * S. Spicher and S. Grimme, Angew. Chem. Int. Ed., 2020, 59, 15665-15673.
     DOI: 10.1002/anie.202004239
   
   for ALPB and GBSA implicit solvation:
   * S. Ehlert, M. Stahn, S. Spicher, S. Grimme, J. Chem. Theory Comput.,
     2021, 17, 4250-4261. DOI: 10.1021/acs.jctc.1c00471
   
   for ddCOSMO and CPCM-X implicit solvation:
   * M. Stahn, S. Ehlert, S. Grimme, J. Phys. Chem. A,
     2023, XX, XXXX-XXXX. DOI: 10.1021/acs.jpca.3c04382
   
   for DFT-D4:
   * E. Caldeweyher, C. Bannwarth and S. Grimme, J. Chem. Phys., 2017,
     147, 034112. DOI: 10.1063/1.4993215
   * E. Caldeweyher, S. Ehlert, A. Hansen, H. Neugebauer, S. Spicher,
     C. Bannwarth and S. Grimme, J. Chem. Phys., 2019, 150, 154122.
     DOI: 10.1063/1.5090222
   * E. Caldeweyher, J.-M. Mewes, S. Ehlert and S. Grimme, Phys. Chem. Chem. Phys.
     2020, 22, 8499-8512. DOI: 10.1039/D0CP00502A
   
   for sTDA-xTB:
   * S. Grimme and C. Bannwarth, J. Chem. Phys., 2016, 145, 054103.
     DOI: 10.1063/1.4959605
   
   in the mass-spec context:
   * V. Asgeirsson, C. Bauer and S. Grimme, Chem. Sci., 2017, 8, 4879.
     DOI: 10.1039/c7sc00601b
   * J. Koopman and S. Grimme, ACS Omega 2019, 4, 12, 15120-15133.
     DOI: 10.1021/acsomega.9b02011
   
   for metadynamics refer to:
   * S. Grimme, J. Chem. Theory Comput., 2019, 155, 2847-2862
     DOI: 10.1021/acs.jctc.9b00143
   
   for SPH calculations refer to:
   * S. Spicher and S. Grimme, J. Chem. Theory Comput., 2021, 17, 1701-1714
     DOI: 10.1021/acs.jctc.0c01306
   
   for ONIOM refer to:
   * C. Plett, A. Katbashev, S. Ehlert, S. Grimme, M. Bursch,
     Phys. Chem. Chem. Phys., 2023, 25, 17860-17868. DOI: 10.1039/D3CP02178E
   
   for DIPRO refer to:
   * J. Kohn, N. Gildemeister, S. Grimme, D. Fazzi, A. Hansen,
     J. Chem. Phys., 2023, just accepted.
   
   for PTB refer to:
   * S. Grimme, M. Mueller, A. Hansen, J. Chem. Phys., 2023, 158, 124111.
     DOI: 10.1063/5.0137838
   
   with help from (in alphabetical order)
   P. Atkinson, C. Bannwarth, F. Bohle, G. Brandenburg, E. Caldeweyher
   M. Checinski, S. Dohm, S. Ehlert, S. Ehrlich, I. Gerasimov, C. Hölzer
   A. Katbashev, J. Kohn, J. Koopman, C. Lavigne, S. Lehtola, F. März, M. Müller,
   F. Musil, H. Neugebauer, J. Pisarek, C. Plett, P. Pracht, F. Pultar,
   J. Seibert, P. Shushkov, S. Spicher, M. Stahn, M. Steiner, T. Strunk,
   J. Stückrath, T. Rose, and J. Unsleber
   
 * started run on 2025/12/08 at 00:33:22.298     
   ID    Z sym.   atoms
    1    6 C      1-5, 7-38, 40-100
    2    8 O      6, 39, 124-127
    3    1 H      101-123, 128

           -------------------------------------------------
          |                Calculation Setup                |
           -------------------------------------------------

          program call               : xtb "C:\Users\LENOVO GAMING\Documents\GitHub\molecular-conductivity-sim\results\1.5nm-6Odoped-5percent\xtbopt.xyz" --sp
          coordinate file            : C:\Users\LENOVO GAMING\Documents\GitHub\molecular-conductivity-sim\results\1.5nm-6Odoped-5percent\xtbopt.xyz
          omp threads                :                    16


           -------------------------------------------------
          |                 G F N 2 - x T B                 |
           -------------------------------------------------

        Reference                      10.1021/acs.jctc.8b01176
      * Hamiltonian:
        H0-scaling (s, p, d)           1.850000    2.230000    2.230000
        zeta-weighting                 0.500000
      * Dispersion:
        s8                             2.700000
        a1                             0.520000
        a2                             5.000000
        s9                             5.000000
      * Repulsion:
        kExp                           1.500000    1.000000
        rExp                           1.000000
      * Coulomb:
        alpha                          2.000000
        third order                    shell-resolved
        anisotropic                    true
        a3                             3.000000
        a5                             4.000000
        cn-shift                       1.200000
        cn-exp                         4.000000
        max-rad                        5.000000

q/qsh data taken from xtbrestart
CAMM data taken from xtbrestart

          ...................................................
          :                      SETUP                      :
          :.................................................:
          :  # basis functions                 440          :
          :  # atomic orbitals                 440          :
          :  # shells                          232          :
          :  # electrons                       452          :
          :  max. iterations                   250          :
          :  Hamiltonian                  GFN2-xTB          :
          :  restarted?                       true          :
          :  GBSA solvation                  false          :
          :  PC potential                    false          :
          :  electronic temp.          300.0000000     K    :
          :  accuracy                    1.0000000          :
          :  -> integral cutoff          0.2500000E+02      :
          :  -> integral neglect         0.1000000E-07      :
          :  -> SCF convergence          0.1000000E-05 Eh   :
          :  -> wf. convergence          0.1000000E-03 e    :
          :  Broyden damping             0.4000000          :
          :  net charge                          0          :
          :  unpaired electrons                  0          :
          ...................................................

 iter      E             dE          RMSdq      gap      omega  full diag
   1   -251.6204427 -0.251620E+03  0.134E-05    0.63       0.0  T
   2   -251.6204427  0.477485E-11  0.111E-05    0.63     799.6  T
   3   -251.6204427 -0.108855E-10  0.714E-06    0.63    1238.3  T

   *** convergence criteria satisfied after 3 iterations ***

         #    Occupation            Energy/Eh            Energy/eV
      -------------------------------------------------------------
         1        2.0000           -0.7531465             -20.4942
       ...           ...                  ...                  ...
       220        2.0000           -0.3757455             -10.2246
       221        2.0000           -0.3667384              -9.9795
       222        2.0000           -0.3603734              -9.8063
       223        2.0000           -0.3587372              -9.7617
       224        2.0000           -0.3461376              -9.4189
       225        2.0000           -0.3378238              -9.1927
       226        2.0000           -0.3197044              -8.6996 (HOMO)
       227        0.0000           -0.2967036              -8.0737 (LUMO)
       228        0.0000           -0.2938016              -7.9947
       229                         -0.2857914              -7.7768
       230                         -0.2709013              -7.3716
       231                         -0.2674817              -7.2785
       ...                                ...                  ...
       440                          0.7888919              21.4668
      -------------------------------------------------------------
                  HL-Gap            0.0230008 Eh            0.6259 eV
             Fermi-level           -0.3082259 Eh           -8.3873 eV

 SCC (total)                   0 d,  0 h,  0 min,  0.251 sec
 SCC setup                      ...        0 min,  0.001 sec (  0.398%)
 Dispersion                     ...        0 min,  0.009 sec (  3.586%)
 classical contributions        ...        0 min,  0.001 sec (  0.398%)
 integral evaluation            ...        0 min,  0.024 sec (  9.562%)
 iterations                     ...        0 min,  0.145 sec ( 57.769%)
 molecular gradient             ...        0 min,  0.066 sec ( 26.295%)
 printout                       ...        0 min,  0.005 sec (  1.992%)

         :::::::::::::::::::::::::::::::::::::::::::::::::::::
         ::                     SUMMARY                     ::
         :::::::::::::::::::::::::::::::::::::::::::::::::::::
         :: total energy            -247.196372272108 Eh    ::
         :: gradient norm              0.000440971588 Eh/a0 ::
         :: HOMO-LUMO gap              0.625884828699 eV    ::
         ::.................................................::
         :: SCC energy              -251.627576744771 Eh    ::
         :: -> isotropic ES            0.066300714016 Eh    ::
         :: -> anisotropic ES          0.012524581825 Eh    ::
         :: -> anisotropic XC          0.064375122920 Eh    ::
         :: -> dispersion             -0.280428422624 Eh    ::
         :: repulsion energy           4.431204472663 Eh    ::
         :: add. restraining           0.000000000000 Eh    ::
         :: total charge              -0.000000000092 e     ::
         :::::::::::::::::::::::::::::::::::::::::::::::::::::

           -------------------------------------------------
          |                Property Printout                |
           -------------------------------------------------

    * Orbital Energies and Occupations

         #    Occupation            Energy/Eh            Energy/eV
      -------------------------------------------------------------
         1        2.0000           -0.7531465             -20.4942
       ...           ...                  ...                  ...
       214        2.0000           -0.3921475             -10.6709
       215        2.0000           -0.3898839             -10.6093
       216        2.0000           -0.3869759             -10.5301
       217        2.0000           -0.3865188             -10.5177
       218        2.0000           -0.3844014             -10.4601
       219        2.0000           -0.3805316             -10.3548
       220        2.0000           -0.3757455             -10.2246
       221        2.0000           -0.3667384              -9.9795
       222        2.0000           -0.3603734              -9.8063
       223        2.0000           -0.3587372              -9.7617
       224        2.0000           -0.3461376              -9.4189
       225        2.0000           -0.3378238              -9.1927
       226        2.0000           -0.3197044              -8.6996 (HOMO)
       227        0.0000           -0.2967036              -8.0737 (LUMO)
       228        0.0000           -0.2938016              -7.9947
       229                         -0.2857914              -7.7768
       230                         -0.2709013              -7.3716
       231                         -0.2674817              -7.2785
       232                         -0.2586537              -7.0383
       233                         -0.2584310              -7.0323
       234                         -0.2545979              -6.9280
       235                         -0.2526566              -6.8751
       236                         -0.2493259              -6.7845
       237                         -0.2433363              -6.6215
       ...                                ...                  ...
       440                          0.7888919              21.4668
      -------------------------------------------------------------
                  HL-Gap            0.0230008 Eh            0.6259 eV
             Fermi-level           -0.3082259 Eh           -8.3873 eV

     #   Z          covCN         q      C6AA      α(0)
     1   6 C        2.909    -0.042    29.040     8.836
     2   6 C        2.903    -0.049    29.205     8.861
     3   6 C        2.958    -0.022    28.554     8.765
     4   6 C        2.918    -0.047    29.156     8.855
     5   6 C        2.973    -0.016    28.394     8.741
     6   8 O        1.713    -0.236    17.911     5.714
     7   6 C        2.917    -0.038    28.954     8.824
     8   6 C        2.974    -0.016    28.405     8.742
     9   6 C        2.918    -0.038    28.945     8.823
    10   6 C        2.852     0.115    25.452     8.269
    11   6 C        2.977     0.001    27.989     8.678
    12   6 C        2.915    -0.062    29.532     8.911
    13   6 C        2.994    -0.021    28.515     8.759
    14   6 C        2.967    -0.021    28.520     8.760
    15   6 C        2.991    -0.018    28.441     8.748
    16   6 C        2.916    -0.073    29.814     8.954
    17   6 C        2.918    -0.030    28.743     8.792
    18   6 C        2.981     0.003    27.957     8.673
    19   6 C        2.866     0.134    25.075     8.208
    20   6 C        2.933    -0.020    28.513     8.757
    21   6 C        2.881     0.141    24.921     8.184
    22   6 C        2.994     0.006    27.867     8.659
    23   6 C        2.978     0.004    27.922     8.668
    24   6 C        2.875     0.136    25.031     8.202
    25   6 C        2.993     0.001    28.006     8.681
    26   6 C        2.978     0.013    27.708     8.634
    27   6 C        2.815     0.105    25.660     8.300
    28   6 C        2.879     0.110    25.572     8.290
    29   6 C        2.883     0.149    24.770     8.159
    30   6 C        2.989     0.001    27.998     8.680
    31   6 C        3.004     0.000    28.010     8.682
    32   6 C        2.870     0.130    25.153     8.221
    33   6 C        2.985     0.004    27.938     8.670
    34   6 C        3.000     0.001    28.003     8.681
    35   6 C        2.998     0.001    28.003     8.680
    36   6 C        2.977     0.015    27.681     8.630
    37   6 C        2.904    -0.079    29.967     8.976
    38   6 C        2.989    -0.026    28.642     8.779
    39   8 O        1.708    -0.214    17.559     5.658
    40   6 C        2.993    -0.005    28.131     8.700
    41   6 C        2.995    -0.015    28.373     8.738
    42   6 C        2.913    -0.071    29.781     8.949
    43   6 C        2.986     0.006    27.878     8.661
    44   6 C        2.869     0.138    24.980     8.193
    45   6 C        2.916    -0.036    28.904     8.816
    46   6 C        2.998    -0.003    28.079     8.692
    47   6 C        2.917    -0.059    29.459     8.900
    48   6 C        2.997    -0.001    28.052     8.688
    49   6 C        2.989    -0.014    28.353     8.735
    50   6 C        2.997     0.000    28.016     8.682
    51   6 C        2.980    -0.012    28.306     8.727
    52   6 C        2.990     0.001    28.000     8.680
    53   6 C        2.996     0.006    27.884     8.662
    54   6 C        2.995    -0.001    28.041     8.686
    55   6 C        2.876     0.139    24.974     8.192
    56   6 C        2.994    -0.000    28.025     8.684
    57   6 C        2.903    -0.064    29.602     8.921
    58   6 C        2.993     0.000    28.016     8.683
    59   6 C        2.994    -0.008    28.199     8.711
    60   6 C        2.990     0.002    27.964     8.674
    61   6 C        2.990    -0.000    28.022     8.683
    62   6 C        2.976     0.005    27.901     8.664
    63   6 C        2.991    -0.001    28.040     8.686
    64   6 C        2.918    -0.030    28.759     8.794
    65   6 C        2.986    -0.000    28.029     8.684
    66   6 C        2.922    -0.053    29.309     8.878
    67   6 C        2.976     0.004    27.920     8.667
    68   6 C        2.994     0.000    28.015     8.682
    69   6 C        2.917    -0.036    28.905     8.816
    70   6 C        2.990    -0.008    28.204     8.712
    71   6 C        2.989     0.003    27.938     8.670
    72   6 C        3.004     0.000    28.013     8.682
    73   6 C        2.975     0.014    27.700     8.633
    74   6 C        2.916    -0.038    28.933     8.821
    75   6 C        2.995     0.000    28.017     8.683
    76   6 C        2.992    -0.003    28.081     8.693
    77   6 C        2.997    -0.010    28.266     8.721
    78   6 C        2.991     0.001    28.006     8.681
    79   6 C        2.914    -0.073    29.820     8.955
    80   6 C        2.975     0.005    27.903     8.665
    81   6 C        3.002    -0.001    28.045     8.687
    82   6 C        2.995    -0.001    28.037     8.686
    83   6 C        2.979     0.017    27.622     8.621
    84   6 C        2.994     0.000    28.012     8.682
    85   6 C        2.888     0.127    25.218     8.233
    86   6 C        2.992    -0.018    28.452     8.750
    87   6 C        2.914    -0.033    28.821     8.803
    88   6 C        2.992    -0.002    28.078     8.692
    89   6 C        2.996    -0.015    28.372     8.738
    90   6 C        2.994     0.000    28.017     8.683
    91   6 C        2.915    -0.060    29.483     8.904
    92   6 C        2.991    -0.001    28.049     8.688
    93   6 C        2.815     0.097    25.846     8.330
    94   6 C        2.990    -0.005    28.141     8.702
    95   6 C        2.991     0.002    27.973     8.676
    96   6 C        2.976     0.003    27.958     8.673
    97   6 C        2.991     0.000    28.015     8.682
    98   6 C        2.919    -0.045    29.129     8.850
    99   6 C        2.987    -0.001    28.055     8.689
   100   6 C        2.989     0.002    27.975     8.676
   101   1 H        0.926     0.035     2.517     2.481
   102   1 H        0.926     0.041     2.439     2.442
   103   1 H        0.926     0.039     2.468     2.457
   104   1 H        0.926     0.030     2.582     2.513
   105   1 H        0.926     0.033     2.537     2.491
   106   1 H        0.926     0.048     2.344     2.394
   107   1 H        0.926     0.046     2.372     2.408
   108   1 H        0.926     0.039     2.462     2.454
   109   1 H        0.926     0.070     2.089     2.260
   110   1 H        0.926     0.068     2.110     2.272
   111   1 H        0.926     0.048     2.339     2.392
   112   1 H        0.926     0.035     2.517     2.481
   113   1 H        0.926     0.029     2.600     2.521
   114   1 H        0.926     0.045     2.382     2.413
   115   1 H        0.926     0.038     2.470     2.457
   116   1 H        0.926     0.031     2.570     2.507
   117   1 H        0.926     0.033     2.549     2.497
   118   1 H        0.926     0.033     2.547     2.496
   119   1 H        0.926     0.048     2.349     2.397
   120   1 H        0.926     0.042     2.425     2.435
   121   1 H        0.926     0.047     2.354     2.399
   122   1 H        0.926     0.052     2.291     2.367
   123   1 H        0.926     0.037     2.485     2.465
   124   8 O        1.710    -0.228    17.775     5.692
   125   8 O        1.709    -0.229    17.797     5.696
   126   8 O        1.709    -0.203    17.385     5.629
   127   8 O        1.708    -0.195    17.249     5.607
   128   1 H        0.926     0.035     2.512     2.478

 Mol. C6AA /au·bohr⁶  :     336927.173516
 Mol. C8AA /au·bohr⁸  :    9172557.081319
 Mol. α(0) /au        :        942.495890


Wiberg/Mayer (AO) data.
largest (>0.10) Wiberg bond orders for each atom

 ---------------------------------------------------------------------------
     #   Z sym  total        # sym  WBO       # sym  WBO       # sym  WBO
 ---------------------------------------------------------------------------
     1   6 C    3.952 --     7 C    1.655     8 C    1.187   101 H    0.967
     2   6 C    3.966 --     9 C    1.608    10 C    1.238   102 H    0.958
     3   6 C    3.952 --    10 C    1.375     7 C    1.190    11 C    1.148
     4   6 C    3.968 --    17 C    1.491    18 C    1.327   103 H    0.963
     5   6 C    3.964 --    19 C    1.404     9 C    1.175    18 C    1.172
     6   8 O    2.313 --    19 C    1.045    10 C    0.994
     7   6 C    3.967 --     1 C    1.655     3 C    1.190   104 H    0.960
     8   6 C    3.966 --    28 C    1.388     1 C    1.187    30 C    1.173
     9   6 C    3.881 --     2 C    1.608     5 C    1.175   105 H    0.963
    10   6 C    3.786 --     3 C    1.375     2 C    1.238     6 O    0.994
    11   6 C    3.926 --    30 C    1.382    33 C    1.176     3 C    1.148
    12   6 C    3.964 --    21 C    1.409    17 C    1.386   106 H    0.968
    13   6 C    3.979 --    18 C    1.274    21 C    1.266    22 C    1.201
    14   6 C    3.959 --    22 C    1.306    19 C    1.205    23 C    1.194
    15   6 C    3.957 --    25 C    1.286    22 C    1.229    24 C    1.210
    16   6 C    3.937 --    24 C    1.483    26 C    1.257   107 H    0.966
    17   6 C    3.975 --     4 C    1.491    12 C    1.386   108 H    0.970
    18   6 C    3.970 --     4 C    1.327    13 C    1.274     5 C    1.172
    19   6 C    3.884 --     5 C    1.404    14 C    1.205     6 O    1.045
    20   6 C    3.885 --    33 C    1.345    43 C    1.319   128 H    0.965
    21   6 C    3.922 --    12 C    1.409    13 C    1.266   124 O    1.058
    22   6 C    3.959 --    14 C    1.306    15 C    1.229    13 C    1.201
    23   6 C    3.931 --    52 C    1.320    14 C    1.194    43 C    1.188
    24   6 C    3.908 --    16 C    1.483    15 C    1.210   124 O    1.044
    25   6 C    3.972 --    15 C    1.286    59 C    1.251    52 C    1.214
    26   6 C    3.971 --    66 C    1.325    16 C    1.257    59 C    1.228
    27   6 C    3.873 --    37 C    1.648   127 O    1.138   109 H    0.957
    28   6 C    3.803 --     8 C    1.388    38 C    1.208   127 O    1.004
    29   6 C    3.797 --    38 C    1.367    37 C    1.174    39 O    1.100
    30   6 C    3.964 --    11 C    1.382    40 C    1.192     8 C    1.173
    31   6 C    3.945 --    40 C    1.322    41 C    1.241    38 C    1.165
    32   6 C    3.895 --    42 C    1.477    41 C    1.218    39 O    1.020
    33   6 C    3.960 --    20 C    1.345    72 C    1.237    11 C    1.176
    34   6 C    3.967 --    75 C    1.267    72 C    1.244    40 C    1.232
    35   6 C    3.973 --    41 C    1.271    77 C    1.243    75 C    1.239
    36   6 C    3.964 --    79 C    1.282    42 C    1.264    77 C    1.253
    37   6 C    3.961 --    27 C    1.648    29 C    1.174   110 H    0.965
    38   6 C    3.980 --    29 C    1.367    28 C    1.208    31 C    1.165
    39   8 O    2.343 --    29 C    1.100    32 C    1.020
    40   6 C    3.974 --    31 C    1.322    34 C    1.232    30 C    1.192
    41   6 C    3.964 --    35 C    1.271    31 C    1.241    32 C    1.218
    42   6 C    3.931 --    32 C    1.477    36 C    1.264   111 H    0.966
    43   6 C    3.957 --    20 C    1.319    81 C    1.251    23 C    1.188
    44   6 C    3.906 --    79 C    1.459    86 C    1.224   125 O    1.051
    45   6 C    3.969 --    87 C    1.570    80 C    1.273   112 H    0.961
    46   6 C    3.976 --    72 C    1.258    81 C    1.252    82 C    1.236
    47   6 C    3.967 --    83 C    1.538    73 C    1.214   113 H    0.967
    48   6 C    3.964 --    82 C    1.268    84 C    1.241    75 C    1.236
    49   6 C    3.972 --    85 C    1.362    76 C    1.231    83 C    1.148
    50   6 C    3.974 --    86 C    1.275    77 C    1.248    84 C    1.230
    51   6 C    3.967 --    87 C    1.261    78 C    1.256    85 C    1.239
    52   6 C    3.972 --    23 C    1.320    88 C    1.214    25 C    1.214
    53   6 C    3.955 --    94 C    1.312    86 C    1.229    89 C    1.193
    54   6 C    3.963 --    88 C    1.270    90 C    1.239    81 C    1.236
    55   6 C    3.918 --    91 C    1.411    89 C    1.269   125 O    1.049
    56   6 C    3.966 --    92 C    1.265    90 C    1.241    82 C    1.240
    57   6 C    3.972 --    93 C    1.717    83 C    1.132   114 H    0.966
    58   6 C    3.963 --    84 C    1.272    92 C    1.242    94 C    1.230
    59   6 C    3.963 --    95 C    1.257    25 C    1.251    26 C    1.228
    60   6 C    3.983 --    96 C    1.302   100 C    1.249    94 C    1.204
    61   6 C    3.960 --    97 C    1.271    88 C    1.255    95 C    1.217
    62   6 C    3.971 --    98 C    1.335    89 C    1.282    96 C    1.156
    63   6 C    3.964 --    90 C    1.265    97 C    1.243    99 C    1.238
    64   6 C    3.974 --    98 C    1.486    91 C    1.388   115 H    0.971
    65   6 C    3.962 --    99 C    1.285    92 C    1.236   100 C    1.221
    66   6 C    3.901 --    73 C    1.398    26 C    1.325   116 H    0.967
    67   6 C    3.959 --    74 C    1.295   100 C    1.283    80 C    1.184
    68   6 C    3.961 --    95 C    1.281    76 C    1.251    73 C    1.203
    69   6 C    3.965 --    74 C    1.538    96 C    1.300   117 H    0.963
    70   6 C    3.978 --    76 C    1.265    78 C    1.251    97 C    1.230
    71   6 C    3.979 --    80 C    1.294    78 C    1.241    99 C    1.220
    72   6 C    3.960 --    46 C    1.258    34 C    1.244    33 C    1.237
    73   6 C    3.973 --    66 C    1.398    47 C    1.214    68 C    1.203
    74   6 C    3.961 --    69 C    1.538    67 C    1.295   118 H    0.961
    75   6 C    3.968 --    34 C    1.267    35 C    1.239    48 C    1.236
    76   6 C    3.966 --    70 C    1.265    68 C    1.251    49 C    1.231
    77   6 C    3.971 --    36 C    1.253    50 C    1.248    35 C    1.243
    78   6 C    3.976 --    51 C    1.256    70 C    1.251    71 C    1.241
    79   6 C    3.942 --    44 C    1.459    36 C    1.282   119 H    0.966
    80   6 C    3.945 --    71 C    1.294    45 C    1.273    67 C    1.184
    81   6 C    3.961 --    46 C    1.252    43 C    1.251    54 C    1.236
    82   6 C    3.962 --    48 C    1.268    56 C    1.240    46 C    1.236
    83   6 C    3.972 --    47 C    1.538    49 C    1.148    57 C    1.132
    84   6 C    3.965 --    58 C    1.272    48 C    1.241    50 C    1.230
    85   6 C    3.861 --    49 C    1.362    51 C    1.239   126 O    1.047
    86   6 C    3.957 --    50 C    1.275    53 C    1.229    44 C    1.224
    87   6 C    3.951 --    45 C    1.570    51 C    1.261   120 H    0.967
    88   6 C    3.956 --    54 C    1.270    61 C    1.255    52 C    1.214
    89   6 C    3.977 --    62 C    1.282    55 C    1.269    53 C    1.193
    90   6 C    3.964 --    63 C    1.265    56 C    1.241    54 C    1.239
    91   6 C    3.965 --    55 C    1.411    64 C    1.388   121 H    0.968
    92   6 C    3.956 --    56 C    1.265    58 C    1.242    65 C    1.236
    93   6 C    3.908 --    57 C    1.717   126 O    1.093   122 H    0.959
    94   6 C    3.975 --    53 C    1.312    58 C    1.230    60 C    1.204
    95   6 C    3.975 --    68 C    1.281    59 C    1.257    61 C    1.217
    96   6 C    3.961 --    60 C    1.302    69 C    1.300    62 C    1.156
    97   6 C    3.963 --    61 C    1.271    63 C    1.243    70 C    1.230
    98   6 C    3.972 --    64 C    1.486    62 C    1.335   123 H    0.963
    99   6 C    3.960 --    65 C    1.285    63 C    1.238    71 C    1.220
   100   6 C    3.976 --    67 C    1.283    60 C    1.249    65 C    1.221
   101   1 H    0.997 --     1 C    0.967
   102   1 H    0.997 --     2 C    0.958
   103   1 H    0.998 --     4 C    0.963
   104   1 H    0.998 --     7 C    0.960
   105   1 H    0.998 --     9 C    0.963
   106   1 H    0.997 --    12 C    0.968
   107   1 H    0.997 --    16 C    0.966
   108   1 H    0.997 --    17 C    0.970
   109   1 H    0.994 --    27 C    0.957
   110   1 H    0.995 --    37 C    0.965
   111   1 H    0.996 --    42 C    0.966
   112   1 H    0.998 --    45 C    0.961
   113   1 H    0.998 --    47 C    0.967
   114   1 H    0.997 --    57 C    0.966
   115   1 H    0.998 --    64 C    0.971
   116   1 H    0.998 --    66 C    0.967
   117   1 H    0.998 --    69 C    0.963
   118   1 H    0.998 --    74 C    0.961
   119   1 H    0.996 --    79 C    0.966
   120   1 H    0.997 --    87 C    0.967
   121   1 H    0.997 --    91 C    0.968
   122   1 H    0.996 --    93 C    0.959
   123   1 H    0.998 --    98 C    0.963
   124   8 O    2.350 --    21 C    1.058    24 C    1.044
   125   8 O    2.345 --    44 C    1.051    55 C    1.049
   126   8 O    2.366 --    93 C    1.093    85 C    1.047
   127   8 O    2.357 --    27 C    1.138    28 C    1.004
   128   1 H    0.997 --    20 C    0.965
 ---------------------------------------------------------------------------

Topologies differ in total number of bonds
Writing topology from bond orders to xtbtopo.mol

molecular dipole:
                 x           y           z       tot (Debye)
 q only:       -0.597      -0.130       0.109
   full:       -0.629      -0.280       0.018       1.752
molecular quadrupole (traceless):
                xx          xy          yy          xz          yz          zz
 q only:        1.880      31.607      29.719       0.883      -1.616     -31.599
  q+dip:       24.486      35.210      48.687       1.392      -1.643     -73.173
   full:        6.070      36.609      32.520       0.650      -1.172     -38.591


           -------------------------------------------------
          | TOTAL ENERGY             -247.196372272108 Eh   |
          | GRADIENT NORM               0.000440971588 Eh/α |
          | HOMO-LUMO GAP               0.625884828699 eV   |
           -------------------------------------------------

------------------------------------------------------------------------
 * finished run on 2025/12/08 at 00:33:22.630     
------------------------------------------------------------------------
 total:
 * wall-time:     0 d,  0 h,  0 min,  0.329 sec
 *  cpu-time:     0 d,  0 h,  0 min,  4.391 sec
 * ratio c/w:    13.345 speedup
 SCF:
 * wall-time:     0 d,  0 h,  0 min,  0.253 sec
 *  cpu-time:     0 d,  0 h,  0 min,  3.578 sec
 * ratio c/w:    14.143 speedup

normal termination of xtb
