128
 energy: -247.196372271937 gnorm: 0.000441646003 xtb: 6.7.1pre (5071a88)
C           -2.46979093585084       -7.38202338266417        0.10596962816953
C            1.74302506790747       -7.27954155084706       -0.51986869210364
C           -0.38078414684518       -6.08210732119633        0.04169955103074
C            6.05597098765849       -7.03945412264825       -0.37954201224177
C            3.78853166097483       -5.98029905632285       -0.43097359759568
O            1.66478506336072       -4.91959680384607       -0.57128516847172
C           -1.12002016066395       -7.31455147556458        0.05600924742726
C           -3.27370278577873       -6.20455830780048        0.11966581661927
C            3.09324996318875       -7.21535027986880       -0.64873787641500
C            0.97357215374410       -6.10368887217683       -0.32088753403274
C           -1.17818510765558       -4.89713344794095        0.31174703282674
C            8.01080281437932       -5.64274347272285       -0.22823441104527
C            5.80409530184594       -4.64159430854840       -0.18660288402227
C            3.58712690606179       -3.55744770517562        0.00623861983605
C            5.66927099047556       -2.23596344084523        0.04643905658257
C            7.74766645889596       -0.97754888043425        0.01021102925444
C            7.42258056553735       -6.89810704027462       -0.32973838460143
C            5.21676786889766       -5.91690908503732       -0.32342532063810
C            3.01039227223867       -4.83451553717107       -0.31409079680987
C            0.77071101518390       -3.49310241796836        0.93596233616889
C            7.20865340567723       -4.51964793238903       -0.15839269037014
C            4.99373096424942       -3.47997369785858       -0.04161835494120
C            2.87042802313397       -2.34225415894935        0.29719019480446
C            7.08653101120701       -2.17822132553632        0.00215021784269
C            4.94519392347753       -1.03633169236355        0.10890523191990
C            7.03783561818245        0.24440168534703        0.04579069038344
C           -6.67018980547178       -7.41320104823405       -0.09695274471494
C           -4.66014478015872       -6.22706146374338        0.05513719606422
C           -6.80166850131373       -5.03033645307309       -0.03285279144753
C           -2.57398861657602       -4.95482607519684        0.23051159572705
C           -4.73137619756715       -3.78783082986347        0.13851418452210
C           -6.92206475216819       -2.67892758591087       -0.01718638806617
C           -0.57191416714346       -3.62335399606589        0.57788743023991
C           -2.71191316824218       -2.48854104441415        0.26127934109327
C           -4.87781911961056       -1.36111525562893        0.09931294293565
C           -7.05761285977915       -0.25109277204349       -0.05880727419675
C           -7.44335547060050       -6.30642786582978       -0.10828329224348
C           -5.41908839959386       -5.02821557712211        0.05843264548293
O           -7.54802379443531       -3.90677397912842       -0.05326779432082
C           -3.34287776241512       -3.75077936801933        0.23912050429665
C           -5.50957540843064       -2.61325185092632        0.07965906393050
C           -7.67398879675784       -1.52844061551597       -0.07770924227775
C            1.46904359176473       -2.33232777350646        0.58057152146737
C           -7.13901288207484        2.17711820559635       -0.13134169278556
C            1.21504672674660        7.41997815900001       -0.06836786876091
C           -0.66680628326436       -1.18181528631619        0.38719799383135
C            7.62926989509168        3.94972083786565       -0.00010039141722
C           -2.81738004629600       -0.05033370326884        0.18988049237504
C            5.48093120442472        5.09163109348740        0.00615234792082
C           -4.98378167286728        1.06567001048106        0.02281282942858
C            3.33662105934875        6.26508742512836       -0.01863574677242
C            3.53058653667114       -1.09979270269560        0.21838876090330
C           -5.06518876065321        3.50015055952900       -0.07747263447663
C            1.40007913680902        0.10221836512541        0.26542995967401
C           -7.25866547612423        4.53736362565525       -0.22254624939187
C           -0.75756069838853        1.25825344963259        0.20076201670655
C            7.50590286958024        6.43154779182420       -0.05563642728682
C           -2.91574398482965        2.38626306809247        0.06869794718888
C            5.61892750176291        0.20616964615933        0.09293359093260
C           -3.02677347653658        4.84893941736807       -0.05619964216503
C            3.46761968873462        1.37147617459549        0.16624174463112
C           -5.24579725235530        5.94871298965303       -0.18883923887790
C            1.31184042965116        2.54594791222583        0.13393974593912
C           -7.45725550074761        6.91788157711462       -0.32500882368372
C           -0.84689585570028        3.70441861758386        0.05650142113106
C            7.68497201904160        1.48680455881676        0.03004169812679
C           -0.94167300508148        6.15515672320400       -0.05773038910991
C            5.55397663052493        2.64994954749740        0.07079360175328
C           -3.10989833930411        7.24941287772257       -0.16496918825225
C            3.39502053180729        3.81873823637082        0.06907417987025
C            1.23412042897305        5.00139677852687        0.02356905558471
C           -1.31272298088175       -2.43212460389358        0.39114872077704
C            6.98006266987569        2.68323620710605        0.03512429498806
C           -1.74400817492039        7.31071257857085       -0.12690623764588
C           -3.46893945625021       -1.30390748403556        0.18423012996407
C            4.80467466343832        3.84942165245476        0.05327788326660
C           -5.64610049014059       -0.18049806179208        0.02526103350060
C            2.65571887405453        5.02488982994487        0.02655306657002
C           -7.78437427543235        0.95897916456851       -0.13100772086353
C            0.49498283640270        6.20346567059367       -0.03279244584545
C            0.73926909085734       -1.13715520456690        0.39741484672364
C           -1.41569993189171        0.01000104978476        0.26803513207327
C            6.91923477402751        5.11397678885770       -0.01424268160834
C           -3.57133544592937        1.13917792766468        0.09529220403266
C            4.75196022710713        6.27465983267407       -0.02431088920750
C           -5.72791299731765        2.25121132122612       -0.06003232305204
C            2.57732645535359        7.45419919907073       -0.05983531763956
C            2.80492352596938        0.12602989679292        0.24079196651127
C           -5.85688548887952        4.67578359525965       -0.16350801509220
C            0.65385462873464        1.30232126031353        0.19863404634864
C           -8.05618394065874        5.66282404742037       -0.30311469220975
C           -1.50450540651994        2.45009862788906        0.11104962492496
C            6.71996644733820        7.51566770220739       -0.07869006599839
C           -3.67146483354484        3.57934036995466       -0.01982599759917
C            4.88571781911175        1.41247202129146        0.11610405748958
C           -3.80228000225138        6.02553950620151       -0.13580150667393
C            2.72570357113909        2.57215412906359        0.12730265477281
C           -6.08962668817258        7.06585356292877       -0.27020556077911
C            0.56190436193644        3.74922786068943        0.07429583662922
C           -1.60531377524117        4.90735386535646       -0.01854173917402
H           -2.96955633243052       -8.33860248704973        0.10653484907579
H            1.25952110019674       -8.23934557965883       -0.56453310611315
H            5.63687565317391       -8.02886872029525       -0.45839279691432
H           -0.57908887300342       -8.24548418093028        0.01319555056701
H            3.65253310489355       -8.11398440037565       -0.84381800744709
H            9.08198200277629       -5.52589393698676       -0.19785120866321
H            8.82589125260897       -0.97041234522584       -0.02557395434283
H            8.05446534531436       -7.77238402321342       -0.37393520463489
H           -7.07758531357825       -8.41233013649365       -0.14776554470475
H           -8.51451087767197       -6.37290389960857       -0.17110289434851
H           -8.74802655842060       -1.59987213292224       -0.14809344563137
H            0.68156534070581        8.35606958962927       -0.10361289883342
H            8.70911497133894        3.97658556983610       -0.02017578919453
H            8.57783292286175        6.53644310775199       -0.06903000540096
H           -8.08529669342371        7.79405318149690       -0.38795488154928
H            8.76515330137645        1.51130566502951        0.00402875099614
H           -3.66140984052258        8.17449703221400       -0.22102060877712
H           -1.28154503083166        8.28434495735382       -0.15468637955806
H           -8.86126359857834        0.93575300925298       -0.19081554892694
H            3.10075187867338        8.39759781954064       -0.08787870108775
H           -9.12764754849078        5.55288903622918       -0.34826141598814
H            7.09157242920282        8.52940520447744       -0.11056218590597
H           -5.67674907532767        8.06114022759415       -0.29158755758927
O            7.83244487580150       -3.31711668557385       -0.05642021815779
O           -7.87947702991207        3.32019205835255       -0.20543531430545
O            5.37135863818959        7.49108966017039       -0.06694697899523
O           -5.33384061699155       -7.43336072699333       -0.02595596123699
H            1.27343419882620       -4.28831694814851        1.46450723139798
