128
 energy: -247.179915255664 gnorm: 0.059339269588 xtb: 6.7.1pre (5071a88)
C           -2.48960500000000       -7.43932200000000        0.09277200000000
C            1.76676900000000       -7.36844800000000       -0.51429400000000
C           -0.37526100000000       -6.12926400000000        0.03020200000000
C            6.11585000000000       -7.09618200000000       -0.39066300000000
C            3.82296500000000       -6.04942200000000       -0.43408500000000
O            1.69933300000000       -5.00924100000000       -0.65174500000000
C           -1.13080100000000       -7.37420700000000        0.05136900000000
C           -3.29703100000000       -6.25008500000000        0.11592000000000
C            3.12426600000000       -7.29953900000000       -0.63214300000000
C            0.98366300000000       -6.18772500000000       -0.33789900000000
C           -1.18508700000000       -4.92844900000000        0.30721500000000
C            8.07624000000000       -5.66984300000000       -0.22302800000000
C            5.84238800000000       -4.68069300000000       -0.17718600000000
C            3.60558100000000       -3.59642600000000       -0.00437100000000
C            5.69610000000000       -2.25787800000000        0.05124400000000
C            7.79428100000000       -0.99179800000000        0.01602200000000
C            7.49128400000000       -6.94087600000000       -0.33963700000000
C            5.26222800000000       -5.97043300000000       -0.32159800000000
C            3.05118500000000       -4.89693200000000       -0.33414300000000
C            0.76441600000000       -3.50785600000000        0.91810900000000
C            7.25218400000000       -4.56125300000000       -0.14713200000000
C            5.02433300000000       -3.51329300000000       -0.03573500000000
C            2.87759900000000       -2.36443400000000        0.28171200000000
C            7.11861300000000       -2.18810900000000        0.01190600000000
C            4.97145400000000       -1.04933800000000        0.10976900000000
C            7.08067700000000        0.24148100000000        0.04765100000000
C           -6.72514100000000       -7.44328800000000       -0.10790700000000
C           -4.68782200000000       -6.24667200000000        0.05203700000000
C           -6.82952300000000       -5.06458300000000       -0.03254900000000
C           -2.59242700000000       -4.98882800000000        0.23503100000000
C           -4.76184900000000       -3.80377800000000        0.15007800000000
C           -6.95425700000000       -2.68245700000000       -0.00921100000000
C           -0.58121500000000       -3.63974000000000        0.58338800000000
C           -2.73610800000000       -2.49706600000000        0.28915400000000
C           -4.91247600000000       -1.36334000000000        0.12028700000000
C           -7.10918300000000       -0.25095300000000       -0.05400300000000
C           -7.49308800000000       -6.32485300000000       -0.11543600000000
C           -5.45033300000000       -5.04610600000000        0.06240700000000
O           -7.57533400000000       -3.93092400000000       -0.05012500000000
C           -3.36905800000000       -3.76923200000000        0.25047800000000
C           -5.54027600000000       -2.62386000000000        0.09542100000000
C           -7.72842600000000       -1.54283900000000       -0.07596600000000
C            1.46844700000000       -2.34271800000000        0.58007600000000
C           -7.18036100000000        2.18566900000000       -0.12994100000000
C            1.22655500000000        7.47684500000000       -0.07082000000000
C           -0.67823400000000       -1.18232000000000        0.40685300000000
C            7.67987000000000        3.97931600000000       -0.00516300000000
C           -2.83964300000000       -0.04303700000000        0.21638000000000
C            5.51945300000000        5.12330000000000        0.00429500000000
C           -5.02143200000000        1.07893600000000        0.03997200000000
C            3.35985900000000        6.31197500000000       -0.01851400000000
C            3.54607900000000       -1.11195900000000        0.21440200000000
C           -5.10379500000000        3.52729600000000       -0.07097900000000
C            1.40382900000000        0.10763400000000        0.28357200000000
C           -7.30500100000000        4.57846300000000       -0.22792800000000
C           -0.76833000000000        1.27415300000000        0.22279000000000
C            7.55276600000000        6.47810900000000       -0.06365300000000
C           -2.94132000000000        2.40849800000000        0.08683500000000
C            5.65123900000000        0.20324900000000        0.09451100000000
C           -3.05362100000000        4.88862600000000       -0.04959100000000
C            3.48545000000000        1.38017600000000        0.16809000000000
C           -5.28919500000000        5.99405400000000       -0.19247500000000
C            1.31703400000000        2.56572000000000        0.14730300000000
C           -7.51773700000000        6.96369300000000       -0.33640300000000
C           -0.85497000000000        3.73463900000000        0.07111400000000
C            7.73298500000000        1.49460700000000        0.02799900000000
C           -0.95116900000000        6.20383700000000       -0.05547500000000
C            5.58720500000000        2.66364500000000        0.07019200000000
C           -3.13270000000000        7.30762700000000       -0.17181200000000
C            3.41743300000000        3.84473100000000        0.07365900000000
C            1.24098100000000        5.04023700000000        0.02960900000000
C           -1.33001000000000       -2.43830700000000        0.41238300000000
C            7.02649800000000        2.69939200000000        0.03244700000000
C           -1.75745600000000        7.36973600000000       -0.13287300000000
C           -3.49456500000000       -1.30521700000000        0.20914600000000
C            4.83447100000000        3.87379000000000        0.05403900000000
C           -5.68690900000000       -0.17788500000000        0.03975200000000
C            2.67534700000000        5.06300100000000        0.03151500000000
C           -7.84192600000000        0.97172900000000       -0.13320900000000
C            0.49950100000000        6.25127700000000       -0.03019500000000
C            0.73658300000000       -1.13640700000000        0.41471400000000
C           -1.43125500000000        0.01764900000000        0.28658200000000
C            6.96820100000000        5.15201500000000       -0.01965300000000
C           -3.59857500000000        1.15305700000000        0.11478900000000
C            4.78080900000000        6.30205000000000       -0.02533200000000
C           -5.76527900000000        2.27036900000000       -0.05117500000000
C            2.59854000000000        7.51127700000000       -0.06362700000000
C            2.81548700000000        0.12646700000000        0.24281600000000
C           -5.89776300000000        4.70852200000000       -0.16411400000000
C            0.65328500000000        1.31751600000000        0.21739700000000
C           -8.11877800000000        5.69373000000000       -0.31277600000000
C           -1.51972300000000        2.47230700000000        0.12832600000000
C            6.76834000000000        7.56923800000000       -0.08591900000000
C           -3.70436300000000        3.60803800000000       -0.01011000000000
C            4.91402800000000        1.41942600000000        0.11596300000000
C           -3.83009900000000        6.07426000000000       -0.13647800000000
C            2.74129900000000        2.59100400000000        0.13531100000000
C           -6.14020400000000        7.11928900000000       -0.27924600000000
C            0.56199800000000        3.77895400000000        0.08550300000000
C           -1.61881700000000        4.94793700000000       -0.00994500000000
H           -2.97965800000000       -8.40745100000000        0.08413700000000
H            1.28833400000000       -8.33940900000000       -0.52680800000000
H            5.70164800000000       -8.09284300000000       -0.48361300000000
H           -0.59429100000000       -8.31408100000000        0.00446000000000
H            3.68697100000000       -8.21213700000000       -0.78291000000000
H            9.15261600000000       -5.53961100000000       -0.18953500000000
H            8.87918000000000       -0.99386500000000       -0.01933100000000
H            8.13324600000000       -7.81515300000000       -0.39412800000000
H           -7.11517600000000       -8.45121500000000       -0.16267600000000
H           -8.57084100000000       -6.39831300000000       -0.18239300000000
H           -8.80727100000000       -1.62865900000000       -0.15493800000000
H            0.69318100000000        8.41926600000000       -0.10911100000000
H            8.76632600000000        4.00738400000000       -0.02776400000000
H            8.62985700000000        6.60450900000000       -0.08038400000000
H           -8.15146100000000        7.84305700000000       -0.40263600000000
H            8.81964500000000        1.51885300000000       -0.00115000000000
H           -3.68430600000000        8.23892600000000       -0.23465000000000
H           -1.29310400000000        8.34806100000000       -0.16831500000000
H           -8.92499400000000        0.95685900000000       -0.20219200000000
H            3.11622100000000        8.46331500000000       -0.09667400000000
H           -9.19600700000000        5.57515100000000       -0.36032000000000
H            7.12141900000000        8.59177200000000       -0.11918400000000
H           -5.72722600000000        8.12091400000000       -0.30305400000000
O            7.86733400000000       -3.33798100000000       -0.03414700000000
O           -7.92232400000000        3.34134300000000       -0.21042900000000
O            5.40114300000000        7.52592300000000       -0.07019600000000
O           -5.37273500000000       -7.44357400000000       -0.03316000000000
H            1.29563100000000       -4.34747100000000        1.33492900000000
128
 energy: -247.191198956838 gnorm: 0.029990351926 xtb: 6.7.1pre (5071a88)
C           -2.48349498943005       -7.41097622125537        0.09262159107544
C            1.76315154747097       -7.33827311743143       -0.50060090117826
C           -0.37780361714748       -6.11215734775555        0.02911660018911
C            6.10428961592745       -7.07146481535967       -0.38735013627857
C            3.81616304025843       -6.02665229073916       -0.42783966010492
O            1.68879850799048       -4.98028350822134       -0.62360624896352
C           -1.13128674933000       -7.34659362615916        0.04594699622308
C           -3.29046014169703       -6.23017185760832        0.11395206606813
C            3.11670495622124       -7.27008505199270       -0.62129789222193
C            0.98002532745997       -6.15994487901268       -0.33061574648112
C           -1.18410574555154       -4.91907198574917        0.29892666977431
C            8.05295085611512       -5.65847327262116       -0.22271184681005
C            5.82885920102480       -4.66887166369305       -0.17799398469261
C            3.60023538392125       -3.58409984345288       -0.00658810053434
C            5.68376927143654       -2.25118837288118        0.04902192214748
C            7.77059551884423       -0.98607063587437        0.01609241597133
C            7.47212584975552       -6.92060341856372       -0.33741722025058
C            5.25098140476242       -5.95336021020541       -0.31902027345222
C            3.03920861293463       -4.87668033137610       -0.32718604712845
C            0.76929569862481       -3.50736717357766        0.89144768513791
C            7.23580861167405       -4.54618983733561       -0.14723286129809
C            5.01296581664176       -3.50362368234294       -0.03983918805695
C            2.87833806978448       -2.35798924558486        0.27862547348277
C            7.10345822794317       -2.18576626916470        0.01170143589827
C            4.96048433901929       -1.04515173835500        0.10694399410473
C            7.06032199253250        0.24279076426826        0.04699831657559
C           -6.70770109060611       -7.42856856918261       -0.10631452816259
C           -4.67944444486209       -6.23965353679614        0.05265225711364
C           -6.82061071276262       -5.04799472602527       -0.03193333973132
C           -2.58519283263216       -4.97577357871193        0.22821869350239
C           -4.74958696353463       -3.79603011465602        0.14923990073408
C           -6.94077290338111       -2.67781425716143       -0.00923209434498
C           -0.57769026439185       -3.63615144952754        0.56184128320475
C           -2.72797453949573       -2.49340677115039        0.28144526999083
C           -4.89949103863235       -1.35898583596484        0.11966406037496
C           -7.08718450494509       -0.24769769708604       -0.05288522203002
C           -7.47522468907885       -6.31531199753674       -0.11424255219756
C           -5.43900809548951       -5.03758458356182        0.06199276519525
O           -7.56624489620604       -3.91730292663131       -0.04974194277102
C           -3.35814664234311       -3.76268488127231        0.24832547362249
C           -5.52779733915630       -2.61680684833420        0.09469241209007
C           -7.70308894606601       -1.53306898479253       -0.07496103315139
C            1.47044473400481       -2.34112484436545        0.55994239410366
C           -7.16336796392970        2.18546172290350       -0.12937500542419
C            1.22415902830930        7.44948563519788       -0.07021490036066
C           -0.67358580285691       -1.18269469467317        0.40103065877934
C            7.65577800116613        3.96678121406728       -0.00504623196235
C           -2.83168137675763       -0.04388399782903        0.21390198988368
C            5.50433298653720        5.11001863979130        0.00462123621079
C           -5.00710921509590        1.07652307557771        0.03950457214962
C            3.35132391777544        6.29129466761352       -0.01822180055740
C            3.54034130086668       -1.10832729820976        0.21108510875517
C           -5.08921738984733        3.52052911933520       -0.07036702781463
C            1.40257856379353        0.10681252157995        0.27726878828994
C           -7.28715995650182        4.56463431914442       -0.22670912197109
C           -0.76456197988569        1.27018218340492        0.22076754678475
C            7.53308815216246        6.45746292151756       -0.06275183045532
C           -2.93224950446503        2.40290422905053        0.08623243173102
C            5.63706018058640        0.20363045650400        0.09297028708392
C           -3.04448287520101        4.87566620823952       -0.04940325341346
C            3.47863986119319        1.37702340232608        0.16830893400443
C           -5.27456826540101        5.97797991919072       -0.19145536562157
C            1.31500768522781        2.56027615108922        0.14693805719369
C           -7.49633460634493        6.94337800111311       -0.33452433652386
C           -0.85282107086161        3.72559252099402        0.07041774927364
C            7.70846144072801        1.49158196085585        0.02800629761044
C           -0.94851338153152        6.18449375720814       -0.05528415353393
C            5.57315304981532        2.65821172079709        0.07010770606545
C           -3.12511274331466        7.28138080663336       -0.17080952872119
C            3.40893625883051        3.83543008132865        0.07368885735939
C            1.23806087058252        5.02569716925436        0.02994817655302
C           -1.32435241029825       -2.43643117172371        0.40157309296007
C            7.00513571336946        2.69298818358555        0.03231700036515
C           -1.75562698396472        7.34250657149499       -0.13206577625247
C           -3.48569189994042       -1.30284380064581        0.20805888323096
C            4.82301829169574        3.86400696538896        0.05399375526914
C           -5.67148668489538       -0.17554406221664        0.04051424087385
C            2.66704396040677        5.04775667067302        0.03111737407043
C           -7.81549067592133        0.96882430766858       -0.13189373680229
C            0.49695114823167        6.23157842151114       -0.03009963437601
C            0.73840716350014       -1.13670750973364        0.40370751375976
C           -1.42542360164104        0.01615606931827        0.28754976099899
C            6.94763389380376        5.13545223036489       -0.01900495073091
C           -3.58879955358044        1.15032319065240        0.11566869209513
C            4.77091515900968        6.29117951457722       -0.02532527132986
C           -5.75055368488424        2.26602491185104       -0.05072353733281
C            2.58999117149861        7.48311984908284       -0.06269675519895
C            2.81198180565472        0.12587841495376        0.24103941391981
C           -5.88270647656737        4.69901352618741       -0.16339171764220
C            0.65345342636216        1.31374557827104        0.21561330841477
C           -8.09418080871552        5.68314954711636       -0.31129097350830
C           -1.51466419066905        2.46646795988192        0.12897309494042
C            6.75055519687871        7.54501964917210       -0.08488347164363
C           -3.69201215819956        3.60024874953957       -0.00911322565371
C            4.90280097345185        1.41645462225139        0.11547335624843
C           -3.82214412532203        6.05553754574874       -0.13588030646596
C            2.73551276477332        2.58450557326375        0.13445638021331
C           -6.12632402526766        7.09510318826951       -0.27772607486142
C            0.56122201638043        3.76938745337590        0.08580247811089
C           -1.61529006633650        4.93387039561201       -0.01008659617774
H           -2.97667094998924       -8.37390995039397        0.08837023801300
H            1.28849633847002       -8.30729543035000       -0.52192725179953
H            5.69514584832905       -8.06592831501129       -0.48034610344903
H           -0.59550138742077       -8.28323912581868        0.00383180964751
H            3.67729070216344       -8.17807325674804       -0.78361105830370
H            9.12541871649356       -5.53460026423318       -0.19008267014325
H            8.85126108273352       -0.98531372760077       -0.01759855367400
H            8.11220011352620       -7.79190545658442       -0.39252896534366
H           -7.10328677705287       -8.43245399954832       -0.16109856956397
H           -8.54851070755913       -6.38542017547982       -0.18030170244488
H           -8.77806205204140       -1.61421148781938       -0.15262195879562
H            0.69438903838624        8.39028423006383       -0.10828022737674
H            8.73837249221986        3.99510035633548       -0.02699503664997
H            8.60680712161326        6.57770432793985       -0.07918965680955
H           -8.12846964848013        7.81984912112825       -0.40041597464469
H            8.79140527728141        1.51545737732283        0.00029694842143
H           -3.67505722233944        8.21008560106547       -0.23297606446312
H           -1.29461497916628        8.31913426244079       -0.16624604312770
H           -8.89432102105919        0.95049460277704       -0.19964298362807
H            3.10877035813176        8.43156299685900       -0.09508232318390
H           -9.16755033049468        5.57096908162149       -0.35876845819222
H            7.10993740767671        8.56379401074923       -0.11818911368646
H           -5.71880637354396        8.09466621861001       -0.30125187107034
O            7.85248626357673       -3.33055008168802       -0.03659585700918
O           -7.90551854707278        3.33547470476798       -0.20968603175071
O            5.39218646003556        7.51144909935211       -0.06993085026816
O           -5.36259788671990       -7.43914061778726       -0.03255813496931
H            1.28891272030093       -4.32930082666721        1.35838844866252
128
 energy: -247.195727322062 gnorm: 0.009652228030 xtb: 6.7.1pre (5071a88)
C           -2.47593061733210       -7.38616214914854        0.09375130107502
C            1.75634018507862       -7.30695714779017       -0.49399759255410
C           -0.37906272727349       -6.09266315041037        0.02471556313665
C            6.08474284583738       -7.04903448719519       -0.38420710981664
C            3.80577123936485       -6.00215490160183       -0.42493829952529
O            1.67949925498772       -4.95103525269668       -0.60937051828099
C           -1.12622930849945       -7.32158179062789        0.04291660104714
C           -3.28220570923800       -6.21009785487213        0.11204758366234
C            3.10788870212575       -7.24114029327066       -0.61626581401118
C            0.97823369655856       -6.12894372582228       -0.33027424533462
C           -1.18082697986395       -4.90579542017143        0.29074217620448
C            8.03041702998610       -5.64461739528817       -0.22195028402522
C            5.81519998391001       -4.65369247516952       -0.17993690122064
C            3.59222971514457       -3.57016407702107       -0.01069177590146
C            5.67202368522245       -2.24301964534610        0.04661200235923
C            7.75025776304331       -0.98011756542397        0.01630539209758
C            7.45001438014688       -6.90167975712716       -0.33489395003787
C            5.23576502921629       -5.93348930554368       -0.31828846224953
C            3.02492329923915       -4.85447422834262       -0.32863913621963
C            0.77083515855559       -3.50053351519628        0.89021865004499
C            7.22012595802687       -4.52746113720642       -0.14760308605697
C            5.00053029767112       -3.49142391315388       -0.04311585340062
C            2.87419340560769       -2.35045925478823        0.27390525649248
C            7.08975498182855       -2.18200832039241        0.01027311982662
C            4.94858116110039       -1.04067764729831        0.10443299648252
C            7.04154581116624        0.24350400346642        0.04676976430880
C           -6.68657266913091       -7.41358266390852       -0.10429094509058
C           -4.66965025262681       -6.23066498424506        0.05214130790657
C           -6.81026917410182       -5.03096438338658       -0.03153892344119
C           -2.57775650630824       -4.96083892953261        0.22168245892262
C           -4.73739432368417       -3.78839599901136        0.14659149222369
C           -6.92781847123890       -2.67515334246362       -0.00907374663042
C           -0.57503599532245       -3.62907112693304        0.55121568067188
C           -2.71890082318187       -2.48884796034401        0.27129305673469
C           -4.88557360612614       -1.35679550073011        0.11795990389755
C           -7.06599928148531       -0.24616663144373       -0.05153005325432
C           -7.45617714920484       -6.30492943964842       -0.11278998763881
C           -5.42724806628910       -5.02865716132075        0.06083186376440
O           -7.55589526198306       -3.90487075622041       -0.04939519175505
C           -3.34733702310164       -3.75431919131332        0.24282558232012
C           -5.51538513504970       -2.61130267447529        0.09326696951250
C           -7.68040606108244       -1.52528883433718       -0.07347408795226
C            1.47024786291878       -2.33693376407179        0.55044783096621
C           -7.14653683515893        2.18338582299959       -0.12853305654342
C            1.21827295982679        7.42614629291232       -0.06972349424275
C           -0.66911854753574       -1.18245782667244        0.39097163437324
C            7.63436863601627        3.95316531622886       -0.00461640006597
C           -2.82287246404882       -0.04598428110595        0.21106112789661
C            5.48751365930774        5.09619299300890        0.00504645872911
C           -4.99161855941379        1.07220643492120        0.03954531521725
C            3.34135957061506        6.27124812308922       -0.01781727495412
C            3.53258017508915       -1.10459848291909        0.20670271522062
C           -5.07365776480186        3.51019481124251       -0.06959761452923
C            1.40003843504536        0.10458926008551        0.26837438831663
C           -7.26890435563550        4.54733952433640       -0.22548529719504
C           -0.76070180375387        1.26392519687234        0.21817247104181
C            7.51355343236058        6.43705582492325       -0.06179576846347
C           -2.92218039142211        2.39443084307001        0.08625518265259
C            5.62238793337778        0.20396670086344        0.09152590760345
C           -3.03397129988785        4.85983845918726       -0.04890159257909
C            3.46992127450290        1.37245701482148        0.16703660357254
C           -5.25706765762578        5.96037606630989       -0.19028712924998
C            1.31194351980540        2.55206223015405        0.14535186039368
C           -7.47256126473629        6.92527515254843       -0.33264422350672
C           -0.85027729456776        3.71329282877853        0.07001128331489
C            7.68779165848059        1.48756164305833        0.02852547558987
C           -0.94492330698941        6.16484383677629       -0.05488251378692
C            5.55816335065339        2.65176526655127        0.07005068465073
C           -3.11617770979494        7.25829292452413       -0.16975004513681
C            3.39856574298086        3.82392806220825        0.07364532488367
C            1.23459397859894        5.00952748576657        0.03017918265663
C           -1.31786493848449       -2.43332114540951        0.38815394254893
C            6.98492367912591        2.68538467051697        0.03255649066017
C           -1.74979736695248        7.31888824174055       -0.13085355410387
C           -3.47581075689396       -1.30106481810481        0.20443189442262
C            4.80961979465483        3.85318210781012        0.05407424931591
C           -5.65487838075081       -0.17519955221191        0.04110453464583
C            2.65816527831603        5.03140335740255        0.03108395686169
C           -7.79163636949013        0.96470682843722       -0.13018576290097
C            0.49436894230537        6.21199545333445       -0.02982684725466
C            0.73887709289045       -1.13717586434370        0.39059913223815
C           -1.41933507657720        0.01348578827675        0.28525178645198
C            6.92683595053034        5.11859611500118       -0.01826623185754
C           -3.57791095565761        1.14552349522900        0.11597259537369
C            4.75868443480805        6.27966407024576       -0.02518382865042
C           -5.73535097623968        2.25916427752439       -0.04997269139105
C            2.58088227301357        7.45917022284692       -0.06191675490509
C            2.80646377747478        0.12452433661792        0.23719042712727
C           -5.86661962156599        4.68632041319100       -0.16256746269532
C            0.65283119743129        1.30756437337248        0.21163088588798
C           -8.06969868129424        5.67030360718676       -0.30981057674075
C           -1.50899948446780        2.45767074966609        0.12901504924952
C            6.72950788877454        7.52186632623739       -0.08399625889306
C           -3.67879351880022        3.58901629781544       -0.00798332191278
C            4.88958927443252        1.41267473191680        0.11478373146232
C           -3.81141131458779        6.03624677852389       -0.13514291034307
C            2.72798311990756        2.57594510364896        0.13338134566493
C           -6.10562019376988        7.07442927896554       -0.27595584711303
C            0.56045282924813        3.75703495963184        0.08574730772489
C           -1.61038028000398        4.91744116071849       -0.00995652628189
H           -2.97369921044857       -8.34439465922563        0.09179167065411
H            1.28138329674866       -8.27290750847569       -0.51226946518966
H            5.67574130149535       -8.04172020914625       -0.47589896637567
H           -0.58876966836193       -8.25496495341529       -0.00263983920539
H            3.66852423303084       -8.14612318689874       -0.77937713137175
H            9.10091063689488       -5.52446100910456       -0.18977994164848
H            8.82851227865822       -0.97616705215960       -0.01573037945137
H            8.08789006356397       -7.77152691749211       -0.38960646679553
H           -7.08996972812904       -8.41388145390363       -0.15897705026186
H           -8.52707156204035       -6.37102686658319       -0.17789355791546
H           -8.75355648546718       -1.60098968643245       -0.15040166637865
H            0.68850011506320        8.36475373547767       -0.10795688393225
H            8.71441451091660        3.98112914444698       -0.02649344357316
H            8.58522391387805        6.54892883992923       -0.07765522303706
H           -8.10287842511726        7.80017061259188       -0.39811895645308
H            8.76823915190598        1.51144010373256        0.00173902142901
H           -3.66646208764956        8.18440582925603       -0.23165806741392
H           -1.28909813803271        8.29373551373575       -0.16420075141643
H           -8.86808227567865        0.94333728385354       -0.19730114102920
H            3.10225296907190        8.40412318892443       -0.09356895344796
H           -9.14100487285878        5.56157664808966       -0.35716459154430
H            7.09681756471230        8.53723530987698       -0.11713590825384
H           -5.69879066921304        8.07229516504806       -0.29913683396194
O            7.83892109345036       -3.32074121110257       -0.03975563785850
O           -7.88822015365077        3.32715755340745       -0.20876771143530