      -----------------------------------------------------------      
     |                   =====================                   |     
     |                           x T B                           |     
     |                   =====================                   |     
     |                         S. Grimme                         |     
     |          Mulliken Center for Theoretical Chemistry        |     
     |                    University of Bonn                     |     
      -----------------------------------------------------------      

   * xtb version 6.7.1pre (5071a88) compiled by 'Marcel@Raven' on 2024-07-23

   xtb is free software: you can redistribute it and/or modify it under
   the terms of the GNU Lesser General Public License as published by
   the Free Software Foundation, either version 3 of the License, or
   (at your option) any later version.
   
   xtb is distributed in the hope that it will be useful,
   but WITHOUT ANY WARRANTY; without even the implied warranty of
   MERCHANTABILITY or FITNESS FOR A PARTICULAR PURPOSE.  See the
   GNU Lesser General Public License for more details.
   
   Cite this work as:
   * C. Bannwarth, E. Caldeweyher, S. Ehlert, A. Hansen, P. Pracht,
     J. Seibert, S. Spicher, S. Grimme, WIREs Comput. Mol. Sci., 2020, 11,
     e01493. DOI: 10.1002/wcms.1493
   
   for GFN2-xTB:
   * C. Bannwarth, S. Ehlert and S. Grimme., J. Chem. Theory Comput., 2019,
     15, 1652-1671. DOI: 10.1021/acs.jctc.8b01176
   for GFN1-xTB:
   * S. Grimme, C. Bannwarth, P. Shushkov, J. Chem. Theory Comput., 2017,
     13, 1989-2009. DOI: 10.1021/acs.jctc.7b00118
   for GFN0-xTB:
   * P. Pracht, E. Caldeweyher, S. Ehlert, S. Grimme, ChemRxiv, 2019, preprint.
     DOI: 10.26434/chemrxiv.8326202.v1
   for GFN-FF:
   * S. Spicher and S. Grimme, Angew. Chem. Int. Ed., 2020, 59, 15665-15673.
     DOI: 10.1002/anie.202004239
   
   for ALPB and GBSA implicit solvation:
   * S. Ehlert, M. Stahn, S. Spicher, S. Grimme, J. Chem. Theory Comput.,
     2021, 17, 4250-4261. DOI: 10.1021/acs.jctc.1c00471
   
   for ddCOSMO and CPCM-X implicit solvation:
   * M. Stahn, S. Ehlert, S. Grimme, J. Phys. Chem. A,
     2023, XX, XXXX-XXXX. DOI: 10.1021/acs.jpca.3c04382
   
   for DFT-D4:
   * E. Caldeweyher, C. Bannwarth and S. Grimme, J. Chem. Phys., 2017,
     147, 034112. DOI: 10.1063/1.4993215
   * E. Caldeweyher, S. Ehlert, A. Hansen, H. Neugebauer, S. Spicher,
     C. Bannwarth and S. Grimme, J. Chem. Phys., 2019, 150, 154122.
     DOI: 10.1063/1.5090222
   * E. Caldeweyher, J.-M. Mewes, S. Ehlert and S. Grimme, Phys. Chem. Chem. Phys.
     2020, 22, 8499-8512. DOI: 10.1039/D0CP00502A
   
   for sTDA-xTB:
   * S. Grimme and C. Bannwarth, J. Chem. Phys., 2016, 145, 054103.
     DOI: 10.1063/1.4959605
   
   in the mass-spec context:
   * V. Asgeirsson, C. Bauer and S. Grimme, Chem. Sci., 2017, 8, 4879.
     DOI: 10.1039/c7sc00601b
   * J. Koopman and S. Grimme, ACS Omega 2019, 4, 12, 15120-15133.
     DOI: 10.1021/acsomega.9b02011
   
   for metadynamics refer to:
   * S. Grimme, J. Chem. Theory Comput., 2019, 155, 2847-2862
     DOI: 10.1021/acs.jctc.9b00143
   
   for SPH calculations refer to:
   * S. Spicher and S. Grimme, J. Chem. Theory Comput., 2021, 17, 1701-1714
     DOI: 10.1021/acs.jctc.0c01306
   
   for ONIOM refer to:
   * C. Plett, A. Katbashev, S. Ehlert, S. Grimme, M. Bursch,
     Phys. Chem. Chem. Phys., 2023, 25, 17860-17868. DOI: 10.1039/D3CP02178E
   
   for DIPRO refer to:
   * J. Kohn, N. Gildemeister, S. Grimme, D. Fazzi, A. Hansen,
     J. Chem. Phys., 2023, just accepted.
   
   for PTB refer to:
   * S. Grimme, M. Mueller, A. Hansen, J. Chem. Phys., 2023, 158, 124111.
     DOI: 10.1063/5.0137838
   
   with help from (in alphabetical order)
   P. Atkinson, C. Bannwarth, F. Bohle, G. Brandenburg, E. Caldeweyher
   M. Checinski, S. Dohm, S. Ehlert, S. Ehrlich, I. Gerasimov, C. Hölzer
   A. Katbashev, J. Kohn, J. Koopman, C. Lavigne, S. Lehtola, F. März, M. Müller,
   F. Musil, H. Neugebauer, J. Pisarek, C. Plett, P. Pracht, F. Pultar,
   J. Seibert, P. Shushkov, S. Spicher, M. Stahn, M. Steiner, T. Strunk,
   J. Stückrath, T. Rose, and J. Unsleber
   
 * started run on 2025/12/08 at 00:34:32.670     
   ID    Z sym.   atoms
    1    6 C      1-9, 11-51
    2    7 N      10, 70-72
    3    1 H      52-69, 73, 74

           -------------------------------------------------
          |                Calculation Setup                |
           -------------------------------------------------

          program call               : xtb "C:\Users\LENOVO GAMING\Documents\GitHub\molecular-conductivity-sim\dataset\1nm-4Ndoped-5percent.xyz" --opt --parallel 4
          coordinate file            : C:\Users\LENOVO GAMING\Documents\GitHub\molecular-conductivity-sim\dataset\1nm-4Ndoped-5percent.xyz
          omp threads                :                     4


           -------------------------------------------------
          |                 G F N 2 - x T B                 |
           -------------------------------------------------

        Reference                      10.1021/acs.jctc.8b01176
      * Hamiltonian:
        H0-scaling (s, p, d)           1.850000    2.230000    2.230000
        zeta-weighting                 0.500000
      * Dispersion:
        s8                             2.700000
        a1                             0.520000
        a2                             5.000000
        s9                             5.000000
      * Repulsion:
        kExp                           1.500000    1.000000
        rExp                           1.000000
      * Coulomb:
        alpha                          2.000000
        third order                    shell-resolved
        anisotropic                    true
        a3                             3.000000
        a5                             4.000000
        cn-shift                       1.200000
        cn-exp                         4.000000
        max-rad                        5.000000


          ...................................................
          :                      SETUP                      :
          :.................................................:
          :  # basis functions                 236          :
          :  # atomic orbitals                 236          :
          :  # shells                          128          :
          :  # electrons                       240          :
          :  max. iterations                   250          :
          :  Hamiltonian                  GFN2-xTB          :
          :  restarted?                      false          :
          :  GBSA solvation                  false          :
          :  PC potential                    false          :
          :  electronic temp.          300.0000000     K    :
          :  accuracy                    1.0000000          :
          :  -> integral cutoff          0.2500000E+02      :
          :  -> integral neglect         0.1000000E-07      :
          :  -> SCF convergence          0.1000000E-05 Eh   :
          :  -> wf. convergence          0.1000000E-03 e    :
          :  Broyden damping             0.4000000          :
          :  net charge                          0          :
          :  unpaired electrons                  0          :
          ...................................................

 iter      E             dE          RMSdq      gap      omega  full diag
   1   -131.2571044 -0.131257E+03  0.452E+00    0.90       0.0  T
   2   -131.4340608 -0.176956E+00  0.330E+00    0.91       1.0  T
   3   -131.4833812 -0.493204E-01  0.191E+00    1.08       1.0  T
   4   -131.5426679 -0.592867E-01  0.685E-01    0.95       1.0  T
   5   -131.5749069 -0.322390E-01  0.207E-01    1.03       1.0  T
   6   -131.5782734 -0.336653E-02  0.769E-02    1.01       1.0  T
   7   -131.5783917 -0.118336E-03  0.450E-02    1.01       1.0  T
   8   -131.5785224 -0.130692E-03  0.192E-02    1.01       1.0  T
   9   -131.5785343 -0.118354E-04  0.108E-02    1.01       1.1  T
  10   -131.5785413 -0.701056E-05  0.361E-03    1.01       3.2  T
  11   -131.5785420 -0.693804E-06  0.140E-03    1.01       8.3  T
  12   -131.5785421 -0.116165E-06  0.594E-04    1.01      19.6  T
  13   -131.5785421 -0.999896E-08  0.340E-04    1.01      34.2  T

   *** convergence criteria satisfied after 13 iterations ***

         #    Occupation            Energy/Eh            Energy/eV
      -------------------------------------------------------------
         1        2.0000           -0.6668640             -18.1463
       ...           ...                  ...                  ...
       114        2.0000           -0.3760995             -10.2342
       115        2.0000           -0.3736084             -10.1664
       116        2.0000           -0.3633191              -9.8864
       117        2.0000           -0.3483891              -9.4802
       118        2.0000           -0.3409812              -9.2786
       119        2.0000           -0.3275282              -8.9125
       120        2.0000           -0.2959412              -8.0530 (HOMO)
       121                         -0.2588045              -7.0424 (LUMO)
       122                         -0.2531769              -6.8893
       123                         -0.2434851              -6.6256
       124                         -0.2368367              -6.4447
       125                         -0.2307386              -6.2787
       ...                                ...                  ...
       236                          0.7568218              20.5942
      -------------------------------------------------------------
                  HL-Gap            0.0371367 Eh            1.0105 eV
             Fermi-level           -0.2773742 Eh           -7.5477 eV

 SCC (total)                   0 d,  0 h,  0 min,  0.280 sec
 SCC setup                      ...        0 min,  0.001 sec (  0.357%)
 Dispersion                     ...        0 min,  0.002 sec (  0.714%)
 classical contributions        ...        0 min,  0.001 sec (  0.357%)
 integral evaluation            ...        0 min,  0.015 sec (  5.357%)
 iterations                     ...        0 min,  0.202 sec ( 72.143%)
 molecular gradient             ...        0 min,  0.058 sec ( 20.714%)
 printout                       ...        0 min,  0.001 sec (  0.357%)

         :::::::::::::::::::::::::::::::::::::::::::::::::::::
         ::                     SUMMARY                     ::
         :::::::::::::::::::::::::::::::::::::::::::::::::::::
         :: total energy            -129.294424134965 Eh    ::
         :: gradient norm              0.037315402739 Eh/a0 ::
         :: HOMO-LUMO gap              1.010541879501 eV    ::
         ::.................................................::
         :: SCC energy              -131.580697481145 Eh    ::
         :: -> isotropic ES            0.019654814748 Eh    ::
         :: -> anisotropic ES          0.019282574560 Eh    ::
         :: -> anisotropic XC          0.051394558114 Eh    ::
         :: -> dispersion             -0.135905252421 Eh    ::
         :: repulsion energy           2.286273346180 Eh    ::
         :: add. restraining           0.000000000000 Eh    ::
         :: total charge              -0.000000000017 e     ::
         :::::::::::::::::::::::::::::::::::::::::::::::::::::

      ----------------------------------------------------------- 
     |                   =====================                   |
     |                        A N C O P T                        |
     |                   =====================                   |
     |               Approximate Normal Coordinate               |
     |                Rational Function Optimizer                |
      ----------------------------------------------------------- 
      ----------------------------------------------------------- 
     |                   =====================                   |
     |                        A N C O P T                        |
     |                   =====================                   |
     |               Approximate Normal Coordinate               |
     |                Rational Function Optimizer                |
      ----------------------------------------------------------- 

          ...................................................
          :                      SETUP                      :
          :.................................................:
          :   optimization level            normal          :
          :   max. optcycles                   222          :
          :   ANC micro-cycles                  20          :
          :   degrees of freedom               216          :
          :.................................................:
          :   RF solver                   davidson          :
          :   write xtbopt.log                true          :
          :   linear?                        false          :
          :   energy convergence         0.5000000E-05 Eh   :
          :   grad. convergence          0.1000000E-02 Eh/α :
          :   maxmium RF displ.          1.0000000          :
          :   Hlow (freq-cutoff)         0.1000000E-01      :
          :   Hmax (freq-cutoff)         5.0000000          :
          :   S6 in model hess.         20.0000000          :
          ...................................................

generating ANC from exact Hessian ...
Using Lindh-Hessian (1995)
 Shifting diagonal of input Hessian by   9.681273125181919E-003
 Lowest  eigenvalues of input Hessian
    0.000000    0.000000    0.000000    0.000000    0.000000    0.000000
    0.010000    0.010305    0.010729    0.011043    0.011413    0.012925
    0.013793    0.014427    0.015084    0.016120    0.017212    0.017781
 Highest eigenvalues
    2.099188    2.109820    2.144284    2.159206    2.164714    2.191456
 

........................................................................
.............................. CYCLE    1 ..............................
........................................................................

 iter      E             dE          RMSdq      gap      omega  full diag
   1   -131.5785421 -0.131579E+03  0.106E-04    1.01       0.0  T
   2   -131.5785421 -0.468674E-10  0.810E-05    1.01     143.5  T
   3   -131.5785421 -0.458158E-09  0.414E-05    1.01     280.6  T
     SCC iter.                  ...        0 min,  0.051 sec
     gradient                   ...        0 min,  0.042 sec
 * total energy  :  -129.2944241 Eh     change       -0.5115510E-08 Eh
   gradient norm :     0.0373176 Eh/α   predicted     0.0000000E+00 (-100.00%)
   displ. norm   :     0.3954172 α      lambda       -0.1045237E-01
   maximum displ.:     0.3563246 α      in ANC's #34, #50, #16, ...

........................................................................
.............................. CYCLE    2 ..............................
........................................................................

 iter      E             dE          RMSdq      gap      omega  full diag
   1   -131.6787429 -0.131679E+03  0.132E-01    1.02       0.0  T
   2   -131.6787598 -0.169625E-04  0.783E-02    1.02       1.0  T
   3   -131.6786510  0.108834E-03  0.497E-02    1.02       1.0  T
   4   -131.6787856 -0.134630E-03  0.546E-03    1.02       2.1  T
   5   -131.6787874 -0.177347E-05  0.269E-03    1.02       4.3  T
   6   -131.6787878 -0.390958E-06  0.137E-03    1.02       8.5  T
   7   -131.6787878 -0.530943E-07  0.737E-04    1.02      15.8  T
   8   -131.6787879 -0.309285E-07  0.298E-04    1.02      39.1  T
     SCC iter.                  ...        0 min,  0.107 sec
     gradient                   ...        0 min,  0.045 sec
 * total energy  :  -129.3017341 Eh     change       -0.7310006E-02 Eh
   gradient norm :     0.0138674 Eh/α   predicted    -0.6043381E-02 ( -17.33%)
   displ. norm   :     0.2761474 α      lambda       -0.2797864E-02
   maximum displ.:     0.2521077 α      in ANC's #34, #16, #50, ...

........................................................................
.............................. CYCLE    3 ..............................
........................................................................

 iter      E             dE          RMSdq      gap      omega  full diag
   1   -131.7384342 -0.131738E+03  0.871E-02    1.02       0.0  T
   2   -131.7384463 -0.120492E-04  0.519E-02    1.02       1.0  T
   3   -131.7384030  0.432859E-04  0.335E-02    1.02       1.0  T
   4   -131.7384582 -0.552096E-04  0.557E-03    1.02       2.1  T
   5   -131.7384605 -0.225711E-05  0.280E-03    1.02       4.2  T
   6   -131.7384611 -0.669462E-06  0.980E-04    1.02      11.9  T
   7   -131.7384612 -0.301236E-07  0.538E-04    1.02      21.6  T
     SCC iter.                  ...        0 min,  0.104 sec
     gradient                   ...        0 min,  0.049 sec
 * total energy  :  -129.3032454 Eh     change       -0.1511204E-02 Eh
   gradient norm :     0.0040930 Eh/α   predicted    -0.1505798E-02 (  -0.36%)
   displ. norm   :     0.0365135 α      lambda       -0.5863260E-04
   maximum displ.:     0.0266275 α      in ANC's #34, #16, #28, ...

........................................................................
.............................. CYCLE    4 ..............................
........................................................................

 iter      E             dE          RMSdq      gap      omega  full diag
   1   -131.7421190 -0.131742E+03  0.124E-02    1.02       0.0  T
   2   -131.7421194 -0.365001E-06  0.756E-03    1.02       1.5  T
   3   -131.7421184  0.958506E-06  0.511E-03    1.02       2.3  T
   4   -131.7421197 -0.130539E-05  0.136E-03    1.02       8.5  T
   5   -131.7421199 -0.155011E-06  0.510E-04    1.02      22.8  T
   6   -131.7421199 -0.221902E-07  0.153E-04    1.02      76.2  T
     SCC iter.                  ...        0 min,  0.088 sec
     gradient                   ...        0 min,  0.045 sec
 * total energy  :  -129.3032835 Eh     change       -0.3809934E-04 Eh
   gradient norm :     0.0021733 Eh/α   predicted    -0.2948456E-04 ( -22.61%)
   displ. norm   :     0.0159657 α      lambda       -0.1542473E-04
   maximum displ.:     0.0082598 α      in ANC's #16, #75, #34, ...

........................................................................
.............................. CYCLE    5 ..............................
........................................................................

 iter      E             dE          RMSdq      gap      omega  full diag
   1   -131.7420253 -0.131742E+03  0.710E-03    1.02       0.0  T
   2   -131.7420255 -0.120266E-06  0.415E-03    1.02       2.8  T
   3   -131.7420252  0.219811E-06  0.288E-03    1.02       4.0  T
   4   -131.7420256 -0.365465E-06  0.537E-04    1.02      21.6  T
   5   -131.7420256 -0.191781E-07  0.257E-04    1.02      45.3  T
     SCC iter.                  ...        0 min,  0.077 sec
     gradient                   ...        0 min,  0.053 sec
 * total energy  :  -129.3032931 Eh     change       -0.9639965E-05 Eh
   gradient norm :     0.0010688 Eh/α   predicted    -0.7765853E-05 ( -19.44%)
   displ. norm   :     0.0086422 α      lambda       -0.3071731E-05
   maximum displ.:     0.0043439 α      in ANC's #75, #76, #78, ...

........................................................................
.............................. CYCLE    6 ..............................
........................................................................

 iter      E             dE          RMSdq      gap      omega  full diag
   1   -131.7411847 -0.131741E+03  0.454E-03    1.02       0.0  T
   2   -131.7411847 -0.585514E-07  0.255E-03    1.02       4.6  T
   3   -131.7411847  0.436744E-07  0.185E-03    1.02       6.3  T
   4   -131.7411848 -0.115546E-06  0.310E-04    1.02      37.5  T
   5   -131.7411848 -0.802240E-08  0.140E-04    1.02      83.0  T
     SCC iter.                  ...        0 min,  0.077 sec
     gradient                   ...        0 min,  0.049 sec
 * total energy  :  -129.3032952 Eh     change       -0.2104010E-05 Eh
   gradient norm :     0.0004542 Eh/α   predicted    -0.1537126E-05 ( -26.94%)
   displ. norm   :     0.0033941 α      lambda       -0.3520443E-06
   maximum displ.:     0.0024114 α      in ANC's #16, #34, #28, ...

   *** GEOMETRY OPTIMIZATION CONVERGED AFTER 6 ITERATIONS ***

------------------------------------------------------------------------
 total energy gain   :        -0.0088711 Eh       -5.5667 kcal/mol
 total RMSD          :         0.0816536 a0        0.0432 Å
 total power (kW/mol):        -3.8818271 (step)  -24.3375 (real)
------------------------------------------------------------------------

 ANCopt (total)                0 d,  0 h,  0 min,  0.957 sec
 optimizer setup                ...        0 min,  0.000 sec (  0.000%)
 model hessian                  ...        0 min,  0.050 sec (  5.225%)
 ANC generation                 ...        0 min,  0.009 sec (  0.940%)
 coordinate transformation      ...        0 min,  0.000 sec (  0.000%)
 single point calculation       ...        0 min,  0.886 sec ( 92.581%)
 optimization log               ...        0 min,  0.011 sec (  1.149%)
 hessian update                 ...        0 min,  0.000 sec (  0.000%)
 rational function              ...        0 min,  0.001 sec (  0.104%)

================
 final structure:
================
74
 xtb: 6.7.1pre (5071a88)
C           -5.67249470271332        3.63066635470820       -0.00028351367809
C           -0.71794630274976        4.88916439938367       -0.00013170225529
C           -4.97503886405045        4.78321947291081       -0.00031157546612
C           -2.85998511221119        3.63736801300054       -0.00018286940388
C           -4.97668116151882        2.37437124254132       -0.00017946076569
C            4.94318186385531        4.84372070715638        0.00040346213396
C            0.63378935001519        4.89864361658720       -0.00003793905859
C            0.71826749746370       -4.89755315929570       -0.00005257529539
C            2.80445149648588        3.70329159174508        0.00016691644585
N           -5.57305476178207       -1.24506507247233        0.00013334223566
C            4.92941437836236        2.44738368313994        0.00023236468689
C           -3.51427840836319       -2.48426763015114        0.00015173317997
C           -1.39588732044663       -3.70895739358806        0.00008252775885
C           -1.46156244672235        3.67331917206884       -0.00013399061826
C            0.68966933582918        2.46204325314172       -0.00001259437442
C            2.81396976784664        1.24179900530728        0.00005483022817
C           -5.65019534997398       -3.63941683194096        0.00041756193148
C            4.94605251838194        0.02782214204962        0.00002859000917
C           -3.59949300975322       -4.90039956581352        0.00037718373977
C           -3.55764287337765        2.40853880219273       -0.00015361814658
C            4.98564950311569       -2.39831681910168       -0.00017261767354
C           -1.41445746478082        1.21446427882742       -0.00007525289156
C            0.70263626113569        0.00036480228049       -0.00003673242159
C            2.82970714935189       -1.21265311897072       -0.00007158103907
C           -5.63935333304092        1.15743143430115       -0.00009418844666
C            2.86590368249063       -3.65017616220048       -0.00020058784693
C           -3.52103325721673       -0.03149833684251       -0.00002036317627
C            4.97075702655806       -4.81069644520367       -0.00037942006542
C           -1.40049131131002       -1.25018342426878        0.00001142155458
C            0.72958717787824       -2.46461164807312       -0.00004829636840
C            3.59811506469263        4.90266830045719        0.00030447036411
C           -4.92494993519988       -0.03864380290795        0.00000427999797
C           -2.79857530705207       -1.25906411718160        0.00004259404494
C           -0.69133999248545       -2.48523963680265       -0.00000116712614
C            1.45665319679663       -3.68716303959718       -0.00010384386057
C            1.40092627713472        3.69856306826749        0.00004263729218
C            3.50849824074693        2.47145514033576        0.00015709638397
C           -4.92943694074911       -2.46024565978607        0.00023429256154
C            5.62168541733509        1.26119648883556        0.00015484669003
C           -2.82837175739994       -3.72106057685751        0.00020347611786
C           -0.63951386384768       -4.90523765405320        0.00005898142290
C           -0.72577911084044        2.44927287455615       -0.00007995839745
C            1.39887341930244        1.23568029670876        0.00000170471708
C            3.53235447360983        0.01937612155848        0.00000572841431
C           -4.97052569220115       -4.85445960564169        0.00049324716321
C            5.64625959283345       -1.19632607847111       -0.00007550150963
C           -2.82667533745120        1.19867689479524       -0.00009083458813
C            5.67127134387262       -3.66282417229428       -0.00029407494492
C           -0.69914504629752       -0.01164595626580       -0.00003717963941
C            1.41989612678720       -1.23041028828090       -0.00006425207844
C            3.55464559482879       -2.42814679339489       -0.00014886939097
H           -6.74974982129030        3.63852093603516       -0.00033815196914
H            1.23192027837451       -5.84960301305138       -0.00007616496512
H           -6.73051294064074       -3.61354324658489        0.00050432273538
H           -3.11808095139173       -5.86428820643723        0.00043204713538
H           -6.72012528690980        1.13546461160937       -0.00009809596511
H            5.44106207735855       -5.78284634388324       -0.00048139644768
H            3.11850269530457       -5.69274606182969       -0.00043353411763
H           -1.14769719637080       -5.85600305888419        0.00011650462101
H           -5.53836285513374       -5.77369650099336        0.00064066031887
H           -3.13145489481775        5.67815149173535       -0.00025090356219
H           -1.23609818822476        5.83916755922328       -0.00020414460896
H           -5.45367448838531        5.75134777498634       -0.00038370251049
H            5.56297358190286        5.72774072251560        0.00051832321658
H            1.14245316187004        5.84961547324045       -0.00004126879958
H            3.12617751832343        5.86911704134744        0.00034099206308
H            6.70322582549857        1.26863279608709        0.00019422724039
H            6.72695530817675       -1.17873248805064       -0.00007964350415
H            6.74877263158888       -3.67473847940979       -0.00032038046485
N            5.60405423047455        3.65171214572127        0.00039211290246
N           -3.61628146870045        4.79561376143124       -0.00024302233308
N            3.60823672566772       -4.81334945960074       -0.00032970978266
H            6.61162414757353        3.62839168289850        0.00035966236410
H           -6.58280318342375       -1.24610530550543        0.00018053788634
 
 Bond Distances (Angstroems)
 ---------------------------
C1-C3=1.3472         C1-C5=1.4361         C1-H52=1.0773        C2-C7=1.3518         C2-C14=1.4252        C2-H62=1.0821        
C3-C1=1.3472         C3-H63=1.0800        C3-N71=1.3588        C4-C14=1.3989        C4-C20=1.4131        C4-N71=1.3833        
C5-C1=1.4361         C5-C20=1.4194        C5-C25=1.3857        C6-C31=1.3464        C6-H64=1.0796        C6-N70=1.3630        
C7-C2=1.3518         C7-C36=1.4243        C7-H65=1.0785        C8-C35=1.4178        C8-C41=1.3578        C8-H53=1.0818        
C9-C31=1.4382        C9-C36=1.4035        C9-C37=1.4188        N10-C32=1.3695       N10-C38=1.3751       N10-H74=1.0097       
C11-C37=1.4211       C11-C39=1.3734       C11-N70=1.3804       C12-C33=1.4189       C12-C38=1.4154       C12-C40=1.4143       
C13-C34=1.4120       C13-C40=1.4325       C13-C41=1.4153       C14-C2=1.4252        C14-C4=1.3989        C14-C42=1.4282       
C15-C36=1.4265       C15-C42=1.4155       C15-C43=1.4167       C16-C37=1.4122       C16-C43=1.4151       C16-C44=1.4179       
C17-C38=1.3820       C17-C45=1.3922       C17-H54=1.0806       C18-C39=1.4063       C18-C44=1.4137       C18-C46=1.4103       
C19-C40=1.4091       C19-C45=1.3718       C19-H55=1.0774       C20-C4=1.4131        C20-C5=1.4194        C20-C47=1.4135       
C21-C46=1.3716       C21-C48=1.4384       C21-C51=1.4313       C22-C42=1.4139       C22-C47=1.4123       C22-C49=1.4195       
C23-C43=1.4180       C23-C49=1.4018       C23-C50=1.4245       C24-C44=1.4183       C24-C50=1.4099       C24-C51=1.4153       
C25-C5=1.3857        C25-C32=1.3932       C25-H56=1.0810       C26-C35=1.4097       C26-C51=1.4028       C26-N72=1.3799       
C27-C32=1.4039       C27-C33=1.4244       C27-C47=1.4126       C28-C48=1.3447       C28-H57=1.0799       C28-N72=1.3625       
C29-C33=1.3981       C29-C34=1.4242       C29-C49=1.4233       C30-C34=1.4211       C30-C35=1.4224       C30-C50=1.4141       
C31-C6=1.3464        C31-C9=1.4382        C31-H66=1.0755       C32-N10=1.3695       C32-C25=1.3932       C32-C27=1.4039       
C33-C12=1.4189       C33-C27=1.4244       C33-C29=1.3981       C34-C13=1.4120       C34-C29=1.4242       C34-C30=1.4211       
C35-C8=1.4178        C35-C26=1.4097       C35-C30=1.4224       C36-C7=1.4243        C36-C9=1.4035        C36-C15=1.4265       
C37-C9=1.4188        C37-C11=1.4211       C37-C16=1.4122       C38-N10=1.3751       C38-C12=1.4154       C38-C17=1.3820       
C39-C11=1.3734       C39-C18=1.4063       C39-H67=1.0816       C40-C12=1.4143       C40-C13=1.4325       C40-C19=1.4091       
C41-C8=1.3578        C41-C13=1.4153       C41-H59=1.0781       C42-C14=1.4282       C42-C15=1.4155       C42-C22=1.4139       
C43-C15=1.4167       C43-C16=1.4151       C43-C23=1.4180       C44-C16=1.4179       C44-C18=1.4137       C44-C24=1.4183       
C45-C17=1.3922       C45-C19=1.3718       C45-H60=1.0805       C46-C18=1.4103       C46-C21=1.3716       C46-H68=1.0808       
C47-C20=1.4135       C47-C22=1.4123       C47-C27=1.4126       C48-C21=1.4384       C48-C28=1.3447       C48-H69=1.0776       
C49-C22=1.4195       C49-C23=1.4018       C49-C29=1.4233       C50-C23=1.4245       C50-C24=1.4099       C50-C30=1.4141       
C51-C21=1.4313       C51-C24=1.4153       C51-C26=1.4028       H52-C1=1.0773        H53-C8=1.0818        H54-C17=1.0806       
H55-C19=1.0774       H56-C25=1.0810       H57-C28=1.0799       H58-N72=1.0066       H59-C41=1.0781       H60-C45=1.0805       
H61-N71=1.0069       H62-C2=1.0821        H63-C3=1.0800        H64-C6=1.0796        H65-C7=1.0785        H66-C31=1.0755       
H67-C39=1.0816       H68-C46=1.0808       H69-C48=1.0776       N70-C6=1.3630        N70-C11=1.3804       N70-H73=1.0078       
N71-C3=1.3588        N71-C4=1.3833        N71-H61=1.0069       N72-C26=1.3799       N72-C28=1.3625       N72-H58=1.0066       
H73-N70=1.0078       H74-N10=1.0097       
 C  H  Rav=1.0795 sigma=0.0019  Rmin=1.0755  Rmax=1.0821    16
 C  C  Rav=1.4077 sigma=0.0222  Rmin=1.3447  Rmax=1.4384    63
 N  H  Rav=1.0078 sigma=0.0012  Rmin=1.0066  Rmax=1.0097     4
 N  C  Rav=1.3716 sigma=0.0088  Rmin=1.3588  Rmax=1.3833     8
 
 selected bond angles (degree)
 --------------------
C5-C1-C3=119.84                H52-C1-C3=120.76               H52-C1-C5=119.40               C14-C2-C7=121.85               
H62-C2-C7=118.21               H62-C2-C14=119.94              H63-C3-C1=122.51               N71-C3-C1=121.70               
N71-C3-H63=115.78              C20-C4-C14=121.06              N71-C4-C14=121.67              N71-C4-C20=117.27              
C20-C5-C1=117.60               C25-C5-C1=122.45               C25-C5-C20=119.95              H64-C6-C31=122.53              
N70-C6-C31=121.51              N70-C6-H64=115.96              C36-C7-C2=122.19               H65-C7-C2=118.54               
H65-C7-C36=119.27              C41-C8-C35=121.71              H53-C8-C35=120.27              H53-C8-C41=118.02              
C36-C9-C31=123.69              C37-C9-C31=116.76              C37-C9-C36=119.56              C38-N10-C32=123.85             
H74-N10-C32=118.30             H74-N10-C38=117.85             
 
 selected dihedral angles (degree)
 ---------------------------------
H63-C3-C1-C5=180.00           H63-C3-C1-H52=  0.00          N71-C3-C1-C5=  0.00           N71-C3-C1-H52=180.00          
C20-C5-C1-C3=  0.00           C20-C5-C1-H52=180.00          C25-C5-C1-C3=180.00           C25-C5-C1-H52=  0.00          
C36-C7-C2-C14=  0.00          C36-C7-C2-H62=180.00          H65-C7-C2-C14=180.00          H65-C7-C2-H62=  0.00          
           -------------------------------------------------
          |                Final Singlepoint                |
           -------------------------------------------------

          ...................................................
          :                      SETUP                      :
          :.................................................:
          :  # basis functions                 236          :
          :  # atomic orbitals                 236          :
          :  # shells                          128          :
          :  # electrons                       240          :
          :  max. iterations                   250          :
          :  Hamiltonian                  GFN2-xTB          :
          :  restarted?                      false          :
          :  GBSA solvation                  false          :
          :  PC potential                    false          :
          :  electronic temp.          300.0000000     K    :
          :  accuracy                    1.0000000          :
          :  -> integral cutoff          0.2500000E+02      :
          :  -> integral neglect         0.1000000E-07      :
          :  -> SCF convergence          0.1000000E-05 Eh   :
          :  -> wf. convergence          0.1000000E-03 e    :
          :  Broyden damping             0.4000000          :
          :  net charge                          0          :
          :  unpaired electrons                  0          :
          ...................................................

 iter      E             dE          RMSdq      gap      omega  full diag
   1   -131.7411848 -0.131741E+03  0.706E-05    1.02       0.0  T
   2   -131.7411848  0.130342E-09  0.641E-05    1.02     181.3  T
   3   -131.7411848 -0.312696E-09  0.293E-05    1.02     397.0  T

   *** convergence criteria satisfied after 3 iterations ***

         #    Occupation            Energy/Eh            Energy/eV
      -------------------------------------------------------------
         1        2.0000           -0.6700685             -18.2335
       ...           ...                  ...                  ...
       114        2.0000           -0.3749854             -10.2039
       115        2.0000           -0.3743640             -10.1870
       116        2.0000           -0.3641491              -9.9090
       117        2.0000           -0.3490778              -9.4989
       118        2.0000           -0.3410550              -9.2806
       119        2.0000           -0.3272532              -8.9050
       120        2.0000           -0.2948146              -8.0223 (HOMO)
       121                         -0.2572397              -6.9998 (LUMO)
       122                         -0.2518056              -6.8520
       123                         -0.2416278              -6.5750
       124                         -0.2343573              -6.3772
       125                         -0.2282209              -6.2102
       ...                                ...                  ...
       236                          0.7935806              21.5944
      -------------------------------------------------------------
                  HL-Gap            0.0375749 Eh            1.0225 eV
             Fermi-level           -0.2760287 Eh           -7.5111 eV

 SCC (total)                   0 d,  0 h,  0 min,  0.108 sec
 SCC setup                      ...        0 min,  0.001 sec (  0.926%)
 Dispersion                     ...        0 min,  0.001 sec (  0.926%)
 classical contributions        ...        0 min,  0.000 sec (  0.000%)
 integral evaluation            ...        0 min,  0.013 sec ( 12.037%)
 iterations                     ...        0 min,  0.042 sec ( 38.889%)
 molecular gradient             ...        0 min,  0.049 sec ( 45.370%)
 printout                       ...        0 min,  0.002 sec (  1.852%)

         :::::::::::::::::::::::::::::::::::::::::::::::::::::
         ::                     SUMMARY                     ::
         :::::::::::::::::::::::::::::::::::::::::::::::::::::
         :: total energy            -129.303295195352 Eh    ::
         :: gradient norm              0.000452901881 Eh/a0 ::
         :: HOMO-LUMO gap              1.022466389567 eV    ::
         ::.................................................::
         :: SCC energy              -131.743352254136 Eh    ::
         :: -> isotropic ES            0.020233546667 Eh    ::
         :: -> anisotropic ES          0.018540014980 Eh    ::
         :: -> anisotropic XC          0.048024969126 Eh    ::
         :: -> dispersion             -0.137693751043 Eh    ::
         :: repulsion energy           2.440057058784 Eh    ::
         :: add. restraining           0.000000000000 Eh    ::
         :: total charge              -0.000000000017 e     ::
         :::::::::::::::::::::::::::::::::::::::::::::::::::::

           -------------------------------------------------
          |                Property Printout                |
           -------------------------------------------------

    * Orbital Energies and Occupations

         #    Occupation            Energy/Eh            Energy/eV
      -------------------------------------------------------------
         1        2.0000           -0.6700685             -18.2335
       ...           ...                  ...                  ...
       108        2.0000           -0.3954718             -10.7613
       109        2.0000           -0.3929604             -10.6930
       110        2.0000           -0.3884979             -10.5716
       111        2.0000           -0.3851050             -10.4792
       112        2.0000           -0.3815282             -10.3819
       113        2.0000           -0.3767070             -10.2507
       114        2.0000           -0.3749854             -10.2039
       115        2.0000           -0.3743640             -10.1870
       116        2.0000           -0.3641491              -9.9090
       117        2.0000           -0.3490778              -9.4989
       118        2.0000           -0.3410550              -9.2806
       119        2.0000           -0.3272532              -8.9050
       120        2.0000           -0.2948146              -8.0223 (HOMO)
       121                         -0.2572397              -6.9998 (LUMO)
       122                         -0.2518056              -6.8520
       123                         -0.2416278              -6.5750
       124                         -0.2343573              -6.3772
       125                         -0.2282209              -6.2102
       126                         -0.2218325              -6.0364
       127                         -0.2128809              -5.7928
       128                         -0.2054374              -5.5902
       129                         -0.2024773              -5.5097
       130                         -0.1965244              -5.3477
       131                         -0.1924603              -5.2371
       ...                                ...                  ...
       236                          0.7935806              21.5944
      -------------------------------------------------------------
                  HL-Gap            0.0375749 Eh            1.0225 eV
             Fermi-level           -0.2760287 Eh           -7.5111 eV

     #   Z          covCN         q      C6AA      α(0)
     1   6 C        2.912    -0.066    29.653     8.929
     2   6 C        2.912    -0.046    29.152     8.854
     3   6 C        2.846     0.024    27.461     8.588
     4   6 C        2.916     0.047    26.939     8.511
     5   6 C        2.983     0.015    27.663     8.627
     6   6 C        2.846     0.019    27.585     8.608
     7   6 C        2.913    -0.042    29.039     8.837
     8   6 C        2.913    -0.046    29.135     8.851
     9   6 C        2.978     0.001    28.004     8.680
    10   7 N        2.706    -0.123    23.679     7.227
    11   6 C        2.917     0.059    26.670     8.469
    12   6 C        2.995    -0.008    28.207     8.712
    13   6 C        2.978    -0.006    28.166     8.706
    14   6 C        2.977    -0.028    28.704     8.788
    15   6 C        2.988    -0.001    28.055     8.688
    16   6 C        2.990    -0.003    28.094     8.695
    17   6 C        2.919    -0.074    29.852     8.960
    18   6 C        2.980     0.010    27.788     8.647
    19   6 C        2.918    -0.053    29.325     8.880
    20   6 C        2.994    -0.011    28.274     8.722
    21   6 C        2.979     0.012    27.748     8.641
    22   6 C        2.989    -0.009    28.223     8.715
    23   6 C        2.989    -0.009    28.223     8.715
    24   6 C        2.990    -0.003    28.090     8.694
    25   6 C        2.920    -0.084    30.109     8.998
    26   6 C        2.917     0.050    26.886     8.503
    27   6 C        2.994    -0.017    28.419     8.745
    28   6 C        2.846     0.021    27.532     8.600
    29   6 C        2.988    -0.008    28.201     8.711
    30   6 C        2.990    -0.000    28.030     8.685
    31   6 C        2.911    -0.064    29.585     8.919
    32   6 C        2.915     0.064    26.570     8.453
    33   6 C        2.990    -0.001    28.053     8.688
    34   6 C        2.989     0.001    27.994     8.679
    35   6 C        2.979    -0.024    28.599     8.772
    36   6 C        2.977    -0.011    28.276     8.722
    37   6 C        2.993    -0.008    28.208     8.712
    38   6 C        2.917     0.064    26.574     8.453
    39   6 C        2.922    -0.087    30.179     9.009
    40   6 C        2.978     0.001    27.999     8.680
    41   6 C        2.916    -0.041    29.018     8.833
    42   6 C        2.990    -0.002    28.058     8.689
    43   6 C        2.988    -0.005    28.128     8.700
    44   6 C        2.993    -0.012    28.299     8.726
    45   6 C        2.916    -0.033    28.812     8.802
    46   6 C        2.921    -0.068    29.682     8.934
    47   6 C        2.993    -0.003    28.097     8.695
    48   6 C        2.911    -0.065    29.607     8.922
    49   6 C        2.989    -0.008    28.218     8.714
    50   6 C        2.987    -0.011    28.293     8.725
    51   6 C        2.993    -0.008    28.217     8.714
    52   1 H        0.926     0.034     2.535     2.490
    53   1 H        0.925     0.007     2.942     2.682
    54   1 H        0.926     0.014     2.824     2.628
    55   1 H        0.926     0.025     2.663     2.552
    56   1 H        0.926     0.018     2.767     2.601
    57   1 H        0.926     0.031     2.567     2.506
    58   1 H        0.860     0.167     1.288     1.778
    59   1 H        0.926     0.025     2.665     2.553
    60   1 H        0.926     0.023     2.692     2.566
    61   1 H        0.860     0.169     1.276     1.769
    62   1 H        0.925     0.003     2.998     2.708
    63   1 H        0.926     0.034     2.525     2.485
    64   1 H        0.926     0.029     2.596     2.520
    65   1 H        0.926     0.020     2.728     2.583
    66   1 H        0.926     0.032     2.556     2.500
    67   1 H        0.925     0.012     2.850     2.640
    68   1 H        0.926     0.017     2.776     2.606
    69   1 H        0.926     0.033     2.548     2.496
    70   7 N        2.703    -0.110    23.411     7.186
    71   7 N        2.702    -0.101    23.231     7.159
    72   7 N        2.702    -0.104    23.290     7.167
    73   1 H        0.860     0.161     1.332     1.808
    74   1 H        0.860     0.161     1.326     1.804

 Mol. C6AA /au·bohr⁶  :      99929.389266
 Mol. C8AA /au·bohr⁸  :    2651406.445158
 Mol. α(0) /au        :        513.313211


Wiberg/Mayer (AO) data.
largest (>0.10) Wiberg bond orders for each atom

 ---------------------------------------------------------------------------
     #   Z sym  total        # sym  WBO       # sym  WBO       # sym  WBO
 ---------------------------------------------------------------------------
     1   6 C    3.952 --     3 C    1.649     5 C    1.159    52 H    0.968
     2   6 C    3.955 --     7 C    1.638    14 C    1.204    62 H    0.958
     3   6 C    3.954 --     1 C    1.649    71 N    1.208    63 H    0.966
     4   6 C    3.889 --    14 C    1.319    20 C    1.251    71 N    1.119
     5   6 C    3.950 --    25 C    1.398    20 C    1.238     1 C    1.159
     6   6 C    3.927 --    31 C    1.655    70 N    1.186    64 H    0.966
     7   6 C    3.967 --     2 C    1.638    36 C    1.208    65 H    0.962
     8   6 C    3.956 --    41 C    1.592    35 C    1.239    53 H    0.958
     9   6 C    3.923 --    36 C    1.314    37 C    1.249    31 C    1.166
    10   7 N    3.481 --    32 C    1.152    38 C    1.136    74 H    0.939
    11   6 C    3.937 --    39 C    1.447    37 C    1.216    70 N    1.116
    12   6 C    3.973 --    40 C    1.273    38 C    1.245    33 C    1.223
    13   6 C    3.957 --    34 C    1.296    41 C    1.251    40 C    1.194
    14   6 C    3.962 --     4 C    1.319    42 C    1.213     2 C    1.204
    15   6 C    3.971 --    42 C    1.270    43 C    1.256    36 C    1.223
    16   6 C    3.976 --    37 C    1.264    43 C    1.249    44 C    1.239
    17   6 C    3.946 --    38 C    1.402    45 C    1.370    54 H    0.968
    18   6 C    3.959 --    39 C    1.280    46 C    1.263    44 C    1.257
    19   6 C    3.965 --    45 C    1.508    40 C    1.301    55 H    0.963
    20   6 C    3.975 --     4 C    1.251    47 C    1.248     5 C    1.238
    21   6 C    3.967 --    46 C    1.478    51 C    1.186    48 C    1.149
    22   6 C    3.979 --    42 C    1.262    47 C    1.255    49 C    1.229
    23   6 C    3.961 --    49 C    1.298    43 C    1.238    50 C    1.205
    24   6 C    3.972 --    50 C    1.270    51 C    1.246    44 C    1.235
    25   6 C    3.961 --     5 C    1.398    32 C    1.336    56 H    0.966
    26   6 C    3.903 --    51 C    1.303    35 C    1.266    72 N    1.130
    27   6 C    3.974 --    32 C    1.276    47 C    1.249    33 C    1.195
    28   6 C    3.952 --    48 C    1.665    72 N    1.192    57 H    0.966
    29   6 C    3.980 --    33 C    1.319    34 C    1.213    49 C    1.211
    30   6 C    3.973 --    50 C    1.264    34 C    1.246    35 C    1.238
    31   6 C    3.968 --     6 C    1.655     9 C    1.166    66 H    0.961
    32   6 C    3.924 --    25 C    1.336    27 C    1.276    10 N    1.152
    33   6 C    3.961 --    29 C    1.319    12 C    1.223    27 C    1.195
    34   6 C    3.982 --    13 C    1.296    30 C    1.246    29 C    1.213
    35   6 C    3.964 --    26 C    1.266     8 C    1.239    30 C    1.238
    36   6 C    3.969 --     9 C    1.314    15 C    1.223     7 C    1.208
    37   6 C    3.961 --    16 C    1.264     9 C    1.249    11 C    1.216
    38   6 C    3.958 --    17 C    1.402    12 C    1.245    10 N    1.136
    39   6 C    3.942 --    11 C    1.447    18 C    1.280    67 H    0.965
    40   6 C    3.962 --    19 C    1.301    12 C    1.273    13 C    1.194
    41   6 C    3.970 --     8 C    1.592    13 C    1.251    59 H    0.962
    42   6 C    3.965 --    15 C    1.270    22 C    1.262    14 C    1.213
    43   6 C    3.978 --    15 C    1.256    16 C    1.249    23 C    1.238
    44   6 C    3.976 --    18 C    1.257    16 C    1.239    24 C    1.235
    45   6 C    3.974 --    19 C    1.508    17 C    1.370    60 H    0.971
    46   6 C    3.963 --    21 C    1.478    18 C    1.263    68 H    0.967
    47   6 C    3.975 --    22 C    1.255    27 C    1.249    20 C    1.248
    48   6 C    3.959 --    28 C    1.665    21 C    1.149    69 H    0.968
    49   6 C    3.962 --    23 C    1.298    22 C    1.229    29 C    1.211
    50   6 C    3.981 --    24 C    1.270    30 C    1.264    23 C    1.205
    51   6 C    3.972 --    26 C    1.303    24 C    1.246    21 C    1.186
    52   1 H    0.998 --     1 C    0.968
    53   1 H    0.999 --     8 C    0.958
    54   1 H    0.999 --    17 C    0.968
    55   1 H    0.999 --    19 C    0.963
    56   1 H    0.998 --    25 C    0.966
    57   1 H    0.998 --    28 C    0.966
    58   1 H    0.971 --    72 N    0.932
    59   1 H    0.998 --    41 C    0.962
    60   1 H    0.999 --    45 C    0.971
    61   1 H    0.971 --    71 N    0.931
    62   1 H    0.999 --     2 C    0.958
    63   1 H    0.998 --     3 C    0.966
    64   1 H    0.998 --     6 C    0.966
    65   1 H    0.998 --     7 C    0.962
    66   1 H    0.998 --    31 C    0.961
    67   1 H    0.999 --    39 C    0.965
    68   1 H    0.998 --    46 C    0.967
    69   1 H    0.998 --    48 C    0.968
    70   7 N    3.481 --     6 C    1.186    11 C    1.116    73 H    0.945
    71   7 N    3.500 --     3 C    1.208     4 C    1.119    61 H    0.931
    72   7 N    3.498 --    28 C    1.192    26 C    1.130    58 H    0.932
    73   1 H    0.974 --    70 N    0.945
    74   1 H    0.973 --    10 N    0.939
 ---------------------------------------------------------------------------

Topologies differ in total number of bonds
Writing topology from bond orders to xtbtopo.mol

molecular dipole:
                 x           y           z       tot (Debye)
 q only:        0.058       0.876      -0.000
   full:        0.035       0.959      -0.000       2.438
molecular quadrupole (traceless):
                xx          xy          yy          xz          yz          zz
 q only:       13.601     -12.621      12.850       0.001       0.002     -26.451
  q+dip:       30.763     -11.272      28.831       0.000       0.002     -59.594
   full:       21.281     -12.046      20.436       0.000       0.002     -41.716

           -------------------------------------------------
          |                Geometry Summary                 |
           -------------------------------------------------

      molecular mass/u    :      676.7224228
   center of mass at/Å    :        0.0001519       0.0002652       0.0000026
  moments of inertia/u·Å² :        0.7010398E+04   0.9249002E+04   0.1625940E+05
rotational constants/cm⁻¹ :        0.2404661E-02   0.1822643E-02   0.1036793E-02

 * 88 selected distances

     #   Z          #   Z                                           value/Å
     1   6 C        3   6 C                                       1.3471539
     2   6 C        7   6 C                                       1.3517690
     2   6 C       14   6 C                                       1.4252175
     4   6 C       14   6 C                                       1.3988848
     4   6 C       20   6 C                                       1.4130633
     5   6 C       20   6 C                                       1.4194497
     5   6 C       25   6 C                                       1.3856685
     6   6 C       31   6 C                                       1.3463580
    10   7 N       32   6 C                                       1.3694862
    25   6 C       32   6 C                                       1.3931865
    27   6 C       32   6 C                                       1.4039350
    12   6 C       33   6 C                                       1.4189274
    27   6 C       33   6 C                                       1.4243818
    29   6 C       33   6 C                                       1.3981123
    13   6 C       34   6 C                                       1.4120455
    29   6 C       34   6 C                                       1.4241699
    30   6 C       34   6 C                                       1.4210770
     8   6 C       35   6 C                                       1.4178357
    26   6 C       35   6 C                                       1.4097359
    30   6 C       35   6 C                                       1.4224125
     7   6 C       36   6 C                                       1.4243219
     9   6 C       36   6 C                                       1.4035333
    15   6 C       36   6 C                                       1.4264880
     9   6 C       37   6 C                                       1.4188387
    11   6 C       37   6 C                                       1.4211202
    16   6 C       37   6 C                                       1.4122409
    10   7 N       38   6 C                                       1.3751029
    12   6 C       38   6 C                                       1.4153625
    17   6 C       38   6 C                                       1.3820050
    11   6 C       39   6 C                                       1.3734189
    18   6 C       39   6 C                                       1.4063045
    12   6 C       40   6 C                                       1.4142578
    13   6 C       40   6 C                                       1.4325357 (max)
    19   6 C       40   6 C                                       1.4090667
     8   6 C       41   6 C                                       1.3578032
    13   6 C       41   6 C                                       1.4153401
    14   6 C       42   6 C                                       1.4281691
    15   6 C       42   6 C                                       1.4155062
    22   6 C       42   6 C                                       1.4138708
    15   6 C       43   6 C                                       1.4166640
    16   6 C       43   6 C                                       1.4151097
    23   6 C       43   6 C                                       1.4180095
    16   6 C       44   6 C                                       1.4178839
    18   6 C       44   6 C                                       1.4137234
    24   6 C       44   6 C                                       1.4183123
    17   6 C       45   6 C                                       1.3922213
    19   6 C       45   6 C                                       1.3718023
    18   6 C       46   6 C                                       1.4102586
    21   6 C       46   6 C                                       1.3715640
    20   6 C       47   6 C                                       1.4135345
    22   6 C       47   6 C                                       1.4123062
    27   6 C       47   6 C                                       1.4126091
    28   6 C       48   6 C                                       1.3447421
    22   6 C       49   6 C                                       1.4195135
    23   6 C       49   6 C                                       1.4018329
    29   6 C       49   6 C                                       1.4233278
    23   6 C       50   6 C                                       1.4245243
    24   6 C       50   6 C                                       1.4099230
    30   6 C       50   6 C                                       1.4141357
    21   6 C       51   6 C                                       1.4313149
    24   6 C       51   6 C                                       1.4152600
    26   6 C       51   6 C                                       1.4027550
     1   6 C       52   1 H                                       1.0772839
     8   6 C       53   1 H                                       1.0817755
    17   6 C       54   1 H                                       1.0806275
    19   6 C       55   1 H                                       1.0774224
    25   6 C       56   1 H                                       1.0809953
    28   6 C       57   1 H                                       1.0799363
    41   6 C       59   1 H                                       1.0780563
    45   6 C       60   1 H                                       1.0804794
     2   6 C       62   1 H                                       1.0821218
     3   6 C       63   1 H                                       1.0799837
     6   6 C       64   1 H                                       1.0796450
     7   6 C       65   1 H                                       1.0784649
    31   6 C       66   1 H                                       1.0755224
    39   6 C       67   1 H                                       1.0815661
    46   6 C       68   1 H                                       1.0808390
    48   6 C       69   1 H                                       1.0775673
     6   6 C       70   7 N                                       1.3629516
    11   6 C       70   7 N                                       1.3804153
     3   6 C       71   7 N                                       1.3588141
     4   6 C       71   7 N                                       1.3832996
    61   1 H       71   7 N                                       1.0069408
    26   6 C       72   7 N                                       1.3798662
    28   6 C       72   7 N                                       1.3625230
    58   1 H       72   7 N                                       1.0065674 (min)
    70   7 N       73   1 H                                       1.0078399
    10   7 N       74   1 H                                       1.0097491

 * 4 distinct bonds (by element types)

   Z      Z             #   av. dist./Å        max./Å        min./Å
   1 H    6 C          16     1.0795179     1.0821218     1.0755224
   6 C    6 C          60     1.4062483     1.4325357     1.3447421
   1 H    7 N           4     1.0077743     1.0097491     1.0065674
   6 C    7 N           8     1.3715574     1.3832996     1.3588141


optimized geometry written to: xtbopt.xyz


           -------------------------------------------------
          | TOTAL ENERGY             -129.303295195352 Eh   |
          | GRADIENT NORM               0.000452901881 Eh/α |
          | HOMO-LUMO GAP               1.022466389567 eV   |
           -------------------------------------------------

------------------------------------------------------------------------
 * finished run on 2025/12/08 at 00:34:34.093     
------------------------------------------------------------------------
 total:
 * wall-time:     0 d,  0 h,  0 min,  1.420 sec
 *  cpu-time:     0 d,  0 h,  0 min,  5.562 sec
 * ratio c/w:     3.917 speedup
 SCF:
 * wall-time:     0 d,  0 h,  0 min,  0.281 sec
 *  cpu-time:     0 d,  0 h,  0 min,  1.125 sec
 * ratio c/w:     4.004 speedup
 ANC optimizer:
 * wall-time:     0 d,  0 h,  0 min,  1.072 sec
 *  cpu-time:     0 d,  0 h,  0 min,  4.250 sec
 * ratio c/w:     3.965 speedup

normal termination of xtb
