      -----------------------------------------------------------      
     |                   =====================                   |     
     |                           x T B                           |     
     |                   =====================                   |     
     |                         S. Grimme                         |     
     |          Mulliken Center for Theoretical Chemistry        |     
     |                    University of Bonn                     |     
      -----------------------------------------------------------      

   * xtb version 6.7.1pre (5071a88) compiled by 'Marcel@Raven' on 2024-07-23

   xtb is free software: you can redistribute it and/or modify it under
   the terms of the GNU Lesser General Public License as published by
   the Free Software Foundation, either version 3 of the License, or
   (at your option) any later version.
   
   xtb is distributed in the hope that it will be useful,
   but WITHOUT ANY WARRANTY; without even the implied warranty of
   MERCHANTABILITY or FITNESS FOR A PARTICULAR PURPOSE.  See the
   GNU Lesser General Public License for more details.
   
   Cite this work as:
   * C. Bannwarth, E. Caldeweyher, S. Ehlert, A. Hansen, P. Pracht,
     J. Seibert, S. Spicher, S. Grimme, WIREs Comput. Mol. Sci., 2020, 11,
     e01493. DOI: 10.1002/wcms.1493
   
   for GFN2-xTB:
   * C. Bannwarth, S. Ehlert and S. Grimme., J. Chem. Theory Comput., 2019,
     15, 1652-1671. DOI: 10.1021/acs.jctc.8b01176
   for GFN1-xTB:
   * S. Grimme, C. Bannwarth, P. Shushkov, J. Chem. Theory Comput., 2017,
     13, 1989-2009. DOI: 10.1021/acs.jctc.7b00118
   for GFN0-xTB:
   * P. Pracht, E. Caldeweyher, S. Ehlert, S. Grimme, ChemRxiv, 2019, preprint.
     DOI: 10.26434/chemrxiv.8326202.v1
   for GFN-FF:
   * S. Spicher and S. Grimme, Angew. Chem. Int. Ed., 2020, 59, 15665-15673.
     DOI: 10.1002/anie.202004239
   
   for ALPB and GBSA implicit solvation:
   * S. Ehlert, M. Stahn, S. Spicher, S. Grimme, J. Chem. Theory Comput.,
     2021, 17, 4250-4261. DOI: 10.1021/acs.jctc.1c00471
   
   for ddCOSMO and CPCM-X implicit solvation:
   * M. Stahn, S. Ehlert, S. Grimme, J. Phys. Chem. A,
     2023, XX, XXXX-XXXX. DOI: 10.1021/acs.jpca.3c04382
   
   for DFT-D4:
   * E. Caldeweyher, C. Bannwarth and S. Grimme, J. Chem. Phys., 2017,
     147, 034112. DOI: 10.1063/1.4993215
   * E. Caldeweyher, S. Ehlert, A. Hansen, H. Neugebauer, S. Spicher,
     C. Bannwarth and S. Grimme, J. Chem. Phys., 2019, 150, 154122.
     DOI: 10.1063/1.5090222
   * E. Caldeweyher, J.-M. Mewes, S. Ehlert and S. Grimme, Phys. Chem. Chem. Phys.
     2020, 22, 8499-8512. DOI: 10.1039/D0CP00502A
   
   for sTDA-xTB:
   * S. Grimme and C. Bannwarth, J. Chem. Phys., 2016, 145, 054103.
     DOI: 10.1063/1.4959605
   
   in the mass-spec context:
   * V. Asgeirsson, C. Bauer and S. Grimme, Chem. Sci., 2017, 8, 4879.
     DOI: 10.1039/c7sc00601b
   * J. Koopman and S. Grimme, ACS Omega 2019, 4, 12, 15120-15133.
     DOI: 10.1021/acsomega.9b02011
   
   for metadynamics refer to:
   * S. Grimme, J. Chem. Theory Comput., 2019, 155, 2847-2862
     DOI: 10.1021/acs.jctc.9b00143
   
   for SPH calculations refer to:
   * S. Spicher and S. Grimme, J. Chem. Theory Comput., 2021, 17, 1701-1714
     DOI: 10.1021/acs.jctc.0c01306
   
   for ONIOM refer to:
   * C. Plett, A. Katbashev, S. Ehlert, S. Grimme, M. Bursch,
     Phys. Chem. Chem. Phys., 2023, 25, 17860-17868. DOI: 10.1039/D3CP02178E
   
   for DIPRO refer to:
   * J. Kohn, N. Gildemeister, S. Grimme, D. Fazzi, A. Hansen,
     J. Chem. Phys., 2023, just accepted.
   
   for PTB refer to:
   * S. Grimme, M. Mueller, A. Hansen, J. Chem. Phys., 2023, 158, 124111.
     DOI: 10.1063/5.0137838
   
   with help from (in alphabetical order)
   P. Atkinson, C. Bannwarth, F. Bohle, G. Brandenburg, E. Caldeweyher
   M. Checinski, S. Dohm, S. Ehlert, S. Ehrlich, I. Gerasimov, C. Hölzer
   A. Katbashev, J. Kohn, J. Koopman, C. Lavigne, S. Lehtola, F. März, M. Müller,
   F. Musil, H. Neugebauer, J. Pisarek, C. Plett, P. Pracht, F. Pultar,
   J. Seibert, P. Shushkov, S. Spicher, M. Stahn, M. Steiner, T. Strunk,
   J. Stückrath, T. Rose, and J. Unsleber
   
 * started run on 2025/12/08 at 00:34:34.119     
   ID    Z sym.   atoms
    1    6 C      1-9, 11-51
    2    7 N      10, 70-72
    3    1 H      52-69, 73, 74

           -------------------------------------------------
          |                Calculation Setup                |
           -------------------------------------------------

          program call               : xtb "C:\Users\LENOVO GAMING\Documents\GitHub\molecular-conductivity-sim\results\1nm-4Ndoped-5percent\xtbopt.xyz" --sp
          coordinate file            : C:\Users\LENOVO GAMING\Documents\GitHub\molecular-conductivity-sim\results\1nm-4Ndoped-5percent\xtbopt.xyz
          omp threads                :                    16


           -------------------------------------------------
          |                 G F N 2 - x T B                 |
           -------------------------------------------------

        Reference                      10.1021/acs.jctc.8b01176
      * Hamiltonian:
        H0-scaling (s, p, d)           1.850000    2.230000    2.230000
        zeta-weighting                 0.500000
      * Dispersion:
        s8                             2.700000
        a1                             0.520000
        a2                             5.000000
        s9                             5.000000
      * Repulsion:
        kExp                           1.500000    1.000000
        rExp                           1.000000
      * Coulomb:
        alpha                          2.000000
        third order                    shell-resolved
        anisotropic                    true
        a3                             3.000000
        a5                             4.000000
        cn-shift                       1.200000
        cn-exp                         4.000000
        max-rad                        5.000000

q/qsh data taken from xtbrestart
CAMM data taken from xtbrestart

          ...................................................
          :                      SETUP                      :
          :.................................................:
          :  # basis functions                 236          :
          :  # atomic orbitals                 236          :
          :  # shells                          128          :
          :  # electrons                       240          :
          :  max. iterations                   250          :
          :  Hamiltonian                  GFN2-xTB          :
          :  restarted?                       true          :
          :  GBSA solvation                  false          :
          :  PC potential                    false          :
          :  electronic temp.          300.0000000     K    :
          :  accuracy                    1.0000000          :
          :  -> integral cutoff          0.2500000E+02      :
          :  -> integral neglect         0.1000000E-07      :
          :  -> SCF convergence          0.1000000E-05 Eh   :
          :  -> wf. convergence          0.1000000E-03 e    :
          :  Broyden damping             0.4000000          :
          :  net charge                          0          :
          :  unpaired electrons                  0          :
          ...................................................

 iter      E             dE          RMSdq      gap      omega  full diag
   1   -131.7411848 -0.131741E+03  0.152E-05    1.02       0.0  T
   2   -131.7411848  0.522959E-11  0.147E-05    1.02     789.3  T
   3   -131.7411848 -0.208331E-10  0.472E-06    1.02    2461.8  T

   *** convergence criteria satisfied after 3 iterations ***

         #    Occupation            Energy/Eh            Energy/eV
      -------------------------------------------------------------
         1        2.0000           -0.6700690             -18.2335
       ...           ...                  ...                  ...
       114        2.0000           -0.3749855             -10.2039
       115        2.0000           -0.3743640             -10.1870
       116        2.0000           -0.3641491              -9.9090
       117        2.0000           -0.3490779              -9.4989
       118        2.0000           -0.3410552              -9.2806
       119        2.0000           -0.3272530              -8.9050
       120        2.0000           -0.2948147              -8.0223 (HOMO)
       121                         -0.2572398              -6.9999 (LUMO)
       122                         -0.2518056              -6.8520
       123                         -0.2416278              -6.5750
       124                         -0.2343575              -6.3772
       125                         -0.2282208              -6.2102
       ...                                ...                  ...
       236                          0.7935806              21.5944
      -------------------------------------------------------------
                  HL-Gap            0.0375749 Eh            1.0225 eV
             Fermi-level           -0.2760288 Eh           -7.5111 eV

 SCC (total)                   0 d,  0 h,  0 min,  0.096 sec
 SCC setup                      ...        0 min,  0.001 sec (  1.042%)
 Dispersion                     ...        0 min,  0.003 sec (  3.125%)
 classical contributions        ...        0 min,  0.000 sec (  0.000%)
 integral evaluation            ...        0 min,  0.009 sec (  9.375%)
 iterations                     ...        0 min,  0.057 sec ( 59.375%)
 molecular gradient             ...        0 min,  0.024 sec ( 25.000%)
 printout                       ...        0 min,  0.002 sec (  2.083%)

         :::::::::::::::::::::::::::::::::::::::::::::::::::::
         ::                     SUMMARY                     ::
         :::::::::::::::::::::::::::::::::::::::::::::::::::::
         :: total energy            -129.303295195385 Eh    ::
         :: gradient norm              0.000453065270 Eh/a0 ::
         :: HOMO-LUMO gap              1.022464647274 eV    ::
         ::.................................................::
         :: SCC energy              -131.743352254169 Eh    ::
         :: -> isotropic ES            0.020233487584 Eh    ::
         :: -> anisotropic ES          0.018540021100 Eh    ::
         :: -> anisotropic XC          0.048024971898 Eh    ::
         :: -> dispersion             -0.137693752440 Eh    ::
         :: repulsion energy           2.440057058784 Eh    ::
         :: add. restraining           0.000000000000 Eh    ::
         :: total charge              -0.000000000017 e     ::
         :::::::::::::::::::::::::::::::::::::::::::::::::::::

           -------------------------------------------------
          |                Property Printout                |
           -------------------------------------------------

    * Orbital Energies and Occupations

         #    Occupation            Energy/Eh            Energy/eV
      -------------------------------------------------------------
         1        2.0000           -0.6700690             -18.2335
       ...           ...                  ...                  ...
       108        2.0000           -0.3954717             -10.7613
       109        2.0000           -0.3929603             -10.6930
       110        2.0000           -0.3884979             -10.5716
       111        2.0000           -0.3851050             -10.4792
       112        2.0000           -0.3815283             -10.3819
       113        2.0000           -0.3767070             -10.2507
       114        2.0000           -0.3749855             -10.2039
       115        2.0000           -0.3743640             -10.1870
       116        2.0000           -0.3641491              -9.9090
       117        2.0000           -0.3490779              -9.4989
       118        2.0000           -0.3410552              -9.2806
       119        2.0000           -0.3272530              -8.9050
       120        2.0000           -0.2948147              -8.0223 (HOMO)
       121                         -0.2572398              -6.9999 (LUMO)
       122                         -0.2518056              -6.8520
       123                         -0.2416278              -6.5750
       124                         -0.2343575              -6.3772
       125                         -0.2282208              -6.2102
       126                         -0.2218325              -6.0364
       127                         -0.2128810              -5.7928
       128                         -0.2054374              -5.5902
       129                         -0.2024773              -5.5097
       130                         -0.1965244              -5.3477
       131                         -0.1924603              -5.2371
       ...                                ...                  ...
       236                          0.7935806              21.5944
      -------------------------------------------------------------
                  HL-Gap            0.0375749 Eh            1.0225 eV
             Fermi-level           -0.2760288 Eh           -7.5111 eV

     #   Z          covCN         q      C6AA      α(0)
     1   6 C        2.912    -0.066    29.653     8.929
     2   6 C        2.912    -0.046    29.152     8.854
     3   6 C        2.846     0.024    27.461     8.588
     4   6 C        2.916     0.047    26.939     8.511
     5   6 C        2.983     0.015    27.663     8.627
     6   6 C        2.846     0.019    27.585     8.608
     7   6 C        2.913    -0.042    29.039     8.837
     8   6 C        2.913    -0.046    29.135     8.851
     9   6 C        2.978     0.001    28.004     8.680
    10   7 N        2.706    -0.123    23.679     7.227
    11   6 C        2.917     0.059    26.670     8.469
    12   6 C        2.995    -0.008    28.207     8.712
    13   6 C        2.978    -0.006    28.166     8.706
    14   6 C        2.977    -0.028    28.704     8.788
    15   6 C        2.988    -0.001    28.055     8.688
    16   6 C        2.990    -0.003    28.094     8.695
    17   6 C        2.919    -0.074    29.852     8.960
    18   6 C        2.980     0.010    27.788     8.647
    19   6 C        2.918    -0.053    29.325     8.880
    20   6 C        2.994    -0.011    28.274     8.722
    21   6 C        2.979     0.012    27.748     8.641
    22   6 C        2.989    -0.009    28.223     8.715
    23   6 C        2.989    -0.009    28.223     8.715
    24   6 C        2.990    -0.003    28.090     8.694
    25   6 C        2.920    -0.084    30.109     8.998
    26   6 C        2.917     0.050    26.886     8.503
    27   6 C        2.994    -0.017    28.419     8.745
    28   6 C        2.846     0.021    27.532     8.600
    29   6 C        2.988    -0.008    28.201     8.711
    30   6 C        2.990    -0.000    28.030     8.685
    31   6 C        2.911    -0.064    29.585     8.919
    32   6 C        2.915     0.064    26.570     8.453
    33   6 C        2.990    -0.001    28.053     8.688
    34   6 C        2.989     0.001    27.994     8.679
    35   6 C        2.979    -0.024    28.599     8.772
    36   6 C        2.977    -0.011    28.276     8.722
    37   6 C        2.993    -0.008    28.208     8.712
    38   6 C        2.917     0.064    26.574     8.453
    39   6 C        2.922    -0.087    30.179     9.009
    40   6 C        2.978     0.001    27.999     8.680
    41   6 C        2.916    -0.041    29.018     8.833
    42   6 C        2.990    -0.002    28.058     8.689
    43   6 C        2.988    -0.005    28.128     8.700
    44   6 C        2.993    -0.012    28.299     8.726
    45   6 C        2.916    -0.033    28.812     8.802
    46   6 C        2.921    -0.068    29.682     8.934
    47   6 C        2.993    -0.003    28.097     8.695
    48   6 C        2.911    -0.065    29.607     8.922
    49   6 C        2.989    -0.008    28.218     8.714
    50   6 C        2.987    -0.011    28.293     8.725
    51   6 C        2.993    -0.008    28.217     8.714
    52   1 H        0.926     0.034     2.535     2.490
    53   1 H        0.925     0.007     2.942     2.682
    54   1 H        0.926     0.014     2.824     2.628
    55   1 H        0.926     0.025     2.663     2.552
    56   1 H        0.926     0.018     2.767     2.601
    57   1 H        0.926     0.031     2.567     2.506
    58   1 H        0.860     0.167     1.288     1.778
    59   1 H        0.926     0.025     2.665     2.553
    60   1 H        0.926     0.023     2.692     2.566
    61   1 H        0.860     0.169     1.276     1.769
    62   1 H        0.925     0.003     2.998     2.708
    63   1 H        0.926     0.034     2.525     2.485
    64   1 H        0.926     0.029     2.596     2.520
    65   1 H        0.926     0.020     2.728     2.583
    66   1 H        0.926     0.032     2.556     2.500
    67   1 H        0.925     0.012     2.850     2.640
    68   1 H        0.926     0.017     2.776     2.606
    69   1 H        0.926     0.033     2.548     2.496
    70   7 N        2.703    -0.110    23.411     7.186
    71   7 N        2.702    -0.101    23.231     7.159
    72   7 N        2.702    -0.104    23.290     7.167
    73   1 H        0.860     0.161     1.332     1.808
    74   1 H        0.860     0.161     1.326     1.804

 Mol. C6AA /au·bohr⁶  :      99929.389671
 Mol. C8AA /au·bohr⁸  :    2651406.458352
 Mol. α(0) /au        :        513.313212


Wiberg/Mayer (AO) data.
largest (>0.10) Wiberg bond orders for each atom

 ---------------------------------------------------------------------------
     #   Z sym  total        # sym  WBO       # sym  WBO       # sym  WBO
 ---------------------------------------------------------------------------
     1   6 C    3.952 --     3 C    1.649     5 C    1.159    52 H    0.968
     2   6 C    3.955 --     7 C    1.638    14 C    1.204    62 H    0.958
     3   6 C    3.954 --     1 C    1.649    71 N    1.208    63 H    0.966
     4   6 C    3.889 --    14 C    1.319    20 C    1.251    71 N    1.119
     5   6 C    3.950 --    25 C    1.398    20 C    1.238     1 C    1.159
     6   6 C    3.927 --    31 C    1.655    70 N    1.186    64 H    0.966
     7   6 C    3.967 --     2 C    1.638    36 C    1.208    65 H    0.962
     8   6 C    3.956 --    41 C    1.592    35 C    1.239    53 H    0.958
     9   6 C    3.923 --    36 C    1.314    37 C    1.249    31 C    1.166
    10   7 N    3.481 --    32 C    1.152    38 C    1.136    74 H    0.939
    11   6 C    3.937 --    39 C    1.447    37 C    1.216    70 N    1.116
    12   6 C    3.973 --    40 C    1.273    38 C    1.245    33 C    1.223
    13   6 C    3.957 --    34 C    1.296    41 C    1.251    40 C    1.194
    14   6 C    3.962 --     4 C    1.319    42 C    1.213     2 C    1.204
    15   6 C    3.971 --    42 C    1.270    43 C    1.256    36 C    1.223
    16   6 C    3.976 --    37 C    1.264    43 C    1.249    44 C    1.239
    17   6 C    3.946 --    38 C    1.402    45 C    1.370    54 H    0.968
    18   6 C    3.959 --    39 C    1.280    46 C    1.263    44 C    1.257
    19   6 C    3.965 --    45 C    1.508    40 C    1.301    55 H    0.963
    20   6 C    3.975 --     4 C    1.251    47 C    1.248     5 C    1.238
    21   6 C    3.967 --    46 C    1.478    51 C    1.186    48 C    1.149
    22   6 C    3.979 --    42 C    1.262    47 C    1.255    49 C    1.229
    23   6 C    3.961 --    49 C    1.298    43 C    1.238    50 C    1.205
    24   6 C    3.972 --    50 C    1.270    51 C    1.246    44 C    1.235
    25   6 C    3.961 --     5 C    1.398    32 C    1.336    56 H    0.966
    26   6 C    3.903 --    51 C    1.303    35 C    1.266    72 N    1.130
    27   6 C    3.974 --    32 C    1.276    47 C    1.249    33 C    1.195
    28   6 C    3.952 --    48 C    1.665    72 N    1.192    57 H    0.966
    29   6 C    3.980 --    33 C    1.319    34 C    1.213    49 C    1.211
    30   6 C    3.973 --    50 C    1.264    34 C    1.246    35 C    1.238
    31   6 C    3.968 --     6 C    1.655     9 C    1.166    66 H    0.961
    32   6 C    3.924 --    25 C    1.336    27 C    1.276    10 N    1.152
    33   6 C    3.961 --    29 C    1.319    12 C    1.223    27 C    1.195
    34   6 C    3.982 --    13 C    1.296    30 C    1.246    29 C    1.213
    35   6 C    3.964 --    26 C    1.266     8 C    1.239    30 C    1.238
    36   6 C    3.969 --     9 C    1.314    15 C    1.223     7 C    1.208
    37   6 C    3.961 --    16 C    1.264     9 C    1.249    11 C    1.216
    38   6 C    3.958 --    17 C    1.402    12 C    1.245    10 N    1.136
    39   6 C    3.942 --    11 C    1.447    18 C    1.280    67 H    0.965
    40   6 C    3.962 --    19 C    1.301    12 C    1.273    13 C    1.194
    41   6 C    3.970 --     8 C    1.592    13 C    1.251    59 H    0.962
    42   6 C    3.965 --    15 C    1.270    22 C    1.262    14 C    1.213
    43   6 C    3.978 --    15 C    1.256    16 C    1.249    23 C    1.238
    44   6 C    3.976 --    18 C    1.257    16 C    1.239    24 C    1.235
    45   6 C    3.974 --    19 C    1.508    17 C    1.370    60 H    0.971
    46   6 C    3.963 --    21 C    1.478    18 C    1.263    68 H    0.967
    47   6 C    3.975 --    22 C    1.255    27 C    1.249    20 C    1.248
    48   6 C    3.959 --    28 C    1.665    21 C    1.149    69 H    0.968
    49   6 C    3.962 --    23 C    1.298    22 C    1.229    29 C    1.211
    50   6 C    3.981 --    24 C    1.270    30 C    1.264    23 C    1.205
    51   6 C    3.972 --    26 C    1.303    24 C    1.246    21 C    1.186
    52   1 H    0.998 --     1 C    0.968
    53   1 H    0.999 --     8 C    0.958
    54   1 H    0.999 --    17 C    0.968
    55   1 H    0.999 --    19 C    0.963
    56   1 H    0.998 --    25 C    0.966
    57   1 H    0.998 --    28 C    0.966
    58   1 H    0.971 --    72 N    0.932
    59   1 H    0.998 --    41 C    0.962
    60   1 H    0.999 --    45 C    0.971
    61   1 H    0.971 --    71 N    0.931
    62   1 H    0.999 --     2 C    0.958
    63   1 H    0.998 --     3 C    0.966
    64   1 H    0.998 --     6 C    0.966
    65   1 H    0.998 --     7 C    0.962
    66   1 H    0.998 --    31 C    0.961
    67   1 H    0.999 --    39 C    0.965
    68   1 H    0.998 --    46 C    0.967
    69   1 H    0.998 --    48 C    0.968
    70   7 N    3.481 --     6 C    1.186    11 C    1.116    73 H    0.945
    71   7 N    3.500 --     3 C    1.208     4 C    1.119    61 H    0.931
    72   7 N    3.498 --    28 C    1.192    26 C    1.130    58 H    0.932
    73   1 H    0.974 --    70 N    0.945
    74   1 H    0.973 --    10 N    0.939
 ---------------------------------------------------------------------------

Topologies differ in total number of bonds
Writing topology from bond orders to xtbtopo.mol

molecular dipole:
                 x           y           z       tot (Debye)
 q only:        0.058       0.876      -0.000
   full:        0.035       0.959      -0.000       2.438
molecular quadrupole (traceless):
                xx          xy          yy          xz          yz          zz
 q only:       13.601     -12.621      12.850       0.001       0.002     -26.451
  q+dip:       30.762     -11.272      28.831       0.000       0.002     -59.594
   full:       21.280     -12.046      20.436       0.000       0.002     -41.716


           -------------------------------------------------
          | TOTAL ENERGY             -129.303295195385 Eh   |
          | GRADIENT NORM               0.000453065270 Eh/α |
          | HOMO-LUMO GAP               1.022464647274 eV   |
           -------------------------------------------------

------------------------------------------------------------------------
 * finished run on 2025/12/08 at 00:34:34.262     
------------------------------------------------------------------------
 total:
 * wall-time:     0 d,  0 h,  0 min,  0.139 sec
 *  cpu-time:     0 d,  0 h,  0 min,  1.719 sec
 * ratio c/w:    12.365 speedup
 SCF:
 * wall-time:     0 d,  0 h,  0 min,  0.096 sec
 *  cpu-time:     0 d,  0 h,  0 min,  1.141 sec
 * ratio c/w:    11.882 speedup

normal termination of xtb
