74
 energy: -129.303295195352 gnorm: 0.000452901881 xtb: 6.7.1pre (5071a88)
C           -5.67249470271332        3.63066635470820       -0.00028351367809
C           -0.71794630274976        4.88916439938367       -0.00013170225529
C           -4.97503886405045        4.78321947291081       -0.00031157546612
C           -2.85998511221119        3.63736801300054       -0.00018286940388
C           -4.97668116151882        2.37437124254132       -0.00017946076569
C            4.94318186385531        4.84372070715638        0.00040346213396
C            0.63378935001519        4.89864361658720       -0.00003793905859
C            0.71826749746370       -4.89755315929570       -0.00005257529539
C            2.80445149648588        3.70329159174508        0.00016691644585
N           -5.57305476178207       -1.24506507247233        0.00013334223566
C            4.92941437836236        2.44738368313994        0.00023236468689
C           -3.51427840836319       -2.48426763015114        0.00015173317997
C           -1.39588732044663       -3.70895739358806        0.00008252775885
C           -1.46156244672235        3.67331917206884       -0.00013399061826
C            0.68966933582918        2.46204325314172       -0.00001259437442
C            2.81396976784664        1.24179900530728        0.00005483022817
C           -5.65019534997398       -3.63941683194096        0.00041756193148
C            4.94605251838194        0.02782214204962        0.00002859000917
C           -3.59949300975322       -4.90039956581352        0.00037718373977
C           -3.55764287337765        2.40853880219273       -0.00015361814658
C            4.98564950311569       -2.39831681910168       -0.00017261767354
C           -1.41445746478082        1.21446427882742       -0.00007525289156
C            0.70263626113569        0.00036480228049       -0.00003673242159
C            2.82970714935189       -1.21265311897072       -0.00007158103907
C           -5.63935333304092        1.15743143430115       -0.00009418844666
C            2.86590368249063       -3.65017616220048       -0.00020058784693
C           -3.52103325721673       -0.03149833684251       -0.00002036317627
C            4.97075702655806       -4.81069644520367       -0.00037942006542
C           -1.40049131131002       -1.25018342426878        0.00001142155458
C            0.72958717787824       -2.46461164807312       -0.00004829636840
C            3.59811506469263        4.90266830045719        0.00030447036411
C           -4.92494993519988       -0.03864380290795        0.00000427999797
C           -2.79857530705207       -1.25906411718160        0.00004259404494
C           -0.69133999248545       -2.48523963680265       -0.00000116712614
C            1.45665319679663       -3.68716303959718       -0.00010384386057
C            1.40092627713472        3.69856306826749        0.00004263729218
C            3.50849824074693        2.47145514033576        0.00015709638397
C           -4.92943694074911       -2.46024565978607        0.00023429256154
C            5.62168541733509        1.26119648883556        0.00015484669003
C           -2.82837175739994       -3.72106057685751        0.00020347611786
C           -0.63951386384768       -4.90523765405320        0.00005898142290
C           -0.72577911084044        2.44927287455615       -0.00007995839745
C            1.39887341930244        1.23568029670876        0.00000170471708
C            3.53235447360983        0.01937612155848        0.00000572841431
C           -4.97052569220115       -4.85445960564169        0.00049324716321
C            5.64625959283345       -1.19632607847111       -0.00007550150963
C           -2.82667533745120        1.19867689479524       -0.00009083458813
C            5.67127134387262       -3.66282417229428       -0.00029407494492
C           -0.69914504629752       -0.01164595626580       -0.00003717963941
C            1.41989612678720       -1.23041028828090       -0.00006425207844
C            3.55464559482879       -2.42814679339489       -0.00014886939097
H           -6.74974982129030        3.63852093603516       -0.00033815196914
H            1.23192027837451       -5.84960301305138       -0.00007616496512
H           -6.73051294064074       -3.61354324658489        0.00050432273538
H           -3.11808095139173       -5.86428820643723        0.00043204713538
H           -6.72012528690980        1.13546461160937       -0.00009809596511
H            5.44106207735855       -5.78284634388324       -0.00048139644768
H            3.11850269530457       -5.69274606182969       -0.00043353411763
H           -1.14769719637080       -5.85600305888419        0.00011650462101
H           -5.53836285513374       -5.77369650099336        0.00064066031887
H           -3.13145489481775        5.67815149173535       -0.00025090356219
H           -1.23609818822476        5.83916755922328       -0.00020414460896
H           -5.45367448838531        5.75134777498634       -0.00038370251049
H            5.56297358190286        5.72774072251560        0.00051832321658
H            1.14245316187004        5.84961547324045       -0.00004126879958
H            3.12617751832343        5.86911704134744        0.00034099206308
H            6.70322582549857        1.26863279608709        0.00019422724039
H            6.72695530817675       -1.17873248805064       -0.00007964350415
H            6.74877263158888       -3.67473847940979       -0.00032038046485
N            5.60405423047455        3.65171214572127        0.00039211290246
N           -3.61628146870045        4.79561376143124       -0.00024302233308
N            3.60823672566772       -4.81334945960074       -0.00032970978266
H            6.61162414757353        3.62839168289850        0.00035966236410
H           -6.58280318342375       -1.24610530550543        0.00018053788634
