74
 energy: -129.294424140081 gnorm: 0.037317587907 xtb: 6.7.1pre (5071a88)
C           -5.71736300000000        3.65737000000000       -0.00041000000000
C           -0.72213000000000        4.93395800000000       -0.00009000000000
C           -5.01568400000000        4.81770800000000       -0.00035000000000
C           -2.87850000000000        3.66796000000000        0.00005400000000
C           -5.01594800000000        2.39605500000000       -0.00038300000000
C            4.97421900000000        4.88405400000000        0.00043500000000
C            0.63791800000000        4.94292400000000       -0.00013400000000
C            0.72435100000000       -4.94113900000000       -0.00006800000000
C            2.82400900000000        3.73723300000000        0.00011200000000
N           -5.60583400000000       -1.25125800000000        0.00015700000000
C            4.96519600000000        2.46471900000000        0.00021700000000
C           -3.53854700000000       -2.50367400000000        0.00018500000000
C           -1.40461600000000       -3.74083200000000       -0.00000800000000
C           -1.47195600000000        3.70793400000000        0.00004500000000
C            0.69478000000000        2.48229900000000        0.00002000000000
C            2.83522600000000        1.25134600000000       -0.00000100000000
C           -5.69350800000000       -3.66725100000000        0.00054000000000
C            4.98310800000000        0.02810600000000        0.00002900000000
C           -3.62360100000000       -4.94469300000000        0.00033400000000
C           -3.58384500000000        2.43078800000000       -0.00010400000000
C            5.02778300000000       -2.42216500000000       -0.00017700000000
C           -1.42525400000000        1.22483300000000       -0.00000100000000
C            0.70498800000000        0.00010700000000       -0.00006900000000
C            2.84937200000000       -1.22636000000000       -0.00005200000000
C           -5.67897700000000        1.16747900000000       -0.00025700000000
C            2.88580000000000       -3.68095100000000       -0.00025300000000
C           -3.54476900000000       -0.03031200000000       -0.00001400000000
C            5.00857500000000       -4.85019700000000       -0.00037900000000
C           -1.41306100000000       -1.26050200000000       -0.00008700000000
C            0.73825300000000       -2.48656500000000       -0.00010200000000
C            3.62114500000000        4.94814600000000        0.00026200000000
C           -4.95640200000000       -0.03396900000000       -0.00009200000000
C           -2.81941800000000       -1.26802800000000        0.00002600000000
C           -0.69816300000000       -2.50685500000000       -0.00010500000000
C            1.46638500000000       -3.72042500000000       -0.00014100000000
C            1.41301100000000        3.73083800000000       -0.00004600000000
C            3.53225300000000        2.49302900000000        0.00008100000000
C           -4.96594500000000       -2.48145900000000        0.00028100000000
C            5.66262600000000        1.26853200000000        0.00015200000000
C           -2.85007900000000       -3.75287600000000        0.00018800000000
C           -0.64201500000000       -4.94784000000000        0.00004100000000
C           -0.73467600000000        2.47062800000000        0.00001500000000
C            1.40727400000000        1.24550800000000       -0.00001100000000
C            3.55786400000000        0.01764100000000        0.00000900000000
C           -5.00535600000000       -4.89115200000000        0.00054600000000
C            5.68678700000000       -1.20889500000000       -0.00007500000000
C           -2.84933200000000        1.21083800000000       -0.00000900000000
C            5.71480800000000       -3.69546000000000       -0.00027900000000
C           -0.70381200000000       -0.01087500000000       -0.00006100000000
C            1.43082900000000       -1.24129400000000       -0.00010200000000
C            3.58139700000000       -2.45255100000000       -0.00016900000000
H           -6.80113300000000        3.67881700000000       -0.00044300000000
H            1.23326800000000       -5.90028200000000        0.00000300000000
H           -6.77963100000000       -3.64026800000000        0.00075100000000
H           -3.13881700000000       -5.91348800000000        0.00030100000000
H           -6.76558900000000        1.14304100000000       -0.00021800000000
H            5.47121900000000       -5.83001800000000       -0.00049200000000
H            3.16207700000000       -5.74095600000000       -0.00055600000000
H           -1.15025600000000       -5.90492600000000        0.00025400000000
H           -5.57659900000000       -5.81572200000000        0.00077800000000
H           -3.18101800000000        5.72399900000000       -0.00026900000000
H           -1.23392000000000        5.89214100000000       -0.00017800000000
H           -5.48572400000000        5.79398600000000       -0.00028200000000
H            5.60709100000000        5.76345000000000        0.00076000000000
H            1.14575200000000        5.90057100000000       -0.00022000000000
H            3.15690600000000        5.92496900000000        0.00040200000000
H            6.75007300000000        1.27935900000000        0.00020200000000
H            6.77423500000000       -1.19215900000000       -0.00006100000000
H            6.79886800000000       -3.72463600000000       -0.00029500000000
N            5.63552500000000        3.68129300000000        0.00068500000000
N           -3.64563300000000        4.82882700000000       -0.00024100000000
N            3.63520600000000       -4.85096700000000       -0.00033600000000
H            6.64597400000000        3.67318500000000        0.00019100000000
H           -6.61761600000000       -1.24860900000000        0.00025200000000
74
 energy: -129.301734146317 gnorm: 0.013867362979 xtb: 6.7.1pre (5071a88)
C           -5.69345103004999        3.64115577019629       -0.00036574546563
C           -0.71948389469035        4.90535580065096       -0.00009088290064
C           -4.99651233075456        4.79575077014776       -0.00030886741376
C           -2.86929852088493        3.65014351310733       -0.00008502930462
C           -4.99439228489668        2.38356739574893       -0.00026404334160
C            4.95781889846526        4.85952475666396        0.00048345016218
C            0.63466334483769        4.91437980962754       -0.00009489864858
C            0.72068992480007       -4.91317898661769       -0.00004640416959
C            2.81431721907494        3.71742476265303        0.00013252587449
N           -5.58672320905113       -1.24798896607246        0.00015916443668
C            4.94549986520896        2.45384127426900        0.00025079499739
C           -3.52561121085525       -2.49304293217441        0.00014876572857
C           -1.40062712641760       -3.72163583142846        0.00003937937965
C           -1.46748919058744        3.68729612629121       -0.00003518718923
C            0.69241777807508        2.47059040731841       -0.00000572168346
C            2.82428261335271        1.24615290635403        0.00001539027738
C           -5.66918265438874       -3.65044465863803        0.00053322044500
C            4.96209853623430        0.02788371457669        0.00000920643385
C           -3.61424803532474       -4.91663756243541        0.00033997347328
C           -3.57015680195496        2.41798375811344       -0.00012624601421
C            5.00509773609602       -2.40863166904178       -0.00017198168762
C           -1.41933124008744        1.21948412674713       -0.00001778505550
C            0.70411748426642        0.00027761284118       -0.00006292085433
C            2.83965856900579       -1.21884711994320       -0.00009118379799
C           -5.65540749351315        1.16173173671507       -0.00020318073945
C            2.87602553705736       -3.66277349350920       -0.00023366934117
C           -3.53143520425441       -0.03096671680302       -0.00001725733787
C            4.99009239014701       -4.82580499747095       -0.00038551350350
C           -1.40640617010917       -1.25502290986649       -0.00004347897095
C            0.73380677636775       -2.47393236518606       -0.00010475863024
C            3.61131872688677        4.92065500851651        0.00031306229881
C           -4.93815727880826       -0.03622900312484       -0.00004229933439
C           -2.80804003337307       -1.26354712508037        0.00002526014837
C           -0.69456430961128       -2.49463745645890       -0.00005116945126
C            1.46195868149497       -3.70032309820529       -0.00014518858864
C            1.40758800768645        3.71134595482010       -0.00000301103983
C            3.51996151392576        2.48045841859424        0.00013472963702
C           -4.94560870349021       -2.47012625480356        0.00027872325833
C            5.63856216219224        1.26415167464287        0.00014977378692
C           -2.83948390903655       -3.73429528820332        0.00016556607594
C           -0.63982341716117       -4.92041790604342        0.00006865265824
C           -0.72960314629970        2.45850009336560       -0.00000527961272
C            1.40329727521019        1.24024205062346       -0.00002269864540
C            3.54423695066348        0.01881913912345       -0.00001997465594
C           -4.98747859313829       -4.86722184201132        0.00055845572502
C            5.66265377410282       -1.20230562879744       -0.00007591491516
C           -2.83721674385628        1.20435330599487       -0.00004490622451
C            5.69118900684351       -3.67657670145082       -0.00028328891455
C           -0.70091798080644       -0.01117959095381       -0.00005173682688
C            1.42590974739532       -1.23547337441038       -0.00010542791876
C            3.56755956400327       -2.43889246319268       -0.00016602071373
H           -6.77313532207907        3.65915781521325       -0.00044777990075
H            1.23156909058110       -5.86867470002209       -0.00000485649544
H           -6.75144499177449       -3.62756211242168        0.00070262275191
H           -3.13526054218675       -5.88357163726811        0.00031795614148
H           -6.73831507618375        1.13940408078160       -0.00025752121455
H            5.45654329273597       -5.80157557903339       -0.00048459617828
H            3.14700721806191       -5.71608915411371       -0.00054022531049
H           -1.14626383695944       -5.87463554153417        0.00019815487361
H           -5.55774752057580       -5.78823333454612        0.00073838294296
H           -3.16432932992665        5.70057115700669       -0.00024547610272
H           -1.23415308704097        5.85936348376347       -0.00016578863167
H           -5.47072146853877        5.76768635957651       -0.00031527780050
H            5.58587771939331        5.73982803077613        0.00068611067739
H            1.14167845586883        5.86874122537623       -0.00021148443837
H            3.14668609865240        5.89291537899398        0.00034700123114
H            6.72227731669589        1.27473376231008        0.00020435543057
H            6.74603627828545       -1.18593947805392       -0.00006350842301
H            6.77114590780485       -3.70158614294209       -0.00029312632708
N            5.61814572714876        3.66320162352572        0.00062914806380
N           -3.63280089363968        4.80834610339346       -0.00023703230232
N            3.62288697956652       -4.82834293096605       -0.00033803636059
H            6.62714016026692        3.65250932498730        0.00019661300924
H           -6.59756974614885       -1.24712168058284        0.00023794245825
74
 energy: -129.303245350800 gnorm: 0.004093045232 xtb: 6.7.1pre (5071a88)
C           -5.67607195843590        3.63030156864861       -0.00033601377347
C           -0.71801056967207        4.88869558703447       -0.00011684239092
C           -4.97964740411843        4.78271871277370       -0.00030955736972
C           -2.86141023796025        3.63845699432441       -0.00014143635762
C           -4.97894707871527        2.37477148923430       -0.00022643282856
C            4.94523046301720        4.84381090730400        0.00046655526023
C            0.63358300085445        4.89793291101889       -0.00008541859829
C            0.71833841335278       -4.89701903385296       -0.00004737742753
C            2.80589470686989        3.70408838328928        0.00015890463622
N           -5.57386159388927       -1.24509747026672        0.00015360086506
C            4.93143218102179        2.44703660311670        0.00026618049868
C           -3.51571000115049       -2.48500724840881        0.00014688982446
C           -1.39680585135273       -3.70913957131593        0.00005919485778
C           -1.46306439289109        3.67397986603504       -0.00007907412961
C            0.69019504113192        2.46254286806600       -0.00001195411401
C            2.81539512843070        1.24224218565270        0.00002743587772
C           -5.65255213640323       -3.63914734095272        0.00050226397978
C            4.94745502365562        0.02768906920875        0.00001088205332
C           -3.60243275168575       -4.90015530595808        0.00034846301580
C           -3.55958039410945        2.40944674762517       -0.00013999809919
C            4.98846307244185       -2.39908755210699       -0.00017869940199
C           -1.41487306647532        1.21529549062821       -0.00004889899580
C            0.70298121179418        0.00030442323703       -0.00005242671780
C            2.83142788050447       -1.21357127670221       -0.00009752463507
C           -5.64022622687821        1.15745916440028       -0.00016718515358
C            2.86747553761034       -3.65109334918336       -0.00022393219712
C           -3.52179811202561       -0.03123480130924       -0.00001472959458
C            4.97406994684457       -4.81097625125970       -0.00038194146690
C           -1.40116850555124       -1.25058785001914       -0.00001963437296
C            0.73021138654302       -2.46524308249314       -0.00009580565215
C            3.60065698649646        4.90323527040231        0.00031500718791
C           -4.92568949812072       -0.03810907378217       -0.00001054033686
C           -2.79941377339232       -1.25954616441812        0.00003157802348
C           -0.69172560059860       -2.48586367083629       -0.00002666964378
C            1.45766277828895       -3.68760267443978       -0.00013777328184
C            1.40240580240661        3.69883924996796        0.00002152751669
C            3.51018214024855        2.47202815385528        0.00016158152501
C           -4.93123135623317       -2.46105872741225        0.00026849966187
C            5.62287709156146        1.26096096582991        0.00015881496084
C           -2.83010511842636       -3.72163304361997        0.00018055352528
C           -0.63953572137594       -4.90457429330191        0.00006137036752
C           -0.72607006468948        2.45003619493390       -0.00004669538577
C            1.39958922783936        1.23614576127095       -0.00001582554227
C            3.53382918531027        0.01933419858390       -0.00002264778784
C           -4.97298431968926       -4.85371789921680        0.00053408181675
C            5.64718980422111       -1.19701088830077       -0.00008289357345
C           -2.82794496590587        1.19964071728371       -0.00006887257290
C            5.67416007636755       -3.66357251940702       -0.00028275708454
C           -0.69903353880427       -0.01141707371335       -0.00004527663935
C            1.42119843491630       -1.23110307513227       -0.00008662636328
C            3.55661984316699       -2.42957586337250       -0.00017046029254
H           -6.75350910794666        3.64246707647473       -0.00041138453502
H            1.23205798814000       -5.84933744129626       -0.00002000228891
H           -6.73291778577642       -3.61624366810968        0.00065559479094
H           -3.12312586912183       -5.86514383838276        0.00035039024350
H           -6.72109276416616        1.13594408171624       -0.00022373541402
H            5.44328030673100       -5.78387663068577       -0.00048357680948
H            3.12879123157360       -5.69816610970895       -0.00051115915653
H           -1.14711240403881       -5.85606719689839        0.00016654740939
H           -5.54185190426759       -5.77270911729391        0.00071695739415
H           -3.14418235116038        5.68360071063284       -0.00022108846476
H           -1.23618042990508        5.83907312492725       -0.00017659674383
H           -5.45699720714827        5.75161098790141       -0.00035938970327
H            5.56846130671762        5.72573830122899        0.00063093080607
H            1.14184674562608        5.84950975242326       -0.00014343529673
H            3.13200494454487        5.87149438576255        0.00033220907068
H            6.70451884180023        1.27004465851967        0.00020413856520
H            6.72815536533759       -1.17999774190856       -0.00007080905934
H            6.75186699702406       -3.68157579578015       -0.00029592951708
N            5.60596655349881        3.65133132475779        0.00054605822197
N           -3.61984565774903        4.79587050133452       -0.00022356673724
N            3.61062892596912       -4.81423957051919       -0.00033942036789
H            6.61384902583849        3.63548570093881        0.00024993050138
H           -6.58381887786729       -1.24559987897767        0.00021387341768
74
 energy: -129.303283450135 gnorm: 0.002173263225 xtb: 6.7.1pre (5071a88)
C           -5.67347743433893        3.62984441935413       -0.00031974273113
C           -0.71794181500473        4.88837845364042       -0.00012112321107
C           -4.97635421027939        4.78235661724410       -0.00031173689342
C           -2.86006139277942        3.63746618635691       -0.00015953677863
C           -4.97704456687010        2.37413839857927       -0.00020921580123
C            4.94335728420254        4.84304119099882        0.00045075270989
C            0.63368761867649        4.89777132866556       -0.00006434467469
C            0.71821519647323       -4.89671847904442       -0.00004687928605
C            2.80460242798402        3.70307595104075        0.00016381746797
N           -5.57278714447278       -1.24482848826054        0.00014765321958
C            4.92977337231374        2.44681326082788        0.00026014006538
C           -3.51441569938948       -2.48414235138102        0.00015005428092
C           -1.39602144011909       -3.70846321030859        0.00007026923720
C           -1.46197446276205        3.67307690117460       -0.00010313296976
C            0.68979998695541        2.46186859220774       -0.00001479988128
C            2.81417738412002        1.24179154371229        0.00003753628901
C           -5.65058501976699       -3.63866401729515        0.00048118003074
C            4.94602421344579        0.02767056822337        0.00001475658024
C           -3.59991074850319       -4.89964357949292        0.00035845516790
C           -3.55802148744216        2.40870160049727       -0.00014598141295
C            4.98626531798600       -2.39831135539461       -0.00017968900714
C           -1.41437885411365        1.21466646007783       -0.00005918541285
C            0.70270417404661        0.00033055442108       -0.00004992445118
C            2.83005933264499       -1.21294612485928       -0.00009369510187
C           -5.63911629457855        1.15716756081728       -0.00014347705018
C            2.86601113754062       -3.65018345521825       -0.00022063613405
C           -3.52084813142490       -0.03129900551851       -0.00001361788911
C            4.97129581785125       -4.81025802093559       -0.00038296053733
C           -1.40053564341140       -1.25007036958491       -0.00001150870988
C            0.72966856905066       -2.46444290378457       -0.00008181675616
C            3.59848228553584        4.90223047281839        0.00031596906937
C           -4.92464183524203       -0.03844761555032       -0.00000495100774
C           -2.79847558816659       -1.25898615000739        0.00003658297818
C           -0.69137116108934       -2.48504604639807       -0.00001145520104
C            1.45675575661402       -3.68681775193996       -0.00012937267662
C            1.40133186165381        3.69817761771459        0.00002800436645
C            3.50880098136821        2.47134929659345        0.00016445253106
C           -4.92961059427919       -2.46007847574087        0.00026015719234
C            5.62162792237034        1.26073828194668        0.00015976406098
C           -2.82860083596846       -3.72068765283795        0.00018674527481
C           -0.63958101657351       -4.90435626513711        0.00006304524335
C           -0.72571205313739        2.44919930948261       -0.00006124074554
C            1.39898090374826        1.23566616620966       -0.00001266038147
C            3.53250787386054        0.01930743470812       -0.00001628451828
C           -4.97079377750227       -4.85359563581605        0.00052784048818
C            5.64606272132471       -1.19643046015565       -0.00008269583446
C           -2.82678673813859        1.19900743291752       -0.00007666831038
C            5.67181837568853       -3.66260907473549       -0.00028803451607
C           -0.69896010034427       -0.01151107000796       -0.00004496523774
C            1.42025625448498       -1.23051899413680       -0.00008177556603
C            3.55497671465579       -2.42859257418160       -0.00016859579372
H           -6.75076423046166        3.63977183102091       -0.00039314449519
H            1.23242381427544       -5.84853712160154       -0.00003448052672
H           -6.73087342867190       -3.61445012367489        0.00061233023456
H           -3.11934591401140       -5.86399994437447        0.00037414775479
H           -6.71988625084699        1.13546645112287       -0.00018770799777
H            5.44098861772390       -5.78269987869198       -0.00048093836830
H            3.12330462349528       -5.69538583975057       -0.00049035472325
H           -1.14768356504038       -5.85529595139549        0.00014598177352
H           -5.53908982075797       -5.77258465412793        0.00069181068499
H           -3.13773732789282        5.68087362352511       -0.00022496291973
H           -1.23669866651486        5.83816059440996       -0.00018961073242
H           -5.45426333067975        5.75079639996187       -0.00037197969663
H            5.56495918384394        5.72583621815520        0.00059465458389
H            1.14239897837175        5.84885437358395       -0.00011075818605
H            3.12797266548128        5.86947428994818        0.00033458015977
H            6.70315971095608        1.26899768079286        0.00020505890156
H            6.72683231397656       -1.17903699561946       -0.00007469464913
H            6.74936918605462       -3.67768943803553       -0.00030071019505
N            5.60438065499669        3.65081291103809        0.00050204347209
N           -3.61702281943670        4.79522184134056       -0.00022659575794
N            3.60827196265203       -4.81329306617334       -0.00033933650998
H            6.61206671312579        3.63217233314204        0.00028425646218
H           -6.58257450953689       -1.24559000710315        0.00020293895632
74
 energy: -129.303293090100 gnorm: 0.001068755591 xtb: 6.7.1pre (5071a88)
C           -5.67252024599157        3.63024138279836       -0.00030124557706
C           -0.71792222900415        4.88887358707108       -0.00012909769906
C           -4.97506036422946        4.78279944552313       -0.00031148222359
C           -2.85973351594160        3.63731483180149       -0.00017210735270
C           -4.97653509662357        2.37419952915374       -0.00019428038042
C            4.94288482414431        4.84333576183205        0.00042750666276
C            0.63377505098180        4.89834751768518       -0.00005167257212
C            0.71822389557696       -4.89721962445376       -0.00005003491099
C            2.80429153369932        3.70306187635248        0.00016832113278
N           -5.57277278444471       -1.24490685291803        0.00014141553318
C            4.92933428078895        2.44709578006227        0.00024889230120
C           -3.51411887827629       -2.48406250102761        0.00014917099345
C           -1.39578184526922       -3.70866382915541        0.00008965053121
C           -1.46151564116188        3.67310471601068       -0.00012189945139
C            0.68966889214006        2.46186188745874       -0.00001468481602
C            2.81388236480166        1.24171412735721        0.00005065717965
C           -5.65003703962275       -3.63903173258472        0.00045366175656
C            4.94583079087341        0.02772048657132        0.00002217249770
C           -3.59919496579402       -4.90004049350331        0.00036783319282
C           -3.55755213726827        2.40855059163818       -0.00015185554020
C            4.98558223411740       -2.39825461110202       -0.00017905268544
C           -1.41433378642991        1.21445469203490       -0.00007564981473
C            0.70262536293172        0.00035599944715       -0.00003620413321
C            2.82963706993793       -1.21272384177809       -0.00007214765954
C           -5.63910320713316        1.15727060335792       -0.00011795848520
C            2.86565679558055       -3.65009251204845       -0.00021418190213
C           -3.52079266658155       -0.03139331925504       -0.00002319334779
C            4.97045138189668       -4.81044534959052       -0.00038320995041
C           -1.40041124894717       -1.25003554701572       -0.00003109746570
C            0.72952139534572       -2.46439889904062       -0.00007443816880
C            3.59784716975271        4.90237069889471        0.00031134612722
C           -4.92464884770963       -0.03860805476557       -0.00000092515577
C           -2.79837741178527       -1.25891507564096        0.00002374783213
C           -0.69129298191574       -2.48501640165205        0.00001539736100
C            1.45648813430038       -3.68691329652757       -0.00012308180580
C            1.40091362887234        3.69833606816189        0.00003618920230
C            3.50842296692821        2.47131469587553        0.00016390739839
C           -4.92925459624424       -2.46000956468167        0.00024890599739
C            5.62150979939332        1.26090724200881        0.00015878154038
C           -2.82820225837041       -3.72075135282647        0.00019798471828
C           -0.63955710841425       -4.90490430660444        0.00006426114234
C           -0.72567236966618        2.44909913698753       -0.00007439903167
C            1.39883069694699        1.23559303240790       -0.00000221252486
C            3.53221246665864        0.01931053401068       -0.00000097211753
C           -4.97023067423147       -4.85412006279224        0.00051153029647
C            5.64603739774639       -1.19631929889197       -0.00008106814836
C           -2.82653762138499        1.19875674883882       -0.00009023023490
C            5.67110159298194       -3.66263351787433       -0.00029327549473
C           -0.69904506673324       -0.01159634964219       -0.00005515240356
C            1.41990456374480       -1.23036258699634       -0.00004988229680
C            3.55451325382013       -2.42826427733111       -0.00015957964719
H           -6.74977011176516        3.63870170568932       -0.00036711161522
H            1.23231390204893       -5.84900760099307       -0.00005247739464
H           -6.73032829628722       -3.61374282172217        0.00056485281363
H           -3.11794202340358       -5.86403013577412        0.00040383888265
H           -6.71986446664214        1.13539653786617       -0.00014138239908
H            5.44050037821191       -5.78266608468009       -0.00048288258726
H            3.12005081226933       -5.69377720119837       -0.00046769263438
H           -1.14780784405983       -5.85563614550879        0.00012931084317
H           -5.53818220048415       -5.77323261431027        0.00067064553570
H           -3.13363413036655        5.67925329037858       -0.00023292268505
H           -1.23657647671599        5.83858940974596       -0.00019821239000
H           -5.45338887867317        5.75101307608276       -0.00037880228989
H            5.56331179465013        5.72687333032625        0.00055616994780
H            1.14257205614532        5.84926248646101       -0.00007285010825
H            3.12624573402347        5.86901832424272        0.00033817907228
H            6.70303185234315        1.26859613315947        0.00020030050961
H            6.72673969077710       -1.17873450896968       -0.00008013105640
H            6.74860779006504       -3.67562097598059       -0.00031163104853
N            5.60392195049191        3.65121060062171        0.00045016188425
N           -3.61605511134084        4.79537693848818       -0.00023152340333
N            3.60772329339157       -4.81323430793207       -0.00033798021473
H            6.61151691949091        3.62998355203766        0.00032075670270
H           -6.58250558895775       -1.24583870167211        0.00019432323544
74
 energy: -129.303295194109 gnorm: 0.000454248744 xtb: 6.7.1pre (5071a88)
C           -5.67249470271332        3.63066635470820       -0.00028351367809
C           -0.71794630274976        4.88916439938367       -0.00013170225529
C           -4.97503886405045        4.78321947291081       -0.00031157546612
C           -2.85998511221119        3.63736801300054       -0.00018286940388
C           -4.97668116151882        2.37437124254132       -0.00017946076569
C            4.94318186385531        4.84372070715638        0.00040346213396
C            0.63378935001519        4.89864361658720       -0.00003793905859
C            0.71826749746370       -4.89755315929570       -0.00005257529539