      -----------------------------------------------------------      
     |                   =====================                   |     
     |                           x T B                           |     
     |                   =====================                   |     
     |                         S. Grimme                         |     
     |          Mulliken Center for Theoretical Chemistry        |     
     |                    University of Bonn                     |     
      -----------------------------------------------------------      

   * xtb version 6.7.1pre (5071a88) compiled by 'Marcel@Raven' on 2024-07-23

   xtb is free software: you can redistribute it and/or modify it under
   the terms of the GNU Lesser General Public License as published by
   the Free Software Foundation, either version 3 of the License, or
   (at your option) any later version.
   
   xtb is distributed in the hope that it will be useful,
   but WITHOUT ANY WARRANTY; without even the implied warranty of
   MERCHANTABILITY or FITNESS FOR A PARTICULAR PURPOSE.  See the
   GNU Lesser General Public License for more details.
   
   Cite this work as:
   * C. Bannwarth, E. Caldeweyher, S. Ehlert, A. Hansen, P. Pracht,
     J. Seibert, S. Spicher, S. Grimme, WIREs Comput. Mol. Sci., 2020, 11,
     e01493. DOI: 10.1002/wcms.1493
   
   for GFN2-xTB:
   * C. Bannwarth, S. Ehlert and S. Grimme., J. Chem. Theory Comput., 2019,
     15, 1652-1671. DOI: 10.1021/acs.jctc.8b01176
   for GFN1-xTB:
   * S. Grimme, C. Bannwarth, P. Shushkov, J. Chem. Theory Comput., 2017,
     13, 1989-2009. DOI: 10.1021/acs.jctc.7b00118
   for GFN0-xTB:
   * P. Pracht, E. Caldeweyher, S. Ehlert, S. Grimme, ChemRxiv, 2019, preprint.
     DOI: 10.26434/chemrxiv.8326202.v1
   for GFN-FF:
   * S. Spicher and S. Grimme, Angew. Chem. Int. Ed., 2020, 59, 15665-15673.
     DOI: 10.1002/anie.202004239
   
   for ALPB and GBSA implicit solvation:
   * S. Ehlert, M. Stahn, S. Spicher, S. Grimme, J. Chem. Theory Comput.,
     2021, 17, 4250-4261. DOI: 10.1021/acs.jctc.1c00471
   
   for ddCOSMO and CPCM-X implicit solvation:
   * M. Stahn, S. Ehlert, S. Grimme, J. Phys. Chem. A,
     2023, XX, XXXX-XXXX. DOI: 10.1021/acs.jpca.3c04382
   
   for DFT-D4:
   * E. Caldeweyher, C. Bannwarth and S. Grimme, J. Chem. Phys., 2017,
     147, 034112. DOI: 10.1063/1.4993215
   * E. Caldeweyher, S. Ehlert, A. Hansen, H. Neugebauer, S. Spicher,
     C. Bannwarth and S. Grimme, J. Chem. Phys., 2019, 150, 154122.
     DOI: 10.1063/1.5090222
   * E. Caldeweyher, J.-M. Mewes, S. Ehlert and S. Grimme, Phys. Chem. Chem. Phys.
     2020, 22, 8499-8512. DOI: 10.1039/D0CP00502A
   
   for sTDA-xTB:
   * S. Grimme and C. Bannwarth, J. Chem. Phys., 2016, 145, 054103.
     DOI: 10.1063/1.4959605
   
   in the mass-spec context:
   * V. Asgeirsson, C. Bauer and S. Grimme, Chem. Sci., 2017, 8, 4879.
     DOI: 10.1039/c7sc00601b
   * J. Koopman and S. Grimme, ACS Omega 2019, 4, 12, 15120-15133.
     DOI: 10.1021/acsomega.9b02011
   
   for metadynamics refer to:
   * S. Grimme, J. Chem. Theory Comput., 2019, 155, 2847-2862
     DOI: 10.1021/acs.jctc.9b00143
   
   for SPH calculations refer to:
   * S. Spicher and S. Grimme, J. Chem. Theory Comput., 2021, 17, 1701-1714
     DOI: 10.1021/acs.jctc.0c01306
   
   for ONIOM refer to:
   * C. Plett, A. Katbashev, S. Ehlert, S. Grimme, M. Bursch,
     Phys. Chem. Chem. Phys., 2023, 25, 17860-17868. DOI: 10.1039/D3CP02178E
   
   for DIPRO refer to:
   * J. Kohn, N. Gildemeister, S. Grimme, D. Fazzi, A. Hansen,
     J. Chem. Phys., 2023, just accepted.
   
   for PTB refer to:
   * S. Grimme, M. Mueller, A. Hansen, J. Chem. Phys., 2023, 158, 124111.
     DOI: 10.1063/5.0137838
   
   with help from (in alphabetical order)
   P. Atkinson, C. Bannwarth, F. Bohle, G. Brandenburg, E. Caldeweyher
   M. Checinski, S. Dohm, S. Ehlert, S. Ehrlich, I. Gerasimov, C. Hölzer
   A. Katbashev, J. Kohn, J. Koopman, C. Lavigne, S. Lehtola, F. März, M. Müller,
   F. Musil, H. Neugebauer, J. Pisarek, C. Plett, P. Pracht, F. Pultar,
   J. Seibert, P. Shushkov, S. Spicher, M. Stahn, M. Steiner, T. Strunk,
   J. Stückrath, T. Rose, and J. Unsleber
   
 * started run on 2025/12/08 at 00:33:13.814     
   ID    Z sym.   atoms
    1    6 C      1-5, 7-38, 40-100
    2    7 N      6, 39, 127, 128, 131, 132
    3    1 H      101-126, 129, 130

           -------------------------------------------------
          |                Calculation Setup                |
           -------------------------------------------------

          program call               : xtb "C:\Users\LENOVO GAMING\Documents\GitHub\molecular-conductivity-sim\results\1.5nm-6Ndoped-5percent\xtbopt.xyz" --sp
          coordinate file            : C:\Users\LENOVO GAMING\Documents\GitHub\molecular-conductivity-sim\results\1.5nm-6Ndoped-5percent\xtbopt.xyz
          omp threads                :                    16


           -------------------------------------------------
          |                 G F N 2 - x T B                 |
           -------------------------------------------------

        Reference                      10.1021/acs.jctc.8b01176
      * Hamiltonian:
        H0-scaling (s, p, d)           1.850000    2.230000    2.230000
        zeta-weighting                 0.500000
      * Dispersion:
        s8                             2.700000
        a1                             0.520000
        a2                             5.000000
        s9                             5.000000
      * Repulsion:
        kExp                           1.500000    1.000000
        rExp                           1.000000
      * Coulomb:
        alpha                          2.000000
        third order                    shell-resolved
        anisotropic                    true
        a3                             3.000000
        a5                             4.000000
        cn-shift                       1.200000
        cn-exp                         4.000000
        max-rad                        5.000000

q/qsh data taken from xtbrestart
CAMM data taken from xtbrestart

          ...................................................
          :                      SETUP                      :
          :.................................................:
          :  # basis functions                 444          :
          :  # atomic orbitals                 444          :
          :  # shells                          236          :
          :  # electrons                       450          :
          :  max. iterations                   250          :
          :  Hamiltonian                  GFN2-xTB          :
          :  restarted?                       true          :
          :  GBSA solvation                  false          :
          :  PC potential                    false          :
          :  electronic temp.          300.0000000     K    :
          :  accuracy                    1.0000000          :
          :  -> integral cutoff          0.2500000E+02      :
          :  -> integral neglect         0.1000000E-07      :
          :  -> SCF convergence          0.1000000E-05 Eh   :
          :  -> wf. convergence          0.1000000E-03 e    :
          :  Broyden damping             0.4000000          :
          :  net charge                          0          :
          :  unpaired electrons                  0          :
          ...................................................

 iter      E             dE          RMSdq      gap      omega  full diag
   1   -247.1544399 -0.247154E+03  0.131E-05    0.35       0.0  T
   2   -247.1544399  0.128580E-09  0.254E-05    0.35     342.1  T
   3   -247.1544399 -0.155552E-09  0.435E-06    0.35    1999.3  T

   *** convergence criteria satisfied after 3 iterations ***

         #    Occupation            Energy/Eh            Energy/eV
      -------------------------------------------------------------
         1        2.0000           -0.6857173             -18.6593
       ...           ...                  ...                  ...
       219        2.0000           -0.3640533              -9.9064
       220        2.0000           -0.3557315              -9.6799
       221        2.0000           -0.3420702              -9.3082
       222        2.0000           -0.3364334              -9.1548
       223        2.0000           -0.3279993              -8.9253
       224        2.0000           -0.3188894              -8.6774
       225        1.9978           -0.2903460              -7.9007 (HOMO)
       226        0.0022           -0.2773728              -7.5477 (LUMO)
       227        0.0000           -0.2694419              -7.3319
       228                         -0.2633491              -7.1661
       229                         -0.2566616              -6.9841
       230                         -0.2517925              -6.8516
       ...                                ...                  ...
       444                          0.8028136              21.8457
      -------------------------------------------------------------
                  HL-Gap            0.0129732 Eh            0.3530 eV
             Fermi-level           -0.2838595 Eh           -7.7242 eV

 SCC (total)                   0 d,  0 h,  0 min,  0.273 sec
 SCC setup                      ...        0 min,  0.002 sec (  0.733%)
 Dispersion                     ...        0 min,  0.010 sec (  3.663%)
 classical contributions        ...        0 min,  0.000 sec (  0.000%)
 integral evaluation            ...        0 min,  0.025 sec (  9.158%)
 iterations                     ...        0 min,  0.160 sec ( 58.608%)
 molecular gradient             ...        0 min,  0.071 sec ( 26.007%)
 printout                       ...        0 min,  0.004 sec (  1.465%)

         :::::::::::::::::::::::::::::::::::::::::::::::::::::
         ::                     SUMMARY                     ::
         :::::::::::::::::::::::::::::::::::::::::::::::::::::
         :: total energy            -242.534025229660 Eh    ::
         :: gradient norm              0.000275246852 Eh/a0 ::
         :: HOMO-LUMO gap              0.353017635916 eV    ::
         ::.................................................::
         :: SCC energy              -247.162517651010 Eh    ::
         :: -> isotropic ES            0.028273659051 Eh    ::
         :: -> anisotropic ES          0.024789924136 Eh    ::
         :: -> anisotropic XC          0.079150355315 Eh    ::
         :: -> dispersion             -0.289355780786 Eh    ::
         :: repulsion energy           4.628492421349 Eh    ::
         :: add. restraining           0.000000000000 Eh    ::
         :: total charge              -0.000000000000 e     ::
         :::::::::::::::::::::::::::::::::::::::::::::::::::::

           -------------------------------------------------
          |                Property Printout                |
           -------------------------------------------------

    * Orbital Energies and Occupations

         #    Occupation            Energy/Eh            Energy/eV
      -------------------------------------------------------------
         1        2.0000           -0.6857173             -18.6593
       ...           ...                  ...                  ...
       213        2.0000           -0.3796090             -10.3297
       214        2.0000           -0.3756120             -10.2209
       215        2.0000           -0.3713493             -10.1049
       216        2.0000           -0.3709819             -10.0949
       217        2.0000           -0.3688496             -10.0369
       218        2.0000           -0.3650459              -9.9334
       219        2.0000           -0.3640533              -9.9064
       220        2.0000           -0.3557315              -9.6799
       221        2.0000           -0.3420702              -9.3082
       222        2.0000           -0.3364334              -9.1548
       223        2.0000           -0.3279993              -8.9253
       224        2.0000           -0.3188894              -8.6774
       225        1.9978           -0.2903460              -7.9007 (HOMO)
       226        0.0022           -0.2773728              -7.5477 (LUMO)
       227        0.0000           -0.2694419              -7.3319
       228                         -0.2633491              -7.1661
       229                         -0.2566616              -6.9841
       230                         -0.2517925              -6.8516
       231                         -0.2428485              -6.6082
       232                         -0.2400365              -6.5317
       233                         -0.2374214              -6.4606
       234                         -0.2340914              -6.3700
       235                         -0.2314427              -6.2979
       236                         -0.2270993              -6.1797
       ...                                ...                  ...
       444                          0.8028136              21.8457
      -------------------------------------------------------------
                  HL-Gap            0.0129732 Eh            0.3530 eV
             Fermi-level           -0.2838595 Eh           -7.7242 eV

     #   Z          covCN         q      C6AA      α(0)
     1   6 C        2.911    -0.045    29.105     8.846
     2   6 C        2.916    -0.052    29.283     8.874
     3   6 C        2.978    -0.021    28.527     8.761
     4   6 C        2.919    -0.054    29.345     8.883
     5   6 C        2.982    -0.021    28.518     8.760
     6   7 N        2.751     0.008    21.118     6.825
     7   6 C        2.913    -0.044    29.093     8.845
     8   6 C        2.975    -0.031    28.780     8.800
     9   6 C        2.916    -0.037    28.928     8.820
    10   6 C        2.921     0.038    27.158     8.546
    11   6 C        2.991    -0.005    28.143     8.702
    12   6 C        2.919    -0.072    29.792     8.951
    13   6 C        2.998    -0.015    28.386     8.740
    14   6 C        2.989    -0.017    28.432     8.747
    15   6 C        2.995    -0.015    28.380     8.739
    16   6 C        2.920    -0.085    30.126     9.001
    17   6 C        2.917    -0.030    28.748     8.792
    18   6 C        2.979     0.003    27.957     8.673
    19   6 C        2.928     0.055    26.758     8.483
    20   6 C        2.927     0.045    26.987     8.519
    21   6 C        2.917     0.068    26.477     8.438
    22   6 C        2.991     0.003    27.943     8.671
    23   6 C        2.992     0.001    27.984     8.678
    24   6 C        2.911     0.063    26.597     8.457
    25   6 C        2.993     0.001    27.996     8.679
    26   6 C        2.978     0.012    27.738     8.639
    27   6 C        2.848     0.029    27.359     8.572
    28   6 C        2.914     0.040    27.108     8.538
    29   6 C        2.919     0.065    26.545     8.449
    30   6 C        2.990    -0.007    28.186     8.709
    31   6 C        2.994    -0.001    28.044     8.687
    32   6 C        2.912     0.058    26.693     8.472
    33   6 C        2.986    -0.009    28.226     8.715
    34   6 C        2.991    -0.004    28.109     8.697
    35   6 C        2.994    -0.003    28.095     8.695
    36   6 C        2.980     0.014    27.688     8.631
    37   6 C        2.911    -0.081    30.017     8.984
    38   6 C        2.992    -0.015    28.380     8.739
    39   7 N        2.704    -0.114    23.488     7.198
    40   6 C        2.991    -0.006    28.161     8.705
    41   6 C        2.996    -0.010    28.265     8.721
    42   6 C        2.919    -0.090    30.249     9.019
    43   6 C        2.988    -0.018    28.452     8.750
    44   6 C        2.912     0.064    26.556     8.450
    45   6 C        2.916    -0.040    28.994     8.830
    46   6 C        2.991    -0.008    28.198     8.711
    47   6 C        2.920    -0.066    29.632     8.927
    48   6 C        2.992    -0.001    28.052     8.688
    49   6 C        2.993    -0.009    28.221     8.714
    50   6 C        2.993    -0.001    28.046     8.687
    51   6 C        2.980    -0.021    28.530     8.762
    52   6 C        2.992    -0.008    28.208     8.712
    53   6 C        2.990     0.002    27.965     8.675
    54   6 C        2.990    -0.004    28.117     8.698
    55   6 C        2.917     0.065    26.535     8.447
    56   6 C        2.990    -0.003    28.094     8.695
    57   6 C        2.912    -0.061    29.526     8.910
    58   6 C        2.989    -0.003    28.090     8.694
    59   6 C        2.995    -0.011    28.272     8.722
    60   6 C        2.989     0.000    28.013     8.682
    61   6 C        2.990    -0.005    28.140     8.702
    62   6 C        2.978     0.004    27.926     8.668
    63   6 C        2.988    -0.005    28.149     8.703
    64   6 C        2.917    -0.031    28.779     8.797
    65   6 C        2.986    -0.002    28.076     8.692
    66   6 C        2.923    -0.062    29.541     8.913
    67   6 C        2.979     0.000    28.016     8.682
    68   6 C        2.994    -0.005    28.147     8.703
    69   6 C        2.917    -0.039    28.958     8.824
    70   6 C        2.988    -0.011    28.282     8.724
    71   6 C        2.989     0.001    28.007     8.681
    72   6 C        2.990    -0.005    28.140     8.702
    73   6 C        2.976     0.011    27.754     8.642
    74   6 C        2.917    -0.042    29.050     8.838
    75   6 C        2.991    -0.005    28.142     8.702
    76   6 C        2.990    -0.002    28.079     8.692
    77   6 C        2.995    -0.014    28.360     8.736
    78   6 C        2.990     0.001    27.996     8.679
    79   6 C        2.921    -0.086    30.152     9.005
    80   6 C        2.979    -0.000    28.031     8.685
    81   6 C        2.991    -0.005    28.133     8.701
    82   6 C        2.991    -0.004    28.115     8.698
    83   6 C        2.978     0.013    27.728     8.638
    84   6 C        2.991    -0.003    28.085     8.693
    85   6 C        2.917     0.054    26.785     8.487
    86   6 C        2.995    -0.017    28.422     8.745
    87   6 C        2.914    -0.044    29.086     8.844
    88   6 C        2.991    -0.002    28.075     8.692
    89   6 C        2.996    -0.009    28.237     8.717
    90   6 C        2.990    -0.002    28.059     8.689
    91   6 C        2.920    -0.071    29.760     8.946
    92   6 C        2.989    -0.005    28.146     8.703
    93   6 C        2.847     0.020    27.556     8.603
    94   6 C        2.989    -0.009    28.240     8.717
    95   6 C        2.990     0.001    28.004     8.681
    96   6 C        2.978    -0.004    28.112     8.697
    97   6 C        2.989    -0.002    28.074     8.691
    98   6 C        2.919    -0.051    29.276     8.873
    99   6 C        2.986    -0.005    28.128     8.700
   100   6 C        2.989     0.000    28.019     8.683
   101   1 H        0.925     0.006     2.961     2.691
   102   1 H        0.926     0.039     2.461     2.453
   103   1 H        0.926     0.027     2.630     2.536
   104   1 H        0.860     0.174     1.248     1.750
   105   1 H        0.926     0.022     2.698     2.569
   106   1 H        0.926     0.036     2.507     2.476
   107   1 H        0.926     0.019     2.750     2.593
   108   1 H        0.926     0.016     2.794     2.614
   109   1 H        0.926     0.027     2.635     2.539
   110   1 H        0.926     0.044     2.400     2.423
   111   1 H        0.926     0.036     2.506     2.476
   112   1 H        0.860     0.166     1.296     1.783
   113   1 H        0.926     0.013     2.840     2.635
   114   1 H        0.926     0.027     2.628     2.535
   115   1 H        0.926     0.020     2.732     2.585
   116   1 H        0.926     0.036     2.504     2.475
   117   1 H        0.860     0.169     1.276     1.770
   118   1 H        0.926     0.025     2.654     2.548
   119   1 H        0.926     0.019     2.745     2.591
   120   1 H        0.926     0.026     2.637     2.539
   121   1 H        0.926     0.025     2.660     2.551
   122   1 H        0.925     0.014     2.827     2.629
   123   1 H        0.925     0.009     2.906     2.666
   124   1 H        0.926     0.017     2.785     2.609
   125   1 H        0.926     0.034     2.535     2.490
   126   1 H        0.926     0.028     2.616     2.529
   127   7 N        2.706    -0.124    23.693     7.229
   128   7 N        2.706    -0.123    23.678     7.227
   129   1 H        0.860     0.163     1.317     1.798
   130   1 H        0.860     0.161     1.329     1.806
   131   7 N        2.703    -0.100    23.206     7.155
   132   7 N        2.700    -0.103    23.272     7.165

 Mol. C6AA /au·bohr⁶  :     351213.242369
 Mol. C8AA /au·bohr⁸  :    9519938.796105
 Mol. α(0) /au        :        964.551546


Wiberg/Mayer (AO) data.
largest (>0.10) Wiberg bond orders for each atom

 ---------------------------------------------------------------------------
     #   Z sym  total        # sym  WBO       # sym  WBO       # sym  WBO
 ---------------------------------------------------------------------------
     1   6 C    3.944 --     7 C    1.654     8 C    1.187   101 H    0.960
     2   6 C    3.960 --     9 C    1.625    10 C    1.214   102 H    0.957
     3   6 C    3.933 --    10 C    1.355     7 C    1.187    11 C    1.180
     4   6 C    3.955 --    17 C    1.486    18 C    1.316   103 H    0.962
     5   6 C    3.927 --    19 C    1.333     9 C    1.197    18 C    1.185
     6   7 N    3.600 --    19 C    1.156    20 C    1.119    10 C    1.092
     7   6 C    3.962 --     1 C    1.654     3 C    1.187   105 H    0.959
     8   6 C    3.946 --    28 C    1.378     1 C    1.187    30 C    1.164
     9   6 C    3.921 --     2 C    1.625     5 C    1.197   106 H    0.961
    10   6 C    3.855 --     3 C    1.355     2 C    1.214     6 N    1.092
    11   6 C    3.938 --    30 C    1.349    33 C    1.202     3 C    1.180
    12   6 C    3.946 --    17 C    1.395    21 C    1.379   107 H    0.968
    13   6 C    3.961 --    18 C    1.272    21 C    1.250    22 C    1.207
    14   6 C    3.968 --    22 C    1.282    23 C    1.230    19 C    1.219
    15   6 C    3.947 --    25 C    1.272    22 C    1.253    24 C    1.190
    16   6 C    3.927 --    24 C    1.467    26 C    1.252   108 H    0.966
    17   6 C    3.976 --     4 C    1.486    12 C    1.395   109 H    0.971
    18   6 C    3.965 --     4 C    1.316    13 C    1.272     5 C    1.185
    19   6 C    3.953 --     5 C    1.333    14 C    1.219     6 N    1.156
    20   6 C    3.915 --    33 C    1.286    43 C    1.283     6 N    1.119
    21   6 C    3.960 --    12 C    1.379    13 C    1.250   127 N    1.156
    22   6 C    3.960 --    14 C    1.282    15 C    1.253    13 C    1.207
    23   6 C    3.963 --    52 C    1.293    14 C    1.230    43 C    1.218
    24   6 C    3.947 --    16 C    1.467    15 C    1.190   127 N    1.131
    25   6 C    3.975 --    15 C    1.272    59 C    1.256    52 C    1.229
    26   6 C    3.973 --    66 C    1.345    16 C    1.252    59 C    1.216
    27   6 C    3.932 --    37 C    1.613   132 N    1.232   110 H    0.965
    28   6 C    3.855 --     8 C    1.378    38 C    1.205   132 N    1.085
    29   6 C    3.866 --    38 C    1.343    39 N    1.189    37 C    1.178
    30   6 C    3.949 --    11 C    1.349    40 C    1.218     8 C    1.164
    31   6 C    3.947 --    40 C    1.293    41 C    1.268    38 C    1.174
    32   6 C    3.940 --    42 C    1.458    41 C    1.201    39 N    1.114
    33   6 C    3.953 --    20 C    1.286    72 C    1.249    11 C    1.202
    34   6 C    3.964 --    72 C    1.254    75 C    1.251    40 C    1.237
    35   6 C    3.964 --    75 C    1.258    41 C    1.256    77 C    1.236
    36   6 C    3.968 --    79 C    1.307    42 C    1.256    77 C    1.242
    37   6 C    3.948 --    27 C    1.613    29 C    1.178   111 H    0.967
    38   6 C    3.969 --    29 C    1.343    28 C    1.205    31 C    1.174
    39   7 N    3.483 --    29 C    1.189    32 C    1.114   112 H    0.939
    40   6 C    3.972 --    31 C    1.293    34 C    1.237    30 C    1.218
    41   6 C    3.967 --    31 C    1.268    35 C    1.256    32 C    1.201
    42   6 C    3.915 --    32 C    1.458    36 C    1.256   113 H    0.966
    43   6 C    3.950 --    20 C    1.283    81 C    1.223    23 C    1.218
    44   6 C    3.942 --    79 C    1.412    86 C    1.225   128 N    1.143
    45   6 C    3.967 --    87 C    1.576    80 C    1.264   114 H    0.961
    46   6 C    3.961 --    81 C    1.284    72 C    1.238    82 C    1.220
    47   6 C    3.958 --    83 C    1.502    73 C    1.237   115 H    0.967
    48   6 C    3.961 --    82 C    1.271    84 C    1.248    75 C    1.228
    49   6 C    3.966 --    85 C    1.322    76 C    1.246    83 C    1.163
    50   6 C    3.971 --    86 C    1.266    77 C    1.257    84 C    1.233
    51   6 C    3.959 --    87 C    1.256    78 C    1.251    85 C    1.238
    52   6 C    3.958 --    23 C    1.293    25 C    1.229    88 C    1.215
    53   6 C    3.958 --    94 C    1.309    86 C    1.226    89 C    1.206
    54   6 C    3.959 --    88 C    1.265    90 C    1.245    81 C    1.233
    55   6 C    3.958 --    91 C    1.387    89 C    1.250   128 N    1.145
    56   6 C    3.960 --    82 C    1.251    90 C    1.247    92 C    1.247
    57   6 C    3.959 --    93 C    1.664    83 C    1.153   116 H    0.967
    58   6 C    3.956 --    92 C    1.262    84 C    1.262    94 C    1.219
    59   6 C    3.956 --    95 C    1.260    25 C    1.256    26 C    1.216
    60   6 C    3.981 --    96 C    1.294   100 C    1.249    94 C    1.213
    61   6 C    3.952 --    88 C    1.264    97 C    1.256    95 C    1.219
    62   6 C    3.968 --    98 C    1.324    89 C    1.281    96 C    1.168
    63   6 C    3.957 --    97 C    1.258    90 C    1.255    99 C    1.229
    64   6 C    3.975 --    98 C    1.486    91 C    1.392   118 H    0.971
    65   6 C    3.962 --    99 C    1.286    92 C    1.231   100 C    1.225
    66   6 C    3.900 --    73 C    1.371    26 C    1.345   119 H    0.967
    67   6 C    3.954 --    74 C    1.280   100 C    1.279    80 C    1.199
    68   6 C    3.955 --    95 C    1.277    76 C    1.247    73 C    1.207
    69   6 C    3.965 --    74 C    1.551    96 C    1.289   120 H    0.962
    70   6 C    3.976 --    76 C    1.257    78 C    1.255    97 C    1.230
    71   6 C    3.975 --    80 C    1.284    78 C    1.243    99 C    1.226
    72   6 C    3.962 --    34 C    1.254    33 C    1.249    46 C    1.238
    73   6 C    3.973 --    66 C    1.371    47 C    1.237    68 C    1.207
    74   6 C    3.957 --    69 C    1.551    67 C    1.280   121 H    0.961
    75   6 C    3.966 --    35 C    1.258    34 C    1.251    48 C    1.228
    76   6 C    3.968 --    70 C    1.257    68 C    1.247    49 C    1.246
    77   6 C    3.963 --    50 C    1.257    36 C    1.242    35 C    1.236
    78   6 C    3.975 --    70 C    1.255    51 C    1.251    71 C    1.243
    79   6 C    3.927 --    44 C    1.412    36 C    1.307   122 H    0.966
    80   6 C    3.939 --    71 C    1.284    45 C    1.264    67 C    1.199
    81   6 C    3.958 --    46 C    1.284    54 C    1.233    43 C    1.223
    82   6 C    3.960 --    48 C    1.271    56 C    1.251    46 C    1.220
    83   6 C    3.972 --    47 C    1.502    49 C    1.163    57 C    1.153
    84   6 C    3.962 --    58 C    1.262    48 C    1.248    50 C    1.233
    85   6 C    3.903 --    49 C    1.322    51 C    1.238   131 N    1.145
    86   6 C    3.946 --    50 C    1.266    53 C    1.226    44 C    1.225
    87   6 C    3.950 --    45 C    1.576    51 C    1.256   123 H    0.958
    88   6 C    3.958 --    54 C    1.265    61 C    1.264    52 C    1.215
    89   6 C    3.971 --    62 C    1.281    55 C    1.250    53 C    1.206
    90   6 C    3.963 --    63 C    1.255    56 C    1.247    54 C    1.245
    91   6 C    3.953 --    64 C    1.392    55 C    1.387   124 H    0.968
    92   6 C    3.952 --    58 C    1.262    56 C    1.247    65 C    1.231
    93   6 C    3.948 --    57 C    1.664   131 N    1.187   125 H    0.966
    94   6 C    3.975 --    53 C    1.309    58 C    1.219    60 C    1.213
    95   6 C    3.978 --    68 C    1.277    59 C    1.260    61 C    1.219
    96   6 C    3.956 --    60 C    1.294    69 C    1.289    62 C    1.168
    97   6 C    3.957 --    63 C    1.258    61 C    1.256    70 C    1.230
    98   6 C    3.964 --    64 C    1.486    62 C    1.324   126 H    0.963
    99   6 C    3.959 --    65 C    1.286    63 C    1.229    71 C    1.226
   100   6 C    3.975 --    67 C    1.279    60 C    1.249    65 C    1.225
   101   1 H    0.999 --     1 C    0.960
   102   1 H    0.997 --     2 C    0.957
   103   1 H    0.999 --     4 C    0.962
   104   1 H    0.969 --   132 N    0.932
   105   1 H    0.998 --     7 C    0.959
   106   1 H    0.998 --     9 C    0.961
   107   1 H    0.999 --    12 C    0.968
   108   1 H    0.998 --    16 C    0.966
   109   1 H    0.998 --    17 C    0.971
   110   1 H    0.997 --    27 C    0.965
   111   1 H    0.998 --    37 C    0.967
   112   1 H    0.971 --    39 N    0.939
   113   1 H    0.999 --    42 C    0.966
   114   1 H    0.998 --    45 C    0.961
   115   1 H    0.998 --    47 C    0.967
   116   1 H    0.998 --    57 C    0.967
   117   1 H    0.971 --   131 N    0.931
   118   1 H    0.998 --    64 C    0.971
   119   1 H    0.998 --    66 C    0.967
   120   1 H    0.998 --    69 C    0.962
   121   1 H    0.998 --    74 C    0.961
   122   1 H    0.999 --    79 C    0.966
   123   1 H    0.999 --    87 C    0.958
   124   1 H    0.999 --    91 C    0.968
   125   1 H    0.998 --    93 C    0.966
   126   1 H    0.999 --    98 C    0.963
   127   7 N    3.491 --    21 C    1.156    24 C    1.131   129 H    0.939
   128   7 N    3.486 --    55 C    1.145    44 C    1.143   130 H    0.939
   129   1 H    0.972 --   127 N    0.939
   130   1 H    0.973 --   128 N    0.939
   131   7 N    3.501 --    93 C    1.187    85 C    1.145   117 H    0.931
   132   7 N    3.479 --    27 C    1.232    28 C    1.085   104 H    0.932
 ---------------------------------------------------------------------------

Topologies differ in total number of bonds
Writing topology from bond orders to xtbtopo.mol

molecular dipole:
                 x           y           z       tot (Debye)
 q only:       -1.735      -1.649      -0.003
   full:       -2.010      -1.749      -0.005       6.772
molecular quadrupole (traceless):
                xx          xy          yy          xz          yz          zz
 q only:       33.596      61.471      19.227       0.100       0.011     -52.823
  q+dip:       67.667      64.971      45.980       0.097       0.014    -113.647
   full:       49.328      65.825      29.111       0.122       0.028     -78.439


           -------------------------------------------------
          | TOTAL ENERGY             -242.534025229660 Eh   |
          | GRADIENT NORM               0.000275246852 Eh/α |
          | HOMO-LUMO GAP               0.353017635916 eV   |
           -------------------------------------------------

------------------------------------------------------------------------
 * finished run on 2025/12/08 at 00:33:14.168     
------------------------------------------------------------------------
 total:
 * wall-time:     0 d,  0 h,  0 min,  0.351 sec
 *  cpu-time:     0 d,  0 h,  0 min,  4.594 sec
 * ratio c/w:    13.088 speedup
 SCF:
 * wall-time:     0 d,  0 h,  0 min,  0.275 sec
 *  cpu-time:     0 d,  0 h,  0 min,  3.672 sec
 * ratio c/w:    13.352 speedup

normal termination of xtb
