      -----------------------------------------------------------      
     |                   =====================                   |     
     |                           x T B                           |     
     |                   =====================                   |     
     |                         S. Grimme                         |     
     |          Mulliken Center for Theoretical Chemistry        |     
     |                    University of Bonn                     |     
      -----------------------------------------------------------      

   * xtb version 6.7.1pre (5071a88) compiled by 'Marcel@Raven' on 2024-07-23

   xtb is free software: you can redistribute it and/or modify it under
   the terms of the GNU Lesser General Public License as published by
   the Free Software Foundation, either version 3 of the License, or
   (at your option) any later version.
   
   xtb is distributed in the hope that it will be useful,
   but WITHOUT ANY WARRANTY; without even the implied warranty of
   MERCHANTABILITY or FITNESS FOR A PARTICULAR PURPOSE.  See the
   GNU Lesser General Public License for more details.
   
   Cite this work as:
   * C. Bannwarth, E. Caldeweyher, S. Ehlert, A. Hansen, P. Pracht,
     J. Seibert, S. Spicher, S. Grimme, WIREs Comput. Mol. Sci., 2020, 11,
     e01493. DOI: 10.1002/wcms.1493
   
   for GFN2-xTB:
   * C. Bannwarth, S. Ehlert and S. Grimme., J. Chem. Theory Comput., 2019,
     15, 1652-1671. DOI: 10.1021/acs.jctc.8b01176
   for GFN1-xTB:
   * S. Grimme, C. Bannwarth, P. Shushkov, J. Chem. Theory Comput., 2017,
     13, 1989-2009. DOI: 10.1021/acs.jctc.7b00118
   for GFN0-xTB:
   * P. Pracht, E. Caldeweyher, S. Ehlert, S. Grimme, ChemRxiv, 2019, preprint.
     DOI: 10.26434/chemrxiv.8326202.v1
   for GFN-FF:
   * S. Spicher and S. Grimme, Angew. Chem. Int. Ed., 2020, 59, 15665-15673.
     DOI: 10.1002/anie.202004239
   
   for ALPB and GBSA implicit solvation:
   * S. Ehlert, M. Stahn, S. Spicher, S. Grimme, J. Chem. Theory Comput.,
     2021, 17, 4250-4261. DOI: 10.1021/acs.jctc.1c00471
   
   for ddCOSMO and CPCM-X implicit solvation:
   * M. Stahn, S. Ehlert, S. Grimme, J. Phys. Chem. A,
     2023, XX, XXXX-XXXX. DOI: 10.1021/acs.jpca.3c04382
   
   for DFT-D4:
   * E. Caldeweyher, C. Bannwarth and S. Grimme, J. Chem. Phys., 2017,
     147, 034112. DOI: 10.1063/1.4993215
   * E. Caldeweyher, S. Ehlert, A. Hansen, H. Neugebauer, S. Spicher,
     C. Bannwarth and S. Grimme, J. Chem. Phys., 2019, 150, 154122.
     DOI: 10.1063/1.5090222
   * E. Caldeweyher, J.-M. Mewes, S. Ehlert and S. Grimme, Phys. Chem. Chem. Phys.
     2020, 22, 8499-8512. DOI: 10.1039/D0CP00502A
   
   for sTDA-xTB:
   * S. Grimme and C. Bannwarth, J. Chem. Phys., 2016, 145, 054103.
     DOI: 10.1063/1.4959605
   
   in the mass-spec context:
   * V. Asgeirsson, C. Bauer and S. Grimme, Chem. Sci., 2017, 8, 4879.
     DOI: 10.1039/c7sc00601b
   * J. Koopman and S. Grimme, ACS Omega 2019, 4, 12, 15120-15133.
     DOI: 10.1021/acsomega.9b02011
   
   for metadynamics refer to:
   * S. Grimme, J. Chem. Theory Comput., 2019, 155, 2847-2862
     DOI: 10.1021/acs.jctc.9b00143
   
   for SPH calculations refer to:
   * S. Spicher and S. Grimme, J. Chem. Theory Comput., 2021, 17, 1701-1714
     DOI: 10.1021/acs.jctc.0c01306
   
   for ONIOM refer to:
   * C. Plett, A. Katbashev, S. Ehlert, S. Grimme, M. Bursch,
     Phys. Chem. Chem. Phys., 2023, 25, 17860-17868. DOI: 10.1039/D3CP02178E
   
   for DIPRO refer to:
   * J. Kohn, N. Gildemeister, S. Grimme, D. Fazzi, A. Hansen,
     J. Chem. Phys., 2023, just accepted.
   
   for PTB refer to:
   * S. Grimme, M. Mueller, A. Hansen, J. Chem. Phys., 2023, 158, 124111.
     DOI: 10.1063/5.0137838
   
   with help from (in alphabetical order)
   P. Atkinson, C. Bannwarth, F. Bohle, G. Brandenburg, E. Caldeweyher
   M. Checinski, S. Dohm, S. Ehlert, S. Ehrlich, I. Gerasimov, C. Hölzer
   A. Katbashev, J. Kohn, J. Koopman, C. Lavigne, S. Lehtola, F. März, M. Müller,
   F. Musil, H. Neugebauer, J. Pisarek, C. Plett, P. Pracht, F. Pultar,
   J. Seibert, P. Shushkov, S. Spicher, M. Stahn, M. Steiner, T. Strunk,
   J. Stückrath, T. Rose, and J. Unsleber
   
 * started run on 2025/12/08 at 00:33:07.420     
   ID    Z sym.   atoms
    1    6 C      1-5, 7-38, 40-100
    2    7 N      6, 39, 127, 128, 131, 132
    3    1 H      101-126, 129, 130

           -------------------------------------------------
          |                Calculation Setup                |
           -------------------------------------------------

          program call               : xtb "C:\Users\LENOVO GAMING\Documents\GitHub\molecular-conductivity-sim\dataset\1.5nm-6Ndoped-5percent.xyz" --opt --parallel 4
          coordinate file            : C:\Users\LENOVO GAMING\Documents\GitHub\molecular-conductivity-sim\dataset\1.5nm-6Ndoped-5percent.xyz
          omp threads                :                     4


           -------------------------------------------------
          |                 G F N 2 - x T B                 |
           -------------------------------------------------

        Reference                      10.1021/acs.jctc.8b01176
      * Hamiltonian:
        H0-scaling (s, p, d)           1.850000    2.230000    2.230000
        zeta-weighting                 0.500000
      * Dispersion:
        s8                             2.700000
        a1                             0.520000
        a2                             5.000000
        s9                             5.000000
      * Repulsion:
        kExp                           1.500000    1.000000
        rExp                           1.000000
      * Coulomb:
        alpha                          2.000000
        third order                    shell-resolved
        anisotropic                    true
        a3                             3.000000
        a5                             4.000000
        cn-shift                       1.200000
        cn-exp                         4.000000
        max-rad                        5.000000


          ...................................................
          :                      SETUP                      :
          :.................................................:
          :  # basis functions                 444          :
          :  # atomic orbitals                 444          :
          :  # shells                          236          :
          :  # electrons                       450          :
          :  max. iterations                   250          :
          :  Hamiltonian                  GFN2-xTB          :
          :  restarted?                      false          :
          :  GBSA solvation                  false          :
          :  PC potential                    false          :
          :  electronic temp.          300.0000000     K    :
          :  accuracy                    1.0000000          :
          :  -> integral cutoff          0.2500000E+02      :
          :  -> integral neglect         0.1000000E-07      :
          :  -> SCF convergence          0.1000000E-05 Eh   :
          :  -> wf. convergence          0.1000000E-03 e    :
          :  Broyden damping             0.4000000          :
          :  net charge                          0          :
          :  unpaired electrons                  0          :
          ...................................................

 iter      E             dE          RMSdq      gap      omega  full diag
   1   -246.3351018 -0.246335E+03  0.460E+00    0.38       0.0  T
   2   -246.4287005 -0.935986E-01  0.335E+00    0.44       1.0  T
   3   -246.3140398  0.114661E+00  0.209E+00    0.29       1.0  T
   4   -246.4819256 -0.167886E+00  0.105E+00    0.31       1.0  T
   5   -246.7609739 -0.279048E+00  0.559E-01    0.30       1.0  T
   6   -246.8493275 -0.883536E-01  0.226E-01    0.38       1.0  T
   7   -246.8522970 -0.296945E-02  0.139E-01    0.37       1.0  T
   8   -246.8520972  0.199771E-03  0.772E-02    0.38       1.0  T
   9   -246.8519889  0.108298E-03  0.689E-02    0.38       1.0  T
  10   -246.8527570 -0.768082E-03  0.190E-02    0.37       1.0  T
  11   -246.8528338 -0.768030E-04  0.738E-03    0.38       1.2  T
  12   -246.8528404 -0.662585E-05  0.293E-03    0.37       3.0  T
  13   -246.8528404 -0.317409E-07  0.215E-03    0.37       4.0  T
  14   -246.8528413 -0.847179E-06  0.864E-04    0.37      10.1  T
  15   -246.8528414 -0.685131E-07  0.318E-04    0.37      27.4  T

   *** convergence criteria satisfied after 15 iterations ***

         #    Occupation            Energy/Eh            Energy/eV
      -------------------------------------------------------------
         1        2.0000           -0.6842778             -18.6201
       ...           ...                  ...                  ...
       219        2.0000           -0.3633885              -9.8883
       220        2.0000           -0.3552220              -9.6661
       221        2.0000           -0.3418244              -9.3015
       222        2.0000           -0.3363721              -9.1532
       223        2.0000           -0.3281393              -8.9291
       224        2.0000           -0.3192926              -8.6884
       225        1.9986           -0.2918092              -7.9405 (HOMO)
       226        0.0014           -0.2780516              -7.5662 (LUMO)
       227        0.0000           -0.2702827              -7.3548
       228                         -0.2652503              -7.2178
       229                         -0.2578401              -7.0162
       230                         -0.2529442              -6.8830
       ...                                ...                  ...
       444                          0.7672263              20.8773
      -------------------------------------------------------------
                  HL-Gap            0.0137576 Eh            0.3744 eV
             Fermi-level           -0.2849305 Eh           -7.7534 eV

 SCC (total)                   0 d,  0 h,  0 min,  1.125 sec
 SCC setup                      ...        0 min,  0.003 sec (  0.267%)
 Dispersion                     ...        0 min,  0.009 sec (  0.800%)
 classical contributions        ...        0 min,  0.000 sec (  0.000%)
 integral evaluation            ...        0 min,  0.046 sec (  4.089%)
 iterations                     ...        0 min,  0.887 sec ( 78.844%)
 molecular gradient             ...        0 min,  0.176 sec ( 15.644%)
 printout                       ...        0 min,  0.004 sec (  0.356%)

         :::::::::::::::::::::::::::::::::::::::::::::::::::::
         ::                     SUMMARY                     ::
         :::::::::::::::::::::::::::::::::::::::::::::::::::::
         :: total energy            -242.517177608920 Eh    ::
         :: gradient norm              0.051968392555 Eh/a0 ::
         :: HOMO-LUMO gap              0.374363141283 eV    ::
         ::.................................................::
         :: SCC energy              -246.860760092135 Eh    ::
         :: -> isotropic ES            0.027438094408 Eh    ::
         :: -> anisotropic ES          0.025650336535 Eh    ::
         :: -> anisotropic XC          0.085089403629 Eh    ::
         :: -> dispersion             -0.285414954977 Eh    ::
         :: repulsion energy           4.343582483215 Eh    ::
         :: add. restraining           0.000000000000 Eh    ::
         :: total charge              -0.000000000000 e     ::
         :::::::::::::::::::::::::::::::::::::::::::::::::::::

      ----------------------------------------------------------- 
     |                   =====================                   |
     |                        A N C O P T                        |
     |                   =====================                   |
     |               Approximate Normal Coordinate               |
     |                Rational Function Optimizer                |
      ----------------------------------------------------------- 
      ----------------------------------------------------------- 
     |                   =====================                   |
     |                        A N C O P T                        |
     |                   =====================                   |
     |               Approximate Normal Coordinate               |
     |                Rational Function Optimizer                |
      ----------------------------------------------------------- 

          ...................................................
          :                      SETUP                      :
          :.................................................:
          :   optimization level            normal          :
          :   max. optcycles                   396          :
          :   ANC micro-cycles                  20          :
          :   degrees of freedom               390          :
          :.................................................:
          :   RF solver                   davidson          :
          :   write xtbopt.log                true          :
          :   linear?                        false          :
          :   energy convergence         0.5000000E-05 Eh   :
          :   grad. convergence          0.1000000E-02 Eh/α :
          :   maxmium RF displ.          1.0000000          :
          :   Hlow (freq-cutoff)         0.1000000E-01      :
          :   Hmax (freq-cutoff)         5.0000000          :
          :   S6 in model hess.         20.0000000          :
          ...................................................

generating ANC from exact Hessian ...
Using Lindh-Hessian (1995)
 Shifting diagonal of input Hessian by   9.879035475043606E-003
 Lowest  eigenvalues of input Hessian
    0.000000    0.000000    0.000000    0.000000    0.000000    0.000000
    0.010000    0.010146    0.010219    0.010434    0.010511    0.011352
    0.011441    0.011609    0.011878    0.012396    0.013023    0.013291
 Highest eigenvalues
    2.147479    2.155838    2.180065    2.196385    2.203025    2.222460
 

........................................................................
.............................. CYCLE    1 ..............................
........................................................................

 iter      E             dE          RMSdq      gap      omega  full diag
   1   -246.8528414 -0.246853E+03  0.123E-04    0.37       0.0  T
   2   -246.8528414  0.317641E-08  0.142E-04    0.37      61.5  T
   3   -246.8528414 -0.359458E-08  0.819E-05    0.37     106.3  T
     SCC iter.                  ...        0 min,  0.194 sec
     gradient                   ...        0 min,  0.186 sec
 * total energy  :  -242.5171776 Eh     change       -0.1252070E-07 Eh
   gradient norm :     0.0519590 Eh/α   predicted     0.0000000E+00 (-100.00%)
   displ. norm   :     0.4988059 α      lambda       -0.1527087E-01
   maximum displ.:     0.3561647 α      in ANC's #43, #44, #70, ...

........................................................................
.............................. CYCLE    2 ..............................
........................................................................

 iter      E             dE          RMSdq      gap      omega  full diag
   1   -246.9951358 -0.246995E+03  0.112E-01    0.36       0.0  T
   2   -246.9943866  0.749196E-03  0.958E-02    0.37       1.0  T
   3   -246.9944321 -0.454955E-04  0.796E-02    0.36       1.0  T
   4   -246.9951076 -0.675496E-03  0.444E-02    0.36       1.0  T
   5   -246.9954206 -0.313000E-03  0.163E-02    0.37       1.0  T
   6   -246.9955011 -0.805311E-04  0.477E-03    0.36       1.8  T
   7   -246.9955071 -0.594734E-05  0.126E-03    0.36       6.9  T
   8   -246.9955071 -0.363825E-07  0.809E-04    0.36      10.8  T
   9   -246.9955072 -0.668821E-07  0.224E-04    0.36      38.8  T
     SCC iter.                  ...        0 min,  0.542 sec
     gradient                   ...        0 min,  0.175 sec
 * total energy  :  -242.5287551 Eh     change       -0.1157751E-01 Eh
   gradient norm :     0.0249144 Eh/α   predicted    -0.9535477E-02 ( -17.64%)
   displ. norm   :     0.4973219 α      lambda       -0.7563212E-02
   maximum displ.:     0.3736736 α      in ANC's #43, #44, #21, ...

........................................................................
.............................. CYCLE    3 ..............................
........................................................................

 iter      E             dE          RMSdq      gap      omega  full diag
   1   -247.1145758 -0.247115E+03  0.102E-01    0.35       0.0  T
   2   -247.1138407  0.735125E-03  0.914E-02    0.36       1.0  T
   3   -247.1142514 -0.410675E-03  0.670E-02    0.35       1.0  T
   4   -247.1146032 -0.351875E-03  0.427E-02    0.35       1.0  T
   5   -247.1148625 -0.259295E-03  0.177E-02    0.36       1.0  T
   6   -247.1149605 -0.979870E-04  0.471E-03    0.35       1.8  T
   7   -247.1149663 -0.576566E-05  0.107E-03    0.35       8.2  T
   8   -247.1149663 -0.279695E-07  0.700E-04    0.35      12.4  T
   9   -247.1149664 -0.458581E-07  0.211E-04    0.35      41.3  T
     SCC iter.                  ...        0 min,  0.575 sec
     gradient                   ...        0 min,  0.185 sec
 * total energy  :  -242.5335156 Eh     change       -0.4760418E-02 Eh
   gradient norm :     0.0070850 Eh/α   predicted    -0.4717126E-02 (  -0.91%)
   displ. norm   :     0.2016954 α      lambda       -0.8694651E-03
   maximum displ.:     0.1512188 α      in ANC's #43, #44, #21, ...

........................................................................
.............................. CYCLE    4 ..............................
........................................................................

 iter      E             dE          RMSdq      gap      omega  full diag
   1   -247.1528264 -0.247153E+03  0.400E-02    0.35       0.0  T
   2   -247.1527855  0.409641E-04  0.291E-02    0.35       1.0  T
   3   -247.1527041  0.813977E-04  0.282E-02    0.35       1.0  T
   4   -247.1528247 -0.120670E-03  0.131E-02    0.35       1.0  T
   5   -247.1528491 -0.243557E-04  0.553E-03    0.35       1.6  T
   6   -247.1528578 -0.875387E-05  0.160E-03    0.35       5.4  T
   7   -247.1528585 -0.688703E-06  0.376E-04    0.35      23.1  T
   8   -247.1528585 -0.663988E-09  0.261E-04    0.35      33.4  T
     SCC iter.                  ...        0 min,  0.479 sec
     gradient                   ...        0 min,  0.187 sec
 * total energy  :  -242.5339957 Eh     change       -0.4801895E-03 Eh
   gradient norm :     0.0033137 Eh/α   predicted    -0.4524179E-03 (  -5.78%)
   displ. norm   :     0.0315130 α      lambda       -0.3577395E-04
   maximum displ.:     0.0164743 α      in ANC's #43, #21, #44, ...

........................................................................
.............................. CYCLE    5 ..............................
........................................................................

 iter      E             dE          RMSdq      gap      omega  full diag
   1   -247.1552567 -0.247155E+03  0.850E-03    0.35       0.0  T
   2   -247.1552533  0.337375E-05  0.653E-03    0.35       1.3  T
   3   -247.1552451  0.817179E-05  0.783E-03    0.35       1.1  T
   4   -247.1552572 -0.120394E-04  0.143E-03    0.35       6.1  T
   5   -247.1552577 -0.483494E-06  0.365E-04    0.35      23.8  T
   6   -247.1552577 -0.203526E-07  0.163E-04    0.35      53.4  T
     SCC iter.                  ...        0 min,  0.363 sec
     gradient                   ...        0 min,  0.190 sec
 * total energy  :  -242.5340189 Eh     change       -0.2311350E-04 Eh
   gradient norm :     0.0016513 Eh/α   predicted    -0.1798794E-04 ( -22.18%)
   displ. norm   :     0.0217237 α      lambda       -0.8464232E-05
   maximum displ.:     0.0126864 α      in ANC's #21, #16, #70, ...

........................................................................
.............................. CYCLE    6 ..............................
........................................................................

 iter      E             dE          RMSdq      gap      omega  full diag
   1   -247.1547620 -0.247155E+03  0.645E-03    0.35       0.0  T
   2   -247.1547577  0.432051E-05  0.616E-03    0.35       1.4  T
   3   -247.1547596 -0.196030E-05  0.470E-03    0.35       1.9  T
   4   -247.1547629 -0.324813E-05  0.154E-03    0.35       5.6  T
   5   -247.1547633 -0.401533E-06  0.477E-04    0.35      18.2  T
   6   -247.1547633 -0.498196E-07  0.268E-04    0.35      32.5  T
     SCC iter.                  ...        0 min,  0.380 sec
     gradient                   ...        0 min,  0.174 sec
 * total energy  :  -242.5340241 Eh     change       -0.5280531E-05 Eh
   gradient norm :     0.0008030 Eh/α   predicted    -0.4233393E-05 ( -19.83%)
   displ. norm   :     0.0065233 α      lambda       -0.1064516E-05
   maximum displ.:     0.0032879 α      in ANC's #43, #44, #21, ...

........................................................................
.............................. CYCLE    7 ..............................
........................................................................

 iter      E             dE          RMSdq      gap      omega  full diag
   1   -247.1544399 -0.247154E+03  0.206E-03    0.35       0.0  T
   2   -247.1544397  0.144932E-06  0.154E-03    0.35       5.6  T
   3   -247.1544392  0.503259E-06  0.185E-03    0.35       4.7  T
   4   -247.1544399 -0.650273E-06  0.491E-04    0.35      17.7  T
   5   -247.1544399 -0.479498E-07  0.123E-04    0.35      71.0  T
     SCC iter.                  ...        0 min,  0.314 sec
     gradient                   ...        0 min,  0.181 sec
 * total energy  :  -242.5340252 Eh     change       -0.1092407E-05 Eh
   gradient norm :     0.0002727 Eh/α   predicted    -0.5886578E-06 ( -46.11%)
   displ. norm   :     0.0055645 α      lambda       -0.1787371E-06
   maximum displ.:     0.0032981 α      in ANC's #8, #11, #13, ...

   *** GEOMETRY OPTIMIZATION CONVERGED AFTER 7 ITERATIONS ***

------------------------------------------------------------------------
 total energy gain   :        -0.0168476 Eh      -10.5720 kcal/mol
 total RMSD          :         0.1051236 a0        0.0556 Å
 total power (kW/mol):        -6.3190591 (step)   -9.4657 (real)
------------------------------------------------------------------------

 ANCopt (total)                0 d,  0 h,  0 min,  4.673 sec
 optimizer setup                ...        0 min,  0.001 sec (  0.021%)
 model hessian                  ...        0 min,  0.116 sec (  2.482%)
 ANC generation                 ...        0 min,  0.035 sec (  0.749%)
 coordinate transformation      ...        0 min,  0.000 sec (  0.000%)
 single point calculation       ...        0 min,  4.498 sec ( 96.255%)
 optimization log               ...        0 min,  0.015 sec (  0.321%)
 hessian update                 ...        0 min,  0.001 sec (  0.021%)
 rational function              ...        0 min,  0.004 sec (  0.086%)

================
 final structure:
================
132
 xtb: 6.7.1pre (5071a88)
C           -2.94722457789144       -7.27055431405456       -0.02102810726584
C            1.30539107033308       -7.32921485324600        0.05380142953027
C           -0.81052730679332       -6.09926707144860        0.00335892629640
C            5.58537229993910       -7.40969279416437        0.00484801670337
C            3.41087078379188       -6.17461326722773        0.02292601296625
N            1.32400475469488       -4.91627004641271        0.01410162853030
C           -1.59709695675237       -7.29411726523015       -0.01380432873981
C           -3.68783373072196       -6.04995611157428       -0.01247438323116
C            2.65168858242482       -7.37680148803706        0.05387484618352
C            0.58189986526841       -6.10753962891429        0.02129830870670
C           -1.52531075180376       -4.86274643441564       -0.00019208480057
C            7.66589097442796       -6.19540686505888       -0.00851724407452
C            5.55724572429723       -4.99830973712332        0.00205000359188
C            3.44756014324268       -3.73988093746551        0.00540934225110
C            5.58649305634553       -2.55614243046490       -0.00314874177020
C            7.72781175599564       -1.40723813633492       -0.01190565739933
C            6.96036491460596       -7.39081818602247       -0.00445346007615
C            4.84363505631222       -6.21511240901382        0.01052776905592
C            2.71021891802317       -4.95704169923675        0.01347010277528
C            0.64648580740935       -3.69671706195717        0.00780064215008
C            6.97004040573054       -4.99701422402790       -0.00586981087984
C            4.85473983747147       -3.76425287966730        0.00190893292723
C            2.77949281656052       -2.49261843110440        0.00371454264116
C            7.00985699676381       -2.57505742615283       -0.00864368421107
C            4.92107248998154       -1.31700333555438       -0.00265787862756
C            7.07989883248192       -0.15089225818217       -0.00987807694285
C           -7.22968686803288       -7.07316519640314       -0.01936445023105
C           -5.07294617613554       -5.99120052318980       -0.01386750960599
C           -7.14474217692514       -4.68047411910014       -0.01315198179094
C           -2.92058088614208       -4.83284286165083       -0.00585510358353
C           -4.99412119967796       -3.53691666864051       -0.00713116419648
C           -7.09609855441023       -2.26333699724016       -0.00747049723386
C           -0.76436540834167       -3.65844231180866        0.00433161957374
C           -2.85363365002849       -2.37541906961058       -0.00048165586674
C           -4.94726850817813       -1.10014740924899       -0.00223079304544
C           -7.05553905590442        0.16041033332627       -0.00269751445194
C           -7.89569253603517       -5.89555965983286       -0.01753935480981
C           -5.75480987081007       -4.74401508451532       -0.01117654486293
N           -7.76922173618864       -3.47024958077143       -0.01107535350815
C           -3.59276746736711       -3.58256714745006       -0.00448643481573
C           -5.67553690842989       -2.30641065542198       -0.00551212837019
C           -7.76387053777593       -1.06358331881657       -0.00585829004762
C            1.36320007932699       -2.48289009986998        0.00544009370866
C           -6.99518980290841        2.58311353160058        0.00115619715679
C            1.63636711675335        7.31773761063914        0.00356958151276
C           -0.71594208991694       -1.19639765907981        0.00366985685304
C            7.86114007738241        3.50315933554201       -0.01118699940458
C           -2.80509941383586        0.07839258491404        0.00205813215397
C            5.78540190227573        4.77013373688933       -0.00544561493160
C           -4.90367867443848        1.33901570123672        0.00120794548981
C            3.70602421863903        6.06327647077909       -0.00042824935868
C            3.50521508625425       -1.29042371255881        0.00063796267150
C           -4.84996221607310        3.78743362143390        0.00373368771729
C            1.41961524383353       -0.01706363701674        0.00254654671445
C           -6.97056449467193        5.00627322269971        0.00418145486133
C           -0.66956797865719        1.26105545861167        0.00338638710006
C            7.92386449422635        5.96637282350182       -0.00976959174903
C           -2.75984905644391        2.52787905158277        0.00354074544026
C            5.65788340650540       -0.11329179156653       -0.00566300298563
C           -2.72600812056514        4.99525591646791        0.00502184565047
C            3.56218624580872        1.16214940899999       -0.00116370921455
C           -4.85996165597484        6.24970763554628        0.00601226089342
C            1.47421003505702        2.43828499353658        0.00185843179366
C           -6.99025727871330        7.40091534850563        0.00683890590142
C           -0.61643787874251        3.71904346588887        0.00375501412372
C            7.78877830900473        1.05049500572674       -0.01196378103710
C           -0.57028143642824        6.17285126334254        0.00493753011404
C            5.71842795005311        2.32670630486641       -0.00615968278398
C           -2.65755370734246        7.40648092842981        0.00669896765980
C            3.62715325592496        3.61213246125115       -0.00135859991671
C            1.53552394436903        4.89838056219651        0.00229611333538
C           -1.44057779081572       -2.41186545751759        0.00261344999012
C            7.14305479514452        2.28265896736800       -0.00983908440378
C           -1.29458437106282        7.38222723657005        0.00616456233240
C           -3.53624528884585       -1.13594185529737       -0.00013226228081
C            5.03959154639221        3.56847926817937       -0.00427835576501
C           -5.63821833378598        0.13443686526404       -0.00116121385117
C            2.95692635672790        4.85764363327079        0.00023216725528
C           -7.71030066113171        1.40203817887426       -0.00121599455757
C            0.85887828264514        6.13817608811886        0.00370303884069
C            0.68668933970732       -1.23238300325004        0.00385640976542
C           -1.39790840325691        0.04940237260064        0.00316388815091
C            7.22132061233923        4.71252477737343       -0.00889035275810
C           -3.48716640938780        1.31694485898510        0.00235081028318
C            5.12102075163954        6.00095373482543       -0.00325479319615
C           -5.58040816373806        2.57316032031614        0.00210756575740
C            2.99563595992526        7.28539254933027        0.00159694671991
C            2.82814074527080       -0.04253602730395        0.00073809391645
C           -5.55649891550259        5.02151655900101        0.00465234509138
C            0.74314201179994        1.22754430990392        0.00268314153122
C           -7.67987475786133        6.19551171951957        0.00530752543004
C           -1.34912967703307        2.50287759577561        0.00363979471666
C            7.24171530570526        7.12549162591238       -0.00732003315690
C           -3.44939377440244        3.76986742889071        0.00414933810090
C            4.98247642239336        1.12622010726333       -0.00430779317119
C           -3.42090297399232        6.22480621254331        0.00598095596333
C            2.88598621659888        2.40331384761588       -0.00015646232377
C           -5.61549942548158        7.43383952690951        0.00714381658425
C            0.79301581823736        3.68530236560308        0.00271268022674
C           -1.30449419134328        4.96500472330048        0.00460892907294
H           -3.47385351350485       -8.21555174953631       -0.03671016444861
H            0.75190085941786       -8.25000894673669        0.08332615024197
H            5.09005531803032       -8.36590842452263        0.00530859955633
H           -5.41829509610581       -8.02861778322503       -0.01794631772303
H           -1.11288348796187       -8.25632136466996       -0.02714889851316
H            3.14745312930893       -8.33089750606936        0.08255144767812
H            8.74608954569090       -6.19242432896515       -0.01469502907825
H            8.80859064609497       -1.43747858529471       -0.01600036148171
H            7.50551910883405       -8.32350726313013       -0.00878741130503
H           -7.74485107684296       -8.02163730575967       -0.02241614286597
H           -8.97242417729356       -5.86792482800334       -0.01926215773276
H           -8.77888204143210       -3.44683466895860       -0.01267722694117
H           -8.84482562400152       -1.04465623378681       -0.00723677287275
H            1.15183773312832        8.28038948557769        0.00495844284375
H            8.94130339956072        3.46767114418550       -0.01393599236544
H            9.00146763355467        5.96293526753915       -0.01233798120214
H            5.40418877979948        8.03754791752353       -0.00238398372393
H           -7.54770547227678        8.32640924818410        0.00774596478237
H            8.86961323698807        1.02352339345927       -0.01509404701334
H           -3.15187439069768        8.36471812894343        0.00755051279358
H           -0.77223146841453        8.32513965938907        0.00663379588888
H           -8.79139589283206        1.43029553302327       -0.00209817381784
H            3.52525440337720        8.22851340157276        0.00153464050755
H           -8.76045471510699        6.17958463952481        0.00497657503606
H            7.72646837278690        8.09022122096112       -0.00775721080065
H           -5.12565505770760        8.39337155924753        0.00828959986700
N            7.63362743028454       -3.80008515175953       -0.01101217728279
N           -7.62711306648283        3.80078001824000        0.00252918503832
H            8.64329012356461       -3.81641652486178       -0.01616997206364
H           -8.63694481010067        3.81346361587878        0.00197663649536
N            5.87810702665695        7.14915520674346       -0.00413035674729
N           -5.87574866565967       -7.13157528629044       -0.01745360592841
 
 Bond Distances (Angstroems)
 ---------------------------
C1-C7=1.3504         C1-C8=1.4277         C1-H101=1.0819       C2-C9=1.3471         C2-C10=1.4202        C2-H102=1.0747       
C3-C7=1.4306         C3-C10=1.3926        C3-C11=1.4283        C4-C17=1.3752        C4-C18=1.4061        C4-H103=1.0769       
C5-C9=1.4222         C5-C18=1.4334        C5-C19=1.4048        N6-C10=1.4035        N6-C19=1.3868        N6-C20=1.3951        
C7-C1=1.3504         C7-C3=1.4306         C7-H105=1.0773       C8-C1=1.4277         C8-C28=1.3864        C8-C30=1.4388        
C9-C2=1.3471         C9-C5=1.4222         C9-H106=1.0756       C10-C2=1.4202        C10-C3=1.3926        C10-N6=1.4035        
C11-C3=1.4283        C11-C30=1.3956       C11-C33=1.4246       C12-C17=1.3881       C12-C21=1.3858       C12-H107=1.0802      
C13-C18=1.4106       C13-C21=1.4128       C13-C22=1.4200       C14-C19=1.4231       C14-C22=1.4074       C14-C23=1.4149       
C15-C22=1.4125       C15-C24=1.4235       C15-C25=1.4065       C16-C24=1.3709       C16-C26=1.4136       C16-H108=1.0812      
C17-C4=1.3752        C17-C12=1.3881       C17-H109=1.0803      C18-C4=1.4061        C18-C5=1.4334        C18-C13=1.4106       
C19-C5=1.4048        C19-N6=1.3868        C19-C14=1.4231       C20-N6=1.3951        C20-C33=1.4114       C20-C43=1.4096       
C21-C12=1.3858       C21-C13=1.4128       C21-N127=1.3686      C22-C13=1.4200       C22-C14=1.4074       C22-C15=1.4125       
C23-C14=1.4149       C23-C43=1.4163       C23-C52=1.4043       C24-C15=1.4235       C24-C16=1.3709       C24-N127=1.3747      
C25-C15=1.4065       C25-C52=1.4161       C25-C59=1.4113       C26-C16=1.4136       C26-C59=1.4225       C26-C66=1.3949       
C27-C37=1.3529       C27-H110=1.0794      C27-N132=1.3552      C28-C8=1.3864        C28-C38=1.4214       C28-N132=1.3946      
C29-C37=1.4284       C29-C38=1.3914       C29-N39=1.3618       C30-C8=1.4388        C30-C11=1.3956       C30-C40=1.4195       
C31-C38=1.4268       C31-C40=1.4021       C31-C41=1.4066       C32-N39=1.3819       C32-C41=1.4212       C32-C42=1.3731       
C33-C11=1.4246       C33-C20=1.4114       C33-C72=1.4182       C34-C40=1.4155       C34-C72=1.4135       C34-C75=1.4150       
C35-C41=1.4091       C35-C75=1.4115       C35-C77=1.4148       C36-C42=1.4142       C36-C77=1.4176       C36-C79=1.4037       
C37-C27=1.3529       C37-C29=1.4284       C37-H111=1.0771      C38-C28=1.4214       C38-C29=1.3914       C38-C31=1.4268       
N39-C29=1.3618       N39-C32=1.3819       N39-H112=1.0099      C40-C30=1.4195       C40-C31=1.4021       C40-C34=1.4155       
C41-C31=1.4066       C41-C32=1.4212       C41-C35=1.4091       C42-C32=1.3731       C42-C36=1.4142       C42-H113=1.0811      
C43-C20=1.4096       C43-C23=1.4163       C43-C81=1.4218       C44-C79=1.3807       C44-C86=1.4148       C44-N128=1.3719      
C45-C80=1.4127       C45-C87=1.3597       C45-H114=1.0777      C46-C72=1.4151       C46-C81=1.4031       C46-C82=1.4202       
C47-C73=1.4161       C47-C83=1.3682       C47-H115=1.0807      C48-C75=1.4175       C48-C82=1.4075       C48-C84=1.4139       
C49-C76=1.4143       C49-C83=1.4371       C49-C85=1.3987       C50-C77=1.4109       C50-C84=1.4167       C50-C86=1.4075       
C51-C78=1.4194       C51-C85=1.4164       C51-C87=1.4136       C52-C23=1.4043       C52-C25=1.4161       C52-C88=1.4197       
C53-C86=1.4170       C53-C89=1.4220       C53-C94=1.4007       C54-C81=1.4192       C54-C88=1.4088       C54-C90=1.4166       
C55-C89=1.4141       C55-C91=1.3847       C55-N128=1.3727      C56-C82=1.4137       C56-C90=1.4131       C56-C92=1.4156       
C57-C83=1.4373       C57-C93=1.3449       C57-H116=1.0776      C58-C84=1.4126       C58-C92=1.4109       C58-C94=1.4206       
C59-C25=1.4113       C59-C26=1.4225       C59-C95=1.4116       C60-C94=1.4230       C60-C96=1.4123       C60-C100=1.4218      
C61-C88=1.4107       C61-C95=1.4207       C61-C97=1.4134       C62-C89=1.4120       C62-C96=1.4393       C62-C98=1.4046       
C63-C90=1.4143       C63-C97=1.4122       C63-C99=1.4209       C64-C91=1.3887       C64-C98=1.3752       C64-H118=1.0804      
C65-C92=1.4198       C65-C99=1.4099       C65-C100=1.4233      C66-C26=1.3949       C66-C73=1.3911       C66-H119=1.0812      
C67-C74=1.4097       C67-C80=1.4296       C67-C100=1.4135      C68-C73=1.4253       C68-C76=1.4152       C68-C95=1.4081       
C69-C74=1.3632       C69-C96=1.4068       C69-H120=1.0782      C70-C76=1.4131       C70-C78=1.4144       C70-C97=1.4179       
C71-C78=1.4220       C71-C80=1.4124       C71-C99=1.4223       C72-C33=1.4182       C72-C34=1.4135       C72-C46=1.4151       
C73-C47=1.4161       C73-C66=1.3911       C73-C68=1.4253       C74-C67=1.4097       C74-C69=1.3632       C74-H121=1.0779      
C75-C34=1.4150       C75-C35=1.4115       C75-C48=1.4175       C76-C49=1.4143       C76-C68=1.4152       C76-C70=1.4131       
C77-C35=1.4148       C77-C36=1.4176       C77-C50=1.4109       C78-C51=1.4194       C78-C70=1.4144       C78-C71=1.4220       
C79-C36=1.4037       C79-C44=1.3807       C79-H122=1.0815      C80-C45=1.4127       C80-C67=1.4296       C80-C71=1.4124       
C81-C43=1.4218       C81-C46=1.4031       C81-C54=1.4192       C82-C46=1.4202       C82-C48=1.4075       C82-C56=1.4137       
C83-C47=1.3682       C83-C49=1.4371       C83-C57=1.4373       C84-C48=1.4139       C84-C50=1.4167       C84-C58=1.4126       
C85-C49=1.3987       C85-C51=1.4164       C85-N131=1.3753      C86-C44=1.4148       C86-C50=1.4075       C86-C53=1.4170       
C87-C45=1.3597       C87-C51=1.4136       C87-H123=1.0817      C88-C52=1.4197       C88-C54=1.4088       C88-C61=1.4107       
C89-C53=1.4220       C89-C55=1.4141       C89-C62=1.4120       C90-C54=1.4166       C90-C56=1.4131       C90-C63=1.4143       
C91-C55=1.3847       C91-C64=1.3887       C91-H124=1.0807      C92-C56=1.4156       C92-C58=1.4109       C92-C65=1.4198       
C93-C57=1.3449       C93-H125=1.0797      C93-N131=1.3638      C94-C53=1.4007       C94-C58=1.4206       C94-C60=1.4230       
C95-C59=1.4116       C95-C61=1.4207       C95-C68=1.4081       C96-C60=1.4123       C96-C62=1.4393       C96-C69=1.4068       
C97-C61=1.4134       C97-C63=1.4122       C97-C70=1.4179       C98-C62=1.4046       C98-C64=1.3752       C98-H126=1.0773      
C99-C63=1.4209       C99-C65=1.4099       C99-C71=1.4223       C100-C60=1.4218      C100-C65=1.4233      C100-C67=1.4135      
H101-C1=1.0819       H102-C2=1.0747       H103-C4=1.0769       H104-N132=1.0070     H105-C7=1.0773       H106-C9=1.0756       
H107-C12=1.0802      H108-C16=1.0812      H109-C17=1.0803      H110-C27=1.0794      H111-C37=1.0771      H112-N39=1.0099      
H113-C42=1.0811      H114-C45=1.0777      H115-C47=1.0807      H116-C57=1.0776      H117-N131=1.0069     H118-C64=1.0804      
H119-C66=1.0812      H120-C69=1.0782      H121-C74=1.0779      H122-C79=1.0815      H123-C87=1.0817      H124-C91=1.0807      
H125-C93=1.0797      H126-C98=1.0773      N127-C21=1.3686      N127-C24=1.3747      N127-H129=1.0098     N128-C44=1.3719      
N128-C55=1.3727      N128-H130=1.0099     H129-N127=1.0098     H130-N128=1.0099     N131-C85=1.3753      N131-C93=1.3638      
N131-H117=1.0069     N132-C27=1.3552      N132-C28=1.3946      N132-H104=1.0070     
 C  H  Rav=1.0791 sigma=0.0020  Rmin=1.0747  Rmax=1.0819    23
 C  C  Rav=1.4092 sigma=0.0182  Rmin=1.3449  Rmax=1.4393   129
 N  H  Rav=1.0087 sigma=0.0015  Rmin=1.0069  Rmax=1.0099     5
 N  C  Rav=1.3774 sigma=0.0138  Rmin=1.3552  Rmax=1.4035    13
 
 selected bond angles (degree)
 --------------------
C8-C1-C7=122.24                H101-C1-C7=118.13              H101-C1-C8=119.62              C10-C2-C9=122.65               
H102-C2-C9=118.97              H102-C2-C10=118.38             C10-C3-C7=123.02               C11-C3-C7=116.61               
C11-C3-C10=120.37              C18-C4-C17=121.05              H103-C4-C17=118.17             H103-C4-C18=120.78             
C18-C5-C9=120.66               C19-C5-C9=117.81               C19-C5-C18=121.53              C19-N6-C10=120.24              
C20-N6-C10=119.03              C20-N6-C19=120.74              C3-C7-C1=122.36                H105-C7-C1=117.71              
H105-C7-C3=119.93              C28-C8-C1=123.68               C30-C8-C1=116.53               C30-C8-C28=119.80              
C5-C9-C2=120.24                H106-C9-C2=119.47              H106-C9-C5=120.29              C3-C10-C2=120.98               
N6-C10-C2=117.44               N6-C10-C3=121.57               
 
 selected dihedral angles (degree)
 ---------------------------------
C3-C7-C1-C8=  0.00            C3-C7-C1-H101=179.84          H105-C7-C1-C8=180.36          H105-C7-C1-H101=  0.18        
C1-C7-C3-C10=179.49           C1-C7-C3-C11=359.42           H105-C7-C3-C10=359.14         H105-C7-C3-C11=179.07         
C28-C8-C1-C7=180.28           C28-C8-C1-H101=  0.46         C30-C8-C1-C7=  0.46           C30-C8-C1-H101=180.64         
C5-C9-C2-C10=  0.11           C5-C9-C2-H102=180.36          H106-C9-C2-C10=179.80         H106-C9-C2-H102=  0.05        
C2-C9-C5-C18=180.57           C2-C9-C5-C19=  0.95           H106-C9-C5-C18=  0.88         H106-C9-C5-C19=181.26         
C3-C10-C2-C9=179.09           C3-C10-C2-H102=358.85         N6-C10-C2-C9=358.81           N6-C10-C2-H102=178.57         
C2-C10-C3-C7=358.57           C2-C10-C3-C11=178.65          N6-C10-C3-C7=178.86           N6-C10-C3-C11=358.93          
C2-C10-N6-C19=  1.18          C2-C10-N6-C20=181.19          C3-C10-N6-C19=180.91          C3-C10-N6-C20=  0.91          
           -------------------------------------------------
          |                Final Singlepoint                |
           -------------------------------------------------

          ...................................................
          :                      SETUP                      :
          :.................................................:
          :  # basis functions                 444          :
          :  # atomic orbitals                 444          :
          :  # shells                          236          :
          :  # electrons                       450          :
          :  max. iterations                   250          :
          :  Hamiltonian                  GFN2-xTB          :
          :  restarted?                      false          :
          :  GBSA solvation                  false          :
          :  PC potential                    false          :
          :  electronic temp.          300.0000000     K    :
          :  accuracy                    1.0000000          :
          :  -> integral cutoff          0.2500000E+02      :
          :  -> integral neglect         0.1000000E-07      :
          :  -> SCF convergence          0.1000000E-05 Eh   :
          :  -> wf. convergence          0.1000000E-03 e    :
          :  Broyden damping             0.4000000          :
          :  net charge                          0          :
          :  unpaired electrons                  0          :
          ...................................................

 iter      E             dE          RMSdq      gap      omega  full diag
   1   -247.1544399 -0.247154E+03  0.477E-05    0.35       0.0  T
   2   -247.1544399  0.108449E-08  0.715E-05    0.35     121.7  T
   3   -247.1544399 -0.158755E-08  0.137E-05    0.35     637.3  T

   *** convergence criteria satisfied after 3 iterations ***

         #    Occupation            Energy/Eh            Energy/eV
      -------------------------------------------------------------
         1        2.0000           -0.6857170             -18.6593
       ...           ...                  ...                  ...
       219        2.0000           -0.3640533              -9.9064
       220        2.0000           -0.3557315              -9.6799
       221        2.0000           -0.3420703              -9.3082
       222        2.0000           -0.3364335              -9.1548
       223        2.0000           -0.3279994              -8.9253
       224        2.0000           -0.3188895              -8.6774
       225        1.9978           -0.2903459              -7.9007 (HOMO)
       226        0.0022           -0.2773728              -7.5477 (LUMO)
       227        0.0000           -0.2694418              -7.3319
       228                         -0.2633490              -7.1661
       229                         -0.2566616              -6.9841
       230                         -0.2517926              -6.8516
       ...                                ...                  ...
       444                          0.8028134              21.8457
      -------------------------------------------------------------
                  HL-Gap            0.0129731 Eh            0.3530 eV
             Fermi-level           -0.2838595 Eh           -7.7242 eV

 SCC (total)                   0 d,  0 h,  0 min,  0.433 sec
 SCC setup                      ...        0 min,  0.002 sec (  0.462%)
 Dispersion                     ...        0 min,  0.004 sec (  0.924%)
 classical contributions        ...        0 min,  0.000 sec (  0.000%)
 integral evaluation            ...        0 min,  0.035 sec (  8.083%)
 iterations                     ...        0 min,  0.187 sec ( 43.187%)
 molecular gradient             ...        0 min,  0.200 sec ( 46.189%)
 printout                       ...        0 min,  0.005 sec (  1.155%)

         :::::::::::::::::::::::::::::::::::::::::::::::::::::
         ::                     SUMMARY                     ::
         :::::::::::::::::::::::::::::::::::::::::::::::::::::
         :: total energy            -242.534025229633 Eh    ::
         :: gradient norm              0.000275372548 Eh/a0 ::
         :: HOMO-LUMO gap              0.353014930737 eV    ::
         ::.................................................::
         :: SCC energy              -247.162517650982 Eh    ::
         :: -> isotropic ES            0.028274076546 Eh    ::
         :: -> anisotropic ES          0.024789997139 Eh    ::
         :: -> anisotropic XC          0.079150357317 Eh    ::
         :: -> dispersion             -0.289355787630 Eh    ::
         :: repulsion energy           4.628492421349 Eh    ::
         :: add. restraining           0.000000000000 Eh    ::
         :: total charge              -0.000000000000 e     ::
         :::::::::::::::::::::::::::::::::::::::::::::::::::::

           -------------------------------------------------
          |                Property Printout                |
           -------------------------------------------------

    * Orbital Energies and Occupations

         #    Occupation            Energy/Eh            Energy/eV
      -------------------------------------------------------------
         1        2.0000           -0.6857170             -18.6593
       ...           ...                  ...                  ...
       213        2.0000           -0.3796091             -10.3297
       214        2.0000           -0.3756121             -10.2209
       215        2.0000           -0.3713495             -10.1049
       216        2.0000           -0.3709821             -10.0949
       217        2.0000           -0.3688496             -10.0369
       218        2.0000           -0.3650460              -9.9334
       219        2.0000           -0.3640533              -9.9064
       220        2.0000           -0.3557315              -9.6799
       221        2.0000           -0.3420703              -9.3082
       222        2.0000           -0.3364335              -9.1548
       223        2.0000           -0.3279994              -8.9253
       224        2.0000           -0.3188895              -8.6774
       225        1.9978           -0.2903459              -7.9007 (HOMO)
       226        0.0022           -0.2773728              -7.5477 (LUMO)
       227        0.0000           -0.2694418              -7.3319
       228                         -0.2633490              -7.1661
       229                         -0.2566616              -6.9841
       230                         -0.2517926              -6.8516
       231                         -0.2428485              -6.6082
       232                         -0.2400366              -6.5317
       233                         -0.2374215              -6.4606
       234                         -0.2340914              -6.3700
       235                         -0.2314427              -6.2979
       236                         -0.2270994              -6.1797
       ...                                ...                  ...
       444                          0.8028134              21.8457
      -------------------------------------------------------------
                  HL-Gap            0.0129731 Eh            0.3530 eV
             Fermi-level           -0.2838595 Eh           -7.7242 eV

     #   Z          covCN         q      C6AA      α(0)
     1   6 C        2.911    -0.045    29.105     8.846
     2   6 C        2.916    -0.052    29.283     8.874
     3   6 C        2.978    -0.021    28.527     8.761
     4   6 C        2.919    -0.054    29.345     8.883
     5   6 C        2.982    -0.021    28.518     8.760
     6   7 N        2.751     0.008    21.118     6.825
     7   6 C        2.913    -0.044    29.093     8.845
     8   6 C        2.975    -0.031    28.780     8.800
     9   6 C        2.916    -0.037    28.928     8.820
    10   6 C        2.921     0.038    27.158     8.546
    11   6 C        2.991    -0.005    28.143     8.702
    12   6 C        2.919    -0.072    29.792     8.951
    13   6 C        2.998    -0.015    28.386     8.740
    14   6 C        2.989    -0.017    28.432     8.747
    15   6 C        2.995    -0.015    28.380     8.739
    16   6 C        2.920    -0.085    30.126     9.001
    17   6 C        2.917    -0.030    28.748     8.792
    18   6 C        2.979     0.003    27.957     8.673
    19   6 C        2.928     0.055    26.758     8.483
    20   6 C        2.927     0.045    26.987     8.519
    21   6 C        2.917     0.068    26.477     8.438
    22   6 C        2.991     0.003    27.943     8.671
    23   6 C        2.992     0.001    27.984     8.678
    24   6 C        2.911     0.063    26.597     8.457
    25   6 C        2.993     0.001    27.996     8.679
    26   6 C        2.978     0.012    27.738     8.639
    27   6 C        2.848     0.029    27.359     8.572
    28   6 C        2.914     0.040    27.108     8.538
    29   6 C        2.919     0.065    26.545     8.449
    30   6 C        2.990    -0.007    28.186     8.709
    31   6 C        2.994    -0.001    28.044     8.687
    32   6 C        2.912     0.058    26.693     8.472
    33   6 C        2.986    -0.009    28.226     8.715
    34   6 C        2.991    -0.004    28.109     8.697
    35   6 C        2.994    -0.003    28.095     8.695
    36   6 C        2.980     0.014    27.688     8.631
    37   6 C        2.911    -0.081    30.017     8.984
    38   6 C        2.992    -0.015    28.380     8.739
    39   7 N        2.704    -0.114    23.488     7.198
    40   6 C        2.991    -0.006    28.161     8.705
    41   6 C        2.996    -0.010    28.265     8.721
    42   6 C        2.919    -0.090    30.249     9.019
    43   6 C        2.988    -0.018    28.452     8.750
    44   6 C        2.912     0.064    26.556     8.450
    45   6 C        2.916    -0.040    28.993     8.830
    46   6 C        2.991    -0.008    28.198     8.711
    47   6 C        2.920    -0.066    29.632     8.927
    48   6 C        2.992    -0.001    28.052     8.688
    49   6 C        2.993    -0.009    28.221     8.714
    50   6 C        2.993    -0.001    28.046     8.687
    51   6 C        2.980    -0.021    28.530     8.762
    52   6 C        2.992    -0.008    28.208     8.712
    53   6 C        2.990     0.002    27.965     8.675
    54   6 C        2.990    -0.004    28.117     8.698
    55   6 C        2.917     0.065    26.535     8.447
    56   6 C        2.990    -0.003    28.094     8.695
    57   6 C        2.912    -0.061    29.526     8.910
    58   6 C        2.989    -0.003    28.090     8.694
    59   6 C        2.995    -0.011    28.272     8.722
    60   6 C        2.989     0.000    28.013     8.682
    61   6 C        2.990    -0.005    28.140     8.702
    62   6 C        2.978     0.004    27.926     8.668
    63   6 C        2.988    -0.005    28.149     8.703
    64   6 C        2.917    -0.031    28.779     8.797
    65   6 C        2.986    -0.002    28.076     8.692
    66   6 C        2.923    -0.062    29.541     8.913
    67   6 C        2.979     0.000    28.016     8.682
    68   6 C        2.994    -0.005    28.147     8.703
    69   6 C        2.917    -0.039    28.958     8.824
    70   6 C        2.988    -0.011    28.282     8.724
    71   6 C        2.989     0.001    28.007     8.681
    72   6 C        2.990    -0.005    28.140     8.702
    73   6 C        2.976     0.011    27.754     8.642
    74   6 C        2.917    -0.042    29.050     8.838
    75   6 C        2.991    -0.005    28.142     8.702
    76   6 C        2.990    -0.002    28.079     8.692
    77   6 C        2.995    -0.014    28.360     8.736
    78   6 C        2.990     0.001    27.996     8.679
    79   6 C        2.921    -0.086    30.152     9.005
    80   6 C        2.979    -0.000    28.031     8.685
    81   6 C        2.991    -0.005    28.133     8.701
    82   6 C        2.991    -0.004    28.115     8.698
    83   6 C        2.978     0.013    27.728     8.638
    84   6 C        2.991    -0.003    28.085     8.693
    85   6 C        2.917     0.054    26.785     8.487
    86   6 C        2.995    -0.017    28.422     8.745
    87   6 C        2.914    -0.044    29.086     8.844
    88   6 C        2.991    -0.002    28.075     8.692
    89   6 C        2.996    -0.009    28.237     8.717
    90   6 C        2.990    -0.002    28.059     8.689
    91   6 C        2.920    -0.071    29.760     8.946
    92   6 C        2.989    -0.005    28.146     8.703
    93   6 C        2.847     0.020    27.556     8.603
    94   6 C        2.989    -0.009    28.240     8.717
    95   6 C        2.990     0.001    28.004     8.681
    96   6 C        2.978    -0.004    28.112     8.697
    97   6 C        2.989    -0.002    28.074     8.691
    98   6 C        2.919    -0.051    29.276     8.873
    99   6 C        2.986    -0.005    28.128     8.700
   100   6 C        2.989     0.000    28.019     8.683
   101   1 H        0.925     0.006     2.961     2.691
   102   1 H        0.926     0.039     2.461     2.453
   103   1 H        0.926     0.027     2.630     2.536
   104   1 H        0.860     0.174     1.248     1.750
   105   1 H        0.926     0.022     2.698     2.569
   106   1 H        0.926     0.036     2.507     2.476
   107   1 H        0.926     0.019     2.750     2.593
   108   1 H        0.926     0.016     2.794     2.614
   109   1 H        0.926     0.027     2.635     2.539
   110   1 H        0.926     0.044     2.400     2.423
   111   1 H        0.926     0.036     2.506     2.476
   112   1 H        0.860     0.166     1.296     1.783
   113   1 H        0.926     0.013     2.840     2.635
   114   1 H        0.926     0.027     2.628     2.535
   115   1 H        0.926     0.020     2.732     2.585
   116   1 H        0.926     0.036     2.504     2.475
   117   1 H        0.860     0.169     1.276     1.770
   118   1 H        0.926     0.025     2.654     2.548
   119   1 H        0.926     0.019     2.745     2.591
   120   1 H        0.926     0.026     2.637     2.539
   121   1 H        0.926     0.025     2.660     2.551
   122   1 H        0.925     0.014     2.827     2.629
   123   1 H        0.925     0.009     2.906     2.666
   124   1 H        0.926     0.017     2.785     2.609
   125   1 H        0.926     0.034     2.535     2.490
   126   1 H        0.926     0.028     2.616     2.529
   127   7 N        2.706    -0.124    23.693     7.229
   128   7 N        2.706    -0.123    23.678     7.227
   129   1 H        0.860     0.163     1.317     1.798
   130   1 H        0.860     0.161     1.329     1.806
   131   7 N        2.703    -0.100    23.206     7.155
   132   7 N        2.700    -0.103    23.272     7.165

 Mol. C6AA /au·bohr⁶  :     351213.241125
 Mol. C8AA /au·bohr⁸  :    9519938.791668
 Mol. α(0) /au        :        964.551545


Wiberg/Mayer (AO) data.
largest (>0.10) Wiberg bond orders for each atom

 ---------------------------------------------------------------------------
     #   Z sym  total        # sym  WBO       # sym  WBO       # sym  WBO
 ---------------------------------------------------------------------------
     1   6 C    3.944 --     7 C    1.654     8 C    1.187   101 H    0.960
     2   6 C    3.960 --     9 C    1.625    10 C    1.214   102 H    0.957
     3   6 C    3.933 --    10 C    1.355     7 C    1.187    11 C    1.180
     4   6 C    3.955 --    17 C    1.486    18 C    1.316   103 H    0.962
     5   6 C    3.927 --    19 C    1.333     9 C    1.197    18 C    1.185
     6   7 N    3.600 --    19 C    1.156    20 C    1.119    10 C    1.092
     7   6 C    3.962 --     1 C    1.654     3 C    1.187   105 H    0.959
     8   6 C    3.946 --    28 C    1.378     1 C    1.187    30 C    1.164
     9   6 C    3.921 --     2 C    1.625     5 C    1.197   106 H    0.961
    10   6 C    3.855 --     3 C    1.355     2 C    1.214     6 N    1.092
    11   6 C    3.938 --    30 C    1.349    33 C    1.202     3 C    1.180
    12   6 C    3.946 --    17 C    1.395    21 C    1.379   107 H    0.968
    13   6 C    3.961 --    18 C    1.272    21 C    1.250    22 C    1.207
    14   6 C    3.968 --    22 C    1.282    23 C    1.230    19 C    1.219
    15   6 C    3.947 --    25 C    1.272    22 C    1.253    24 C    1.190
    16   6 C    3.927 --    24 C    1.467    26 C    1.252   108 H    0.966
    17   6 C    3.976 --     4 C    1.486    12 C    1.395   109 H    0.971
    18   6 C    3.965 --     4 C    1.316    13 C    1.272     5 C    1.185
    19   6 C    3.953 --     5 C    1.333    14 C    1.219     6 N    1.156
    20   6 C    3.915 --    33 C    1.286    43 C    1.283     6 N    1.119
    21   6 C    3.960 --    12 C    1.379    13 C    1.250   127 N    1.156
    22   6 C    3.960 --    14 C    1.282    15 C    1.253    13 C    1.207
    23   6 C    3.963 --    52 C    1.293    14 C    1.230    43 C    1.218
    24   6 C    3.947 --    16 C    1.467    15 C    1.190   127 N    1.131
    25   6 C    3.975 --    15 C    1.272    59 C    1.256    52 C    1.229
    26   6 C    3.973 --    66 C    1.345    16 C    1.252    59 C    1.216
    27   6 C    3.932 --    37 C    1.613   132 N    1.232   110 H    0.965
    28   6 C    3.855 --     8 C    1.378    38 C    1.205   132 N    1.085
    29   6 C    3.866 --    38 C    1.343    39 N    1.189    37 C    1.178
    30   6 C    3.949 --    11 C    1.349    40 C    1.218     8 C    1.164
    31   6 C    3.947 --    40 C    1.293    41 C    1.268    38 C    1.174
    32   6 C    3.940 --    42 C    1.458    41 C    1.201    39 N    1.114
    33   6 C    3.953 --    20 C    1.286    72 C    1.249    11 C    1.202
    34   6 C    3.964 --    72 C    1.254    75 C    1.251    40 C    1.237
    35   6 C    3.964 --    75 C    1.258    41 C    1.256    77 C    1.236
    36   6 C    3.968 --    79 C    1.307    42 C    1.256    77 C    1.242
    37   6 C    3.948 --    27 C    1.613    29 C    1.178   111 H    0.967
    38   6 C    3.969 --    29 C    1.343    28 C    1.205    31 C    1.174
    39   7 N    3.483 --    29 C    1.189    32 C    1.114   112 H    0.939
    40   6 C    3.972 --    31 C    1.293    34 C    1.237    30 C    1.218
    41   6 C    3.967 --    31 C    1.268    35 C    1.256    32 C    1.201
    42   6 C    3.915 --    32 C    1.458    36 C    1.256   113 H    0.966
    43   6 C    3.950 --    20 C    1.283    81 C    1.223    23 C    1.218
    44   6 C    3.942 --    79 C    1.412    86 C    1.225   128 N    1.143
    45   6 C    3.967 --    87 C    1.576    80 C    1.264   114 H    0.961
    46   6 C    3.961 --    81 C    1.284    72 C    1.238    82 C    1.220
    47   6 C    3.958 --    83 C    1.502    73 C    1.237   115 H    0.967
    48   6 C    3.961 --    82 C    1.271    84 C    1.248    75 C    1.228
    49   6 C    3.966 --    85 C    1.322    76 C    1.246    83 C    1.163
    50   6 C    3.971 --    86 C    1.266    77 C    1.257    84 C    1.233
    51   6 C    3.959 --    87 C    1.256    78 C    1.251    85 C    1.238
    52   6 C    3.958 --    23 C    1.293    25 C    1.229    88 C    1.215
    53   6 C    3.958 --    94 C    1.309    86 C    1.226    89 C    1.206
    54   6 C    3.959 --    88 C    1.265    90 C    1.245    81 C    1.233
    55   6 C    3.958 --    91 C    1.387    89 C    1.250   128 N    1.145
    56   6 C    3.960 --    82 C    1.251    90 C    1.247    92 C    1.247
    57   6 C    3.959 --    93 C    1.664    83 C    1.153   116 H    0.967
    58   6 C    3.956 --    92 C    1.262    84 C    1.262    94 C    1.219
    59   6 C    3.956 --    95 C    1.260    25 C    1.256    26 C    1.216
    60   6 C    3.981 --    96 C    1.294   100 C    1.249    94 C    1.213
    61   6 C    3.952 --    88 C    1.264    97 C    1.256    95 C    1.219
    62   6 C    3.968 --    98 C    1.324    89 C    1.281    96 C    1.168
    63   6 C    3.957 --    97 C    1.258    90 C    1.255    99 C    1.229
    64   6 C    3.975 --    98 C    1.486    91 C    1.392   118 H    0.971
    65   6 C    3.962 --    99 C    1.286    92 C    1.231   100 C    1.225
    66   6 C    3.900 --    73 C    1.371    26 C    1.345   119 H    0.967
    67   6 C    3.954 --    74 C    1.280   100 C    1.279    80 C    1.199
    68   6 C    3.955 --    95 C    1.277    76 C    1.247    73 C    1.207
    69   6 C    3.965 --    74 C    1.551    96 C    1.289   120 H    0.962
    70   6 C    3.976 --    76 C    1.257    78 C    1.255    97 C    1.230
    71   6 C    3.975 --    80 C    1.284    78 C    1.243    99 C    1.226
    72   6 C    3.962 --    34 C    1.254    33 C    1.249    46 C    1.238
    73   6 C    3.973 --    66 C    1.371    47 C    1.237    68 C    1.207
    74   6 C    3.957 --    69 C    1.551    67 C    1.280   121 H    0.961
    75   6 C    3.966 --    35 C    1.258    34 C    1.251    48 C    1.228
    76   6 C    3.968 --    70 C    1.257    68 C    1.247    49 C    1.246
    77   6 C    3.963 --    50 C    1.257    36 C    1.242    35 C    1.236
    78   6 C    3.975 --    70 C    1.255    51 C    1.251    71 C    1.243
    79   6 C    3.927 --    44 C    1.412    36 C    1.307   122 H    0.966
    80   6 C    3.939 --    71 C    1.284    45 C    1.264    67 C    1.199
    81   6 C    3.958 --    46 C    1.284    54 C    1.233    43 C    1.223
    82   6 C    3.960 --    48 C    1.271    56 C    1.251    46 C    1.220
    83   6 C    3.972 --    47 C    1.502    49 C    1.163    57 C    1.153
    84   6 C    3.962 --    58 C    1.262    48 C    1.248    50 C    1.233
    85   6 C    3.903 --    49 C    1.322    51 C    1.238   131 N    1.145
    86   6 C    3.946 --    50 C    1.266    53 C    1.226    44 C    1.225
    87   6 C    3.950 --    45 C    1.576    51 C    1.256   123 H    0.958
    88   6 C    3.958 --    54 C    1.265    61 C    1.264    52 C    1.215
    89   6 C    3.971 --    62 C    1.281    55 C    1.250    53 C    1.206
    90   6 C    3.963 --    63 C    1.255    56 C    1.247    54 C    1.245
    91   6 C    3.953 --    64 C    1.392    55 C    1.387   124 H    0.968
    92   6 C    3.952 --    58 C    1.262    56 C    1.247    65 C    1.231
    93   6 C    3.948 --    57 C    1.664   131 N    1.187   125 H    0.966
    94   6 C    3.975 --    53 C    1.309    58 C    1.219    60 C    1.213
    95   6 C    3.978 --    68 C    1.277    59 C    1.260    61 C    1.219
    96   6 C    3.956 --    60 C    1.294    69 C    1.289    62 C    1.168
    97   6 C    3.957 --    63 C    1.258    61 C    1.256    70 C    1.230
    98   6 C    3.964 --    64 C    1.486    62 C    1.324   126 H    0.963
    99   6 C    3.959 --    65 C    1.286    63 C    1.229    71 C    1.226
   100   6 C    3.975 --    67 C    1.279    60 C    1.249    65 C    1.225
   101   1 H    0.999 --     1 C    0.960
   102   1 H    0.997 --     2 C    0.957
   103   1 H    0.999 --     4 C    0.962
   104   1 H    0.969 --   132 N    0.932
   105   1 H    0.998 --     7 C    0.959
   106   1 H    0.998 --     9 C    0.961
   107   1 H    0.999 --    12 C    0.968
   108   1 H    0.998 --    16 C    0.966
   109   1 H    0.998 --    17 C    0.971
   110   1 H    0.997 --    27 C    0.965
   111   1 H    0.998 --    37 C    0.967
   112   1 H    0.971 --    39 N    0.939
   113   1 H    0.999 --    42 C    0.966
   114   1 H    0.998 --    45 C    0.961
   115   1 H    0.998 --    47 C    0.967
   116   1 H    0.998 --    57 C    0.967
   117   1 H    0.971 --   131 N    0.931
   118   1 H    0.998 --    64 C    0.971
   119   1 H    0.998 --    66 C    0.967
   120   1 H    0.998 --    69 C    0.962
   121   1 H    0.998 --    74 C    0.961
   122   1 H    0.999 --    79 C    0.966
   123   1 H    0.999 --    87 C    0.958
   124   1 H    0.999 --    91 C    0.968
   125   1 H    0.998 --    93 C    0.966
   126   1 H    0.999 --    98 C    0.963
   127   7 N    3.491 --    21 C    1.156    24 C    1.131   129 H    0.939
   128   7 N    3.486 --    55 C    1.145    44 C    1.143   130 H    0.939
   129   1 H    0.972 --   127 N    0.939
   130   1 H    0.973 --   128 N    0.939
   131   7 N    3.501 --    93 C    1.187    85 C    1.145   117 H    0.931
   132   7 N    3.479 --    27 C    1.232    28 C    1.085   104 H    0.932
 ---------------------------------------------------------------------------

Topologies differ in total number of bonds
Writing topology from bond orders to xtbtopo.mol

molecular dipole:
                 x           y           z       tot (Debye)
 q only:       -1.735      -1.649      -0.003
   full:       -2.010      -1.749      -0.005       6.772
molecular quadrupole (traceless):
                xx          xy          yy          xz          yz          zz
 q only:       33.597      61.471      19.227       0.100       0.011     -52.823
  q+dip:       67.668      64.971      45.980       0.097       0.014    -113.648
   full:       49.328      65.825      29.111       0.122       0.028     -78.439

           -------------------------------------------------
          |                Geometry Summary                 |
           -------------------------------------------------

      molecular mass/u    :     1289.3146785
   center of mass at/Å    :       -0.0001246      -0.0000416       0.0000137
  moments of inertia/u·Å² :        0.2767439E+05   0.3143517E+05   0.5910923E+05
rotational constants/cm⁻¹ :        0.6091419E-03   0.5362667E-03   0.2851946E-03

 * 166 selected distances

     #   Z          #   Z                                           value/Å
     1   6 C        7   6 C                                       1.3503527
     3   6 C        7   6 C                                       1.4306131
     1   6 C        8   6 C                                       1.4277379
     2   6 C        9   6 C                                       1.3471384
     5   6 C        9   6 C                                       1.4221717
     2   6 C       10   6 C                                       1.4202066
     3   6 C       10   6 C                                       1.3925674
     6   7 N       10   6 C                                       1.4035295
     3   6 C       11   6 C                                       1.4282548
     4   6 C       17   6 C                                       1.3751537
    12   6 C       17   6 C                                       1.3880894
     4   6 C       18   6 C                                       1.4061398
     5   6 C       18   6 C                                       1.4333903 (max)
    13   6 C       18   6 C                                       1.4106457
     5   6 C       19   6 C                                       1.4048072
     6   7 N       19   6 C                                       1.3868139
    14   6 C       19   6 C                                       1.4231015
     6   7 N       20   6 C                                       1.3951278
    12   6 C       21   6 C                                       1.3857707
    13   6 C       21   6 C                                       1.4128176
    13   6 C       22   6 C                                       1.4200040
    14   6 C       22   6 C                                       1.4073952
    15   6 C       22   6 C                                       1.4124516
    14   6 C       23   6 C                                       1.4149138
    15   6 C       24   6 C                                       1.4235004
    16   6 C       24   6 C                                       1.3708654
    15   6 C       25   6 C                                       1.4065031
    16   6 C       26   6 C                                       1.4135772
     8   6 C       28   6 C                                       1.3863589
    11   6 C       30   6 C                                       1.3956022
    11   6 C       33   6 C                                       1.4245726
    20   6 C       33   6 C                                       1.4113747
    27   6 C       37   6 C                                       1.3528939
    29   6 C       37   6 C                                       1.4284183
    28   6 C       38   6 C                                       1.4214138
    29   6 C       38   6 C                                       1.3913855
    31   6 C       38   6 C                                       1.4267973
    29   6 C       39   7 N                                       1.3618454
    32   6 C       39   7 N                                       1.3819357
    30   6 C       40   6 C                                       1.4195163
    31   6 C       40   6 C                                       1.4020997
    34   6 C       40   6 C                                       1.4154652
    31   6 C       41   6 C                                       1.4065829
    32   6 C       41   6 C                                       1.4212160
    35   6 C       41   6 C                                       1.4090625
    32   6 C       42   6 C                                       1.3730737
    36   6 C       42   6 C                                       1.4141797
    20   6 C       43   6 C                                       1.4096316
    23   6 C       43   6 C                                       1.4163273
    23   6 C       52   6 C                                       1.4042631
    25   6 C       52   6 C                                       1.4161108
    25   6 C       59   6 C                                       1.4113190
    26   6 C       59   6 C                                       1.4225188
    26   6 C       66   6 C                                       1.3949359
    33   6 C       72   6 C                                       1.4181750
    34   6 C       72   6 C                                       1.4135293
    46   6 C       72   6 C                                       1.4150832
    47   6 C       73   6 C                                       1.4160755
    66   6 C       73   6 C                                       1.3911117
    68   6 C       73   6 C                                       1.4253125
    67   6 C       74   6 C                                       1.4096832
    69   6 C       74   6 C                                       1.3631853
    34   6 C       75   6 C                                       1.4150134
    35   6 C       75   6 C                                       1.4114788
    48   6 C       75   6 C                                       1.4174581
    49   6 C       76   6 C                                       1.4142872
    68   6 C       76   6 C                                       1.4152112
    70   6 C       76   6 C                                       1.4131159
    35   6 C       77   6 C                                       1.4147832
    36   6 C       77   6 C                                       1.4175597
    50   6 C       77   6 C                                       1.4108737
    51   6 C       78   6 C                                       1.4194009
    70   6 C       78   6 C                                       1.4143921
    71   6 C       78   6 C                                       1.4219877
    36   6 C       79   6 C                                       1.4036934
    44   6 C       79   6 C                                       1.3806986
    45   6 C       80   6 C                                       1.4127472
    67   6 C       80   6 C                                       1.4295810
    71   6 C       80   6 C                                       1.4124251
    43   6 C       81   6 C                                       1.4217727
    46   6 C       81   6 C                                       1.4030931
    54   6 C       81   6 C                                       1.4192194
    46   6 C       82   6 C                                       1.4202452
    48   6 C       82   6 C                                       1.4074902
    56   6 C       82   6 C                                       1.4137126
    47   6 C       83   6 C                                       1.3681883
    48   6 C       84   6 C                                       1.4139404
    50   6 C       84   6 C                                       1.4166848
    58   6 C       84   6 C                                       1.4125700
    49   6 C       85   6 C                                       1.3986870
    51   6 C       85   6 C                                       1.4163713
    44   6 C       86   6 C                                       1.4148171
    50   6 C       86   6 C                                       1.4075073
    53   6 C       86   6 C                                       1.4170441
    45   6 C       87   6 C                                       1.3596552
    51   6 C       87   6 C                                       1.4135854
    52   6 C       88   6 C                                       1.4197372
    54   6 C       88   6 C                                       1.4087571
    61   6 C       88   6 C                                       1.4107068
    53   6 C       89   6 C                                       1.4220253
    55   6 C       89   6 C                                       1.4141479
    62   6 C       89   6 C                                       1.4119560
    54   6 C       90   6 C                                       1.4165682
    56   6 C       90   6 C                                       1.4131077
    63   6 C       90   6 C                                       1.4143389
    55   6 C       91   6 C                                       1.3847061
    64   6 C       91   6 C                                       1.3887307
    56   6 C       92   6 C                                       1.4156012
    58   6 C       92   6 C                                       1.4109410
    65   6 C       92   6 C                                       1.4198229
    57   6 C       93   6 C                                       1.3449499
    53   6 C       94   6 C                                       1.4006788
    58   6 C       94   6 C                                       1.4205660
    60   6 C       94   6 C                                       1.4229775
    59   6 C       95   6 C                                       1.4115830
    61   6 C       95   6 C                                       1.4207482
    68   6 C       95   6 C                                       1.4081177
    60   6 C       96   6 C                                       1.4123293
    69   6 C       96   6 C                                       1.4067900
    61   6 C       97   6 C                                       1.4134133
    63   6 C       97   6 C                                       1.4122108
    70   6 C       97   6 C                                       1.4179467
    62   6 C       98   6 C                                       1.4046378
    64   6 C       98   6 C                                       1.3751522
    63   6 C       99   6 C                                       1.4209430
    65   6 C       99   6 C                                       1.4098580
    71   6 C       99   6 C                                       1.4222790
    60   6 C      100   6 C                                       1.4218360
    65   6 C      100   6 C                                       1.4233208
    67   6 C      100   6 C                                       1.4134929
     1   6 C      101   1 H                                       1.0819447
     2   6 C      102   1 H                                       1.0747489
     4   6 C      103   1 H                                       1.0768880
     7   6 C      105   1 H                                       1.0772547
     9   6 C      106   1 H                                       1.0755948
    12   6 C      107   1 H                                       1.0802205
    16   6 C      108   1 H                                       1.0812097
    17   6 C      109   1 H                                       1.0803337
    27   6 C      110   1 H                                       1.0793531
    37   6 C      111   1 H                                       1.0770877
    39   7 N      112   1 H                                       1.0099331
    42   6 C      113   1 H                                       1.0811218
    45   6 C      114   1 H                                       1.0777149
    47   6 C      115   1 H                                       1.0807497
    57   6 C      116   1 H                                       1.0776118
    64   6 C      118   1 H                                       1.0804113
    66   6 C      119   1 H                                       1.0811760
    69   6 C      120   1 H                                       1.0782265
    74   6 C      121   1 H                                       1.0779317
    79   6 C      122   1 H                                       1.0814649
    87   6 C      123   1 H                                       1.0816528
    91   6 C      124   1 H                                       1.0806975
    93   6 C      125   1 H                                       1.0796708
    98   6 C      126   1 H                                       1.0773350
    21   6 C      127   7 N                                       1.3685809
    24   6 C      127   7 N                                       1.3746958
    44   6 C      128   7 N                                       1.3718750
    55   6 C      128   7 N                                       1.3726882
   127   7 N      129   1 H                                       1.0098080
   128   7 N      130   1 H                                       1.0099116
    85   6 C      131   7 N                                       1.3753354
    93   6 C      131   7 N                                       1.3638174
   117   1 H      131   7 N                                       1.0068979 (min)
    27   6 C      132   7 N                                       1.3551990
    28   6 C      132   7 N                                       1.3946181
   104   1 H      132   7 N                                       1.0069506

 * 4 distinct bonds (by element types)

   Z      Z             #   av. dist./Å        max./Å        min./Å
   1 H    6 C          23     1.0791479     1.0819447     1.0747489
   6 C    6 C         125     1.4083177     1.4333903     1.3449499
   1 H    7 N           5     1.0087003     1.0099331     1.0068979
   6 C    7 N          13     1.3773894     1.4035295     1.3551990


optimized geometry written to: xtbopt.xyz


           -------------------------------------------------
          | TOTAL ENERGY             -242.534025229633 Eh   |
          | GRADIENT NORM               0.000275372548 Eh/α |
          | HOMO-LUMO GAP               0.353014930737 eV   |
           -------------------------------------------------

------------------------------------------------------------------------
 * finished run on 2025/12/08 at 00:33:13.782     
------------------------------------------------------------------------
 total:
 * wall-time:     0 d,  0 h,  0 min,  6.359 sec
 *  cpu-time:     0 d,  0 h,  0 min, 24.672 sec
 * ratio c/w:     3.880 speedup
 SCF:
 * wall-time:     0 d,  0 h,  0 min,  1.128 sec
 *  cpu-time:     0 d,  0 h,  0 min,  4.344 sec
 * ratio c/w:     3.851 speedup
 ANC optimizer:
 * wall-time:     0 d,  0 h,  0 min,  5.112 sec
 *  cpu-time:     0 d,  0 h,  0 min, 19.922 sec
 * ratio c/w:     3.897 speedup

normal termination of xtb
