132
 energy: -242.534025229633 gnorm: 0.000275372548 xtb: 6.7.1pre (5071a88)
C           -2.94722457789144       -7.27055431405456       -0.02102810726584
C            1.30539107033308       -7.32921485324600        0.05380142953027
C           -0.81052730679332       -6.09926707144860        0.00335892629640
C            5.58537229993910       -7.40969279416437        0.00484801670337
C            3.41087078379188       -6.17461326722773        0.02292601296625
N            1.32400475469488       -4.91627004641271        0.01410162853030
C           -1.59709695675237       -7.29411726523015       -0.01380432873981
C           -3.68783373072196       -6.04995611157428       -0.01247438323116
C            2.65168858242482       -7.37680148803706        0.05387484618352
C            0.58189986526841       -6.10753962891429        0.02129830870670
C           -1.52531075180376       -4.86274643441564       -0.00019208480057
C            7.66589097442796       -6.19540686505888       -0.00851724407452
C            5.55724572429723       -4.99830973712332        0.00205000359188
C            3.44756014324268       -3.73988093746551        0.00540934225110
C            5.58649305634553       -2.55614243046490       -0.00314874177020
C            7.72781175599564       -1.40723813633492       -0.01190565739933
C            6.96036491460596       -7.39081818602247       -0.00445346007615
C            4.84363505631222       -6.21511240901382        0.01052776905592
C            2.71021891802317       -4.95704169923675        0.01347010277528
C            0.64648580740935       -3.69671706195717        0.00780064215008
C            6.97004040573054       -4.99701422402790       -0.00586981087984
C            4.85473983747147       -3.76425287966730        0.00190893292723
C            2.77949281656052       -2.49261843110440        0.00371454264116
C            7.00985699676381       -2.57505742615283       -0.00864368421107
C            4.92107248998154       -1.31700333555438       -0.00265787862756
C            7.07989883248192       -0.15089225818217       -0.00987807694285
C           -7.22968686803288       -7.07316519640314       -0.01936445023105
C           -5.07294617613554       -5.99120052318980       -0.01386750960599
C           -7.14474217692514       -4.68047411910014       -0.01315198179094
C           -2.92058088614208       -4.83284286165083       -0.00585510358353
C           -4.99412119967796       -3.53691666864051       -0.00713116419648
C           -7.09609855441023       -2.26333699724016       -0.00747049723386
C           -0.76436540834167       -3.65844231180866        0.00433161957374
C           -2.85363365002849       -2.37541906961058       -0.00048165586674
C           -4.94726850817813       -1.10014740924899       -0.00223079304544
C           -7.05553905590442        0.16041033332627       -0.00269751445194
C           -7.89569253603517       -5.89555965983286       -0.01753935480981
C           -5.75480987081007       -4.74401508451532       -0.01117654486293
N           -7.76922173618864       -3.47024958077143       -0.01107535350815
C           -3.59276746736711       -3.58256714745006       -0.00448643481573
C           -5.67553690842989       -2.30641065542198       -0.00551212837019
C           -7.76387053777593       -1.06358331881657       -0.00585829004762
C            1.36320007932699       -2.48289009986998        0.00544009370866
C           -6.99518980290841        2.58311353160058        0.00115619715679
C            1.63636711675335        7.31773761063914        0.00356958151276
C           -0.71594208991694       -1.19639765907981        0.00366985685304
C            7.86114007738241        3.50315933554201       -0.01118699940458
C           -2.80509941383586        0.07839258491404        0.00205813215397
C            5.78540190227573        4.77013373688933       -0.00544561493160
C           -4.90367867443848        1.33901570123672        0.00120794548981
C            3.70602421863903        6.06327647077909       -0.00042824935868
C            3.50521508625425       -1.29042371255881        0.00063796267150
C           -4.84996221607310        3.78743362143390        0.00373368771729
C            1.41961524383353       -0.01706363701674        0.00254654671445
C           -6.97056449467193        5.00627322269971        0.00418145486133
C           -0.66956797865719        1.26105545861167        0.00338638710006
C            7.92386449422635        5.96637282350182       -0.00976959174903
C           -2.75984905644391        2.52787905158277        0.00354074544026
C            5.65788340650540       -0.11329179156653       -0.00566300298563
C           -2.72600812056514        4.99525591646791        0.00502184565047
C            3.56218624580872        1.16214940899999       -0.00116370921455
C           -4.85996165597484        6.24970763554628        0.00601226089342
C            1.47421003505702        2.43828499353658        0.00185843179366
C           -6.99025727871330        7.40091534850563        0.00683890590142
C           -0.61643787874251        3.71904346588887        0.00375501412372
C            7.78877830900473        1.05049500572674       -0.01196378103710
C           -0.57028143642824        6.17285126334254        0.00493753011404
C            5.71842795005311        2.32670630486641       -0.00615968278398
C           -2.65755370734246        7.40648092842981        0.00669896765980
C            3.62715325592496        3.61213246125115       -0.00135859991671
C            1.53552394436903        4.89838056219651        0.00229611333538
C           -1.44057779081572       -2.41186545751759        0.00261344999012
C            7.14305479514452        2.28265896736800       -0.00983908440378
C           -1.29458437106282        7.38222723657005        0.00616456233240
C           -3.53624528884585       -1.13594185529737       -0.00013226228081
C            5.03959154639221        3.56847926817937       -0.00427835576501
C           -5.63821833378598        0.13443686526404       -0.00116121385117
C            2.95692635672790        4.85764363327079        0.00023216725528
C           -7.71030066113171        1.40203817887426       -0.00121599455757
C            0.85887828264514        6.13817608811886        0.00370303884069
C            0.68668933970732       -1.23238300325004        0.00385640976542
C           -1.39790840325691        0.04940237260064        0.00316388815091
C            7.22132061233923        4.71252477737343       -0.00889035275810
C           -3.48716640938780        1.31694485898510        0.00235081028318
C            5.12102075163954        6.00095373482543       -0.00325479319615
C           -5.58040816373806        2.57316032031614        0.00210756575740
C            2.99563595992526        7.28539254933027        0.00159694671991
C            2.82814074527080       -0.04253602730395        0.00073809391645
C           -5.55649891550259        5.02151655900101        0.00465234509138
C            0.74314201179994        1.22754430990392        0.00268314153122
C           -7.67987475786133        6.19551171951957        0.00530752543004
C           -1.34912967703307        2.50287759577561        0.00363979471666
C            7.24171530570526        7.12549162591238       -0.00732003315690
C           -3.44939377440244        3.76986742889071        0.00414933810090
C            4.98247642239336        1.12622010726333       -0.00430779317119
C           -3.42090297399232        6.22480621254331        0.00598095596333
C            2.88598621659888        2.40331384761588       -0.00015646232377
C           -5.61549942548158        7.43383952690951        0.00714381658425
C            0.79301581823736        3.68530236560308        0.00271268022674
C           -1.30449419134328        4.96500472330048        0.00460892907294
H           -3.47385351350485       -8.21555174953631       -0.03671016444861
H            0.75190085941786       -8.25000894673669        0.08332615024197
H            5.09005531803032       -8.36590842452263        0.00530859955633
H           -5.41829509610581       -8.02861778322503       -0.01794631772303
H           -1.11288348796187       -8.25632136466996       -0.02714889851316
H            3.14745312930893       -8.33089750606936        0.08255144767812
H            8.74608954569090       -6.19242432896515       -0.01469502907825
H            8.80859064609497       -1.43747858529471       -0.01600036148171
H            7.50551910883405       -8.32350726313013       -0.00878741130503
H           -7.74485107684296       -8.02163730575967       -0.02241614286597
H           -8.97242417729356       -5.86792482800334       -0.01926215773276
H           -8.77888204143210       -3.44683466895860       -0.01267722694117
H           -8.84482562400152       -1.04465623378681       -0.00723677287275
H            1.15183773312832        8.28038948557769        0.00495844284375
H            8.94130339956072        3.46767114418550       -0.01393599236544
H            9.00146763355467        5.96293526753915       -0.01233798120214
H            5.40418877979948        8.03754791752353       -0.00238398372393
H           -7.54770547227678        8.32640924818410        0.00774596478237
H            8.86961323698807        1.02352339345927       -0.01509404701334
H           -3.15187439069768        8.36471812894343        0.00755051279358
H           -0.77223146841453        8.32513965938907        0.00663379588888
H           -8.79139589283206        1.43029553302327       -0.00209817381784
H            3.52525440337720        8.22851340157276        0.00153464050755
H           -8.76045471510699        6.17958463952481        0.00497657503606
H            7.72646837278690        8.09022122096112       -0.00775721080065
H           -5.12565505770760        8.39337155924753        0.00828959986700
N            7.63362743028454       -3.80008515175953       -0.01101217728279
N           -7.62711306648283        3.80078001824000        0.00252918503832
H            8.64329012356461       -3.81641652486178       -0.01616997206364
H           -8.63694481010067        3.81346361587878        0.00197663649536
N            5.87810702665695        7.14915520674346       -0.00413035674729
N           -5.87574866565967       -7.13157528629044       -0.01745360592841
