132
 energy: -242.517177621441 gnorm: 0.051959023750 xtb: 6.7.1pre (5071a88)
C           -2.97045600000000       -7.33390700000000       -0.01984900000000
C            1.31644500000000       -7.39542500000000        0.05204800000000
C           -0.81582400000000       -6.15371900000000        0.00285100000000
C            5.62196500000000       -7.47042200000000        0.00530400000000
C            3.43585100000000       -6.22352000000000        0.02322500000000
N            1.33421900000000       -4.95739400000000        0.01539900000000
C           -1.61281200000000       -7.36122500000000       -0.01289300000000
C           -3.71435200000000       -6.10135300000000       -0.01217900000000
C            2.66596500000000       -7.43591300000000        0.05295600000000
C            0.57305600000000       -6.17441800000000        0.02078900000000
C           -1.53760400000000       -4.90444000000000       -0.00051300000000
C            7.72396100000000       -6.24296000000000       -0.00847000000000
C            5.59844500000000       -5.03617900000000        0.00209900000000
C            3.47765300000000       -3.76599800000000        0.00583200000000
C            5.62819800000000       -2.57406800000000       -0.00328900000000
C            7.78660100000000       -1.41597100000000       -0.01246000000000
C            7.00779500000000       -7.44641200000000       -0.00401900000000
C            4.87945400000000       -6.26221400000000        0.01056600000000
C            2.74550700000000       -4.99937100000000        0.01394300000000
C            0.64640300000000       -3.71587200000000        0.00866800000000
C            7.02094700000000       -5.03932800000000       -0.00591900000000
C            4.89389500000000       -3.79304100000000        0.00192900000000
C            2.80160600000000       -2.51407500000000        0.00426100000000
C            7.06227100000000       -2.59158700000000       -0.00898800000000
C            4.95837200000000       -1.32962100000000       -0.00287000000000
C            7.13258000000000       -0.15303000000000       -0.01035000000000
C           -7.28273100000000       -7.11236700000000       -0.01979600000000
C           -5.10795300000000       -6.03509900000000       -0.01378600000000
C           -7.19125200000000       -4.71890800000000       -0.01370900000000
C           -2.94121700000000       -4.87441800000000       -0.00584300000000
C           -5.02955000000000       -3.56510500000000       -0.00731400000000
C           -7.14006800000000       -2.27805500000000       -0.00771500000000
C           -0.77396100000000       -3.68976800000000        0.00493300000000
C           -2.87564900000000       -2.39407400000000        0.00017400000000
C           -4.98178800000000       -1.10868400000000       -0.00187300000000
C           -7.10737100000000        0.15930900000000       -0.00255600000000
C           -7.95629800000000       -5.92737300000000       -0.01820800000000
C           -5.79328200000000       -4.77858200000000       -0.01139000000000
N           -7.80973500000000       -3.49848500000000       -0.01157000000000
C           -3.61770700000000       -3.61038700000000       -0.00517100000000
C           -5.71058800000000       -2.32507200000000       -0.00597400000000
C           -7.81900300000000       -1.07300600000000       -0.00571100000000
C            1.37258600000000       -2.50243600000000        0.00731900000000
C           -7.04522900000000        2.59862600000000        0.00140200000000
C            1.64868300000000        7.37596200000000        0.00359800000000
C           -0.72050100000000       -1.20639800000000        0.00575400000000
C            7.91861400000000        3.53336900000000       -0.01165300000000
C           -2.82482300000000        0.07905100000000        0.00379300000000
C            5.82727500000000        4.80928400000000       -0.00541700000000
C           -4.94090600000000        1.34963400000000        0.00187000000000
C            3.72891600000000        6.11069400000000       -0.00023500000000
C            3.52987100000000       -1.30449900000000        0.00196800000000
C           -4.88718700000000        3.81555800000000        0.00393600000000
C            1.42958200000000       -0.01792400000000        0.00523000000000
C           -7.02242600000000        5.04748200000000        0.00426800000000
C           -0.67646100000000        1.27066300000000        0.00601200000000
C            7.98040300000000        6.01546700000000       -0.00991600000000
C           -2.78149400000000        2.54749300000000        0.00488200000000
C            5.69863100000000       -0.11402800000000       -0.00556000000000
C           -2.74926800000000        5.03471900000000        0.00523000000000
C            3.58506000000000        1.16923000000000        0.00043900000000
C           -4.89834800000000        6.30017300000000        0.00596300000000
C            1.48414300000000        2.45543900000000        0.00406300000000
C           -7.04031400000000        7.45707100000000        0.00676100000000
C           -0.62101000000000        3.74683300000000        0.00497900000000
C            7.84405500000000        1.06068600000000       -0.01265000000000
C           -0.57532300000000        6.22134300000000        0.00498300000000
C            5.75790500000000        2.34451900000000       -0.00603600000000
C           -2.67506300000000        7.46462500000000        0.00646800000000
C            3.65337600000000        3.63820100000000       -0.00044200000000
C            1.54479400000000        4.93704800000000        0.00286800000000
C           -1.45038800000000       -2.42977000000000        0.00129000000000
C            7.19751400000000        2.30146500000000       -0.01023600000000
C           -1.30343000000000        7.44167000000000        0.00609500000000
C           -3.56096400000000       -1.14457600000000       -0.00190600000000
C            5.07407200000000        3.59771100000000       -0.00448900000000
C           -5.67658800000000        0.13391300000000       -0.00177000000000
C            2.98023500000000        4.89481000000000        0.00011700000000
C           -7.76673700000000        1.41130200000000       -0.00082200000000
C            0.86612400000000        6.18622200000000        0.00383700000000
C            0.68969300000000       -1.24309700000000        0.00273100000000
C           -1.40873600000000        0.05025100000000        0.00043000000000
C            7.27826900000000        4.75324800000000       -0.00902900000000
C           -3.51244900000000        1.32717100000000        0.00062000000000
C            5.15614800000000        6.04549500000000       -0.00309400000000
C           -5.61955900000000        2.59237300000000        0.00195700000000
C            3.01651300000000        7.34208200000000        0.00174100000000
C            2.84684200000000       -0.04467700000000       -0.00025000000000
C           -5.59735100000000        5.06061200000000        0.00479500000000
C            0.74788300000000        1.23658900000000        0.00041600000000
C           -7.73820400000000        6.24329500000000        0.00537400000000
C           -1.36100300000000        2.52139000000000        0.00163400000000
C            7.29154800000000        7.18120900000000       -0.00726200000000
C           -3.47802400000000        3.79858700000000        0.00355700000000
C            5.01884900000000        1.13510900000000       -0.00487900000000
C           -3.44469700000000        6.27419800000000        0.00597800000000
C            2.90579900000000        2.41987400000000       -0.00134200000000
C           -5.65445000000000        7.49641400000000        0.00713200000000
C            0.79680500000000        3.71302300000000        0.00168800000000
C           -1.31358200000000        5.00449900000000        0.00434400000000
H           -3.49123000000000       -8.28745500000000       -0.03536000000000
H            0.76520800000000       -8.32430900000000        0.08223700000000
H            5.12043600000000       -8.42989400000000        0.00453100000000
H           -5.48964600000000       -8.08220900000000       -0.01649500000000
H           -1.12984000000000       -8.32992800000000       -0.02735200000000
H            3.16267900000000       -8.39660200000000        0.08386100000000
H            8.81025000000000       -6.24039600000000       -0.01496600000000
H            8.87322300000000       -1.44942600000000       -0.01637400000000
H            7.55564800000000       -8.38494100000000       -0.00849500000000
H           -7.78947900000000       -8.06963700000000       -0.02272400000000
H           -9.03917800000000       -5.90976600000000       -0.02011200000000
H           -8.82221200000000       -3.47874800000000       -0.01363500000000
H           -8.90578200000000       -1.06063900000000       -0.00715300000000
H            1.16375500000000        8.34411100000000        0.00506100000000
H            9.00553200000000        3.50040700000000       -0.01435000000000
H            9.06473800000000        6.03010100000000       -0.01257200000000
H            5.45813900000000        8.09750900000000       -0.00179500000000
H           -7.60125400000000        8.38765900000000        0.00765800000000
H            8.93144300000000        1.03345900000000       -0.01567300000000
H           -3.17051100000000        8.42858300000000        0.00736700000000
H           -0.77829400000000        8.38897900000000        0.00618300000000
H           -8.85337500000000        1.44147700000000       -0.00186900000000
H            3.54227300000000        8.29162200000000        0.00123700000000
H           -8.82454700000000        6.22713900000000        0.00499300000000
H            7.76724000000000        8.15443100000000       -0.00767800000000
H           -5.16060500000000        8.46053500000000        0.00815700000000
N            7.68451000000000       -3.82643400000000       -0.01139000000000
N           -7.67739400000000        3.82744900000000        0.00287000000000
H            8.69618300000000       -3.84416900000000       -0.01641900000000
H           -8.68920400000000        3.83854100000000        0.00208200000000
N            5.91777600000000        7.20005300000000       -0.00399600000000
N           -5.92232600000000       -7.16978000000000       -0.01759000000000
132
 energy: -242.528755132690 gnorm: 0.024914449213 xtb: 6.7.1pre (5071a88)
C           -2.96323475552392       -7.30396221839789       -0.02011589357661
C            1.31582719631177       -7.36551050640862        0.05237616774378
C           -0.81401292297236       -6.13053924625863        0.00314783669743
C            5.61415646311671       -7.44231000450484        0.00491637640883
C            3.42895771476556       -6.20317129697531        0.02302616856084
N            1.33138601624068       -4.94180776418242        0.01473736367591
C           -1.61069656207744       -7.32944642051923       -0.01335049457519
C           -3.70689833314924       -6.07935358169436       -0.01213234916372
C            2.66305597420470       -7.40905268266219        0.05317026297123
C            0.57733019529291       -6.14669277163058        0.02082803815001
C           -1.53412661819450       -4.88788751339132       -0.00029722419159
C            7.69977379931305       -6.22330139793509       -0.00838130626260
C            5.58311702775266       -5.02222785211603        0.00217563913488
C            3.46656852378142       -3.75733288750492        0.00593222241801
C            5.61169650586002       -2.56769966229494       -0.00314324489817
C            7.75906311194300       -1.41307446464081       -0.01224443668526
C            6.99149045516678       -7.42104828929764       -0.00424323383291
C            4.86842874224474       -6.24368930329439        0.01061104821075
C            2.73193650163677       -4.98362982028842        0.01380475709438
C            0.64726448390782       -3.71076024792906        0.00826065526639
C            7.00048475354229       -5.02343871206869       -0.00585160316049
C            4.87920816667027       -3.78312299940054        0.00203836862942
C            2.79421412929052       -2.50656491358742        0.00433965544720
C            7.04023451275590       -2.58616305692724       -0.00886497117077
C            4.94430987249478       -1.32471953133601       -0.00260829352211
C            7.10965348927130       -0.15169189496472       -0.01019912967028
C           -7.26573578922251       -7.09467402013929       -0.01958079733031
C           -5.09603125079659       -6.01779825507324       -0.01370094042841
C           -7.17286189743009       -4.70334042812279       -0.01359553289318
C           -2.93417615942743       -4.85797432045973       -0.00577116353176
C           -5.01622104298549       -3.55437452379851       -0.00727220597113
C           -7.12127968456707       -2.27182383529981       -0.00768278499692
C           -0.76974706942396       -3.67879409125563        0.00458083532036
C           -2.86773435006784       -2.38791447686155       -0.00051017132702
C           -4.96840011314457       -1.10500104192082       -0.00229105876181
C           -7.08448816672238        0.16068451406064       -0.00261085417711
C           -7.93269646681266       -5.91436038605325       -0.01806065025076
C           -5.77902717391294       -4.76514391321483       -0.01136053437526
N           -7.79271608135507       -3.48646443070951       -0.01150425397730
C           -3.60899230313522       -3.60037673482916       -0.00480519509447
C           -5.69661450075119       -2.31746514524139       -0.00585847466521
C           -7.79268994288691       -1.06930595451875       -0.00583592032696
C            1.36963050592278       -2.49662935397803        0.00654923896702
C           -7.02385371783022        2.59413918303478        0.00135103998522
C            1.64659054949395        7.34720107293092        0.00361611062111
C           -0.71873288820698       -1.20378194780906        0.00429897704637
C            7.89235480319792        3.52308088597778       -0.01147764220833
C           -2.81750791643746        0.07882062542369        0.00230234880875
C            5.81163464959558        4.79428782415598       -0.00539712064374
C           -4.92638736397155        1.34634695505557        0.00131801637231
C            3.72245139488436        6.08968578216728       -0.00028717311897
C            3.52115664574505       -1.29918820149516        0.00139214622205
C           -4.87315638580947        3.80622775524992        0.00384492154824
C            1.42675150190818       -0.01748306815901        0.00353428690643
C           -7.00111189726645        5.03221606890850        0.00428680456160
C           -0.67354451530814        1.26732462222842        0.00401732323385
C            7.95706603751513        5.99586972043732       -0.00986611357740
C           -2.77372580147277        2.54065454364008        0.00380962891133
C            5.68236629656240       -0.11343455236306       -0.00562821838111
C           -2.74117515548426        5.01936979068813        0.00506007665305
C            3.57778801785026        1.16729395721645       -0.00053631901624
C           -4.88548402815155        6.27953484505503        0.00599563576410
C            1.48132277142636        2.44967567617269        0.00254936911949
C           -7.02220739436232        7.43128208613176        0.00677643794906
C           -0.61939012042368        3.73676443646814        0.00408485502722
C            7.81796637905313        1.05790351068871       -0.01237644119795
C           -0.57408886689023        6.20009458529501        0.00496449090855
C            5.74270473679443        2.33861029383028       -0.00612807960115
C           -2.66975892219804        7.43646326160090        0.00654187873958
C            3.64492977287993        3.62900823545229       -0.00097740397690
C            1.54220185957516        4.92152299773953        0.00254823583110
C           -1.44701743149068       -2.42435379693557        0.00223482250174
C            7.17420921888420        2.29534198058940       -0.01012833547142
C           -1.30353959069820        7.41254672962519        0.00599413125892
C           -3.55157577898853       -1.14169557460191       -0.00083449395779
C            5.06231457379937        3.58714122216498       -0.00430256297483
C           -5.66112643969194        0.13491382531471       -0.00143888849929
C            2.97200867376318        4.87996274953462        0.00031060012219
C           -7.73985455443333        1.40898457634791       -0.00098998444650
C            0.86328642278198        6.16514516746899        0.00374717901662
C            0.68944854147859       -1.23971407877722        0.00390024719020
C           -1.40456909956977        0.04963457392570        0.00237937659915
C            7.25485117949713        4.73755849540696       -0.00900930729450
C           -3.50294524158225        1.32368297549143        0.00176176444463
C            5.14445599616261        6.02718463544226       -0.00314678525161
C           -5.60383860497386        2.58602698486255        0.00204143613293
C            3.00942734081219        7.31415416211988        0.00160387239389
C            2.84112039391138       -0.04346194710031        0.00081095194932
C           -5.58212731175215        5.04624943404521        0.00471191631651
C            0.74687850021744        1.23366382758819        0.00232604115946
C           -7.71354886417953        6.22367770632312        0.00535045271540
C           -1.35659255190696        2.51488709459651        0.00309418591420
C            7.27355453070023        7.15648213228060       -0.00725259503886
C           -3.46763394079429        3.78835033438742        0.00392901734534
C            5.00597658357067        1.13253137727234       -0.00439334225525
C           -3.43800534813485        6.25291282975385        0.00592355166379
C            2.89975818641614        2.41435380463271       -0.00027994389342
C           -5.64455838304388        7.46716076258111        0.00709078152230
C            0.79566743041249        3.70289843422329        0.00254305512554
C           -1.31135508046701        4.98874775091236        0.00451782008166
H           -3.48688586879386       -8.25360246991386       -0.03484172106545
H            0.76629103459957       -8.29250721784274        0.08102437569121
H            5.12005977613623       -8.40127738011024        0.00496903597689
H           -5.47193398593826       -8.06219075291028       -0.01666736380257
H           -1.12913048278109       -8.29575969551953       -0.02638433486725
H            3.15827953729268       -8.36675037243921        0.08240473967850
H            8.78218335029739       -6.22507116651092       -0.01466616679610
H            8.84242242814254       -1.44538463758347       -0.01634083325987
H            7.53887572658546       -8.35613930043845       -0.00837642189070
H           -7.77728546277034       -8.04722346273986       -0.02265261498429
H           -9.01179070965351       -5.89463514443691       -0.02006049306487
H           -8.80394864484720       -3.46667921061103       -0.01349947919713
H           -8.87612495875403       -1.05552600881411       -0.00711756596467
H            1.16494886227703        8.31385651579705        0.00498171983719
H            8.97562128347247        3.49094074915852       -0.01430666421452
H            9.03757549952723        6.00716909561110       -0.01250928476111
H            5.44420260742514        8.07412304692843       -0.00185626973944
H           -7.58239371247074        8.35880165143059        0.00763162179958
H            8.90181191689829        1.03104462001438       -0.01563962105821
H           -3.16290206271685        8.39835233970920        0.00732508721856
H           -0.78244910932970        8.35879756864525        0.00627776605636
H           -8.82341264398349        1.43824003951357       -0.00178657855741
H            3.53657185402776        8.26104913182323        0.00133461180298
H           -8.79639615058298        6.21201938550000        0.00499246829216
H            7.75356281239405        8.12570105480930       -0.00765779935433
H           -5.15774273787908        8.43046373383202        0.00815055700471
N            7.66281030182382       -3.81747898125837       -0.01125672373157
N           -7.65569637521074        3.81871176045865        0.00281959874246
H            8.67378066979368       -3.83619939825068       -0.01631128743858
H           -8.66684970831697        3.83149794951714        0.00207519039699
N            5.90526647457656        7.17805249045252       -0.00400704375421
N           -5.90874127153713       -7.15343761139343       -0.01744845773241
132
 energy: -242.533515550346 gnorm: 0.007084951557 xtb: 6.7.1pre (5071a88)
C           -2.95287278096503       -7.27803392258065       -0.01986081135128
C            1.31051005606189       -7.33783396646307        0.05198484743900
C           -0.81131624269553       -6.10779068883094        0.00335500418480
C            5.59848549653019       -7.41751142712168        0.00503284914908
C            3.41862478696704       -6.18283494488376        0.02287507515188
N            1.32712610631333       -4.92469254683543        0.01420376166479
C           -1.60257062887685       -7.30172505024711       -0.01285860632930
C           -3.69627304759380       -6.05840601425940       -0.01209832471955
C            2.65738316966476       -7.38468200784433        0.05272101830436
C            0.58167701343980       -6.11801464294221        0.02068058335733
C           -1.52887648725747       -4.87060771412254       -0.00014422982860
C            7.67723084884644       -6.20252208954951       -0.00833388913755
C            5.56641036034856       -5.00623671258345        0.00222763685564
C            3.45385819674146       -3.74638614493484        0.00582572425029
C            5.59431236133874       -2.56009628921593       -0.00300916734048
C            7.73479423915249       -1.40909158326798       -0.01207703952336
C            6.97280679125525       -7.39821817961551       -0.00417156541668
C            4.85354572860192       -6.22419856824833        0.01068439630618
C            2.71633659526001       -4.96577721145189        0.01365619669867
C            0.64775896155348       -3.70348644344048        0.00812898180396
C            6.98030887625469       -5.00473975055987       -0.00578270170978
C            4.86282461177004       -3.77085848098672        0.00214681005914
C            2.78481292139976       -2.49747601438351        0.00429048245711
C            7.01872069369240       -2.57889257746414       -0.00870647226072
C            4.92841229742530       -1.31940415666973       -0.00241623797834
C            7.08782774831430       -0.15065111811141       -0.01003742189551
C           -7.24554336034030       -7.07775658409911       -0.01944838843908
C           -5.08201991757603       -6.00007602997167       -0.01372564749940
C           -7.15424773795518       -4.68619119401288       -0.01346854964184
C           -2.92560677615547       -4.84079351039824       -0.00575107625987
C           -5.00131355759932       -3.54274918951558       -0.00728694737665
C           -7.10308621798568       -2.26545586943955       -0.00765772336136
C           -0.76540150283934       -3.66557222576917        0.00433977694001
C           -2.85807486829498       -2.38015860327982       -0.00075860264565
C           -4.95339563674354       -1.10167790236861       -0.00250812522258
C           -7.06267225459752        0.16127658326311       -0.00266539894486
C           -7.90931899055327       -5.89971588213331       -0.01793706947380
C           -5.76370663682972       -4.75085435237870       -0.01131485509942
N           -7.77651604499107       -3.47366416311124       -0.01142613530163
C           -3.59841467771646       -3.58888826852843       -0.00454014645551
C           -5.68172332039784       -2.30976015421034       -0.00571286107569
C           -7.76972171227108       -1.06498392465892       -0.00587936920857
C            1.36572771278002       -2.48848805678317        0.00589334238662
C           -7.00316581448106        2.58740241272955        0.00129181687288
C            1.64035576994721        7.32313999419560        0.00357437347639
C           -0.71658888768814       -1.19964427377050        0.00354536369922
C            7.86918420488984        3.50989764243648       -0.01136769631978
C           -2.80876491276912        0.07833999378647        0.00165386441046
C            5.79440470625527        4.77824930590536       -0.00540752796622
C           -4.91030066881779        1.34166896537636        0.00103527048671
C            3.71301107691348        6.07014378440113       -0.00034231266392
C            3.51064229818068       -1.29325026255930        0.00102217912498
C           -4.85750334835907        3.79412236351167        0.00371016803137
C            1.42245087454147       -0.01745032509775        0.00273259302309
C           -6.98032114713493        5.01408360575568        0.00426562487645
C           -0.67042581047389        1.26292060712057        0.00316752888251
C            7.93474845765932        5.97514782530231       -0.00981302282049
C           -2.76442080088318        2.53197008570444        0.00328718381774
C            5.66521418227408       -0.11317746743040       -0.00564072071290
C           -2.73137403687725        5.00251125583476        0.00494523132056
C            3.56792559518297        1.16408946126005       -0.00102263444164
C           -4.86939029013089        6.25854041874985        0.00596922235786
C            1.47703594398469        2.44201530183094        0.00186467342692
C           -7.00218587326864        7.40828307550430        0.00676984185987
C           -0.61746465734235        3.72455365333630        0.00365821009402
C            7.79537725085064        1.05339622541329       -0.01222597023277
C           -0.57186254259982        6.17972763535263        0.00487652124324
C            5.72618759604207        2.33110409475737       -0.00618096308251
C           -2.66267872975197        7.41255658037698        0.00653738128792
C            3.63376441090777        3.61786572549811       -0.00127284400186
C            1.53833908920652        4.90501784568406        0.00235118171804
C           -1.44261233417563       -2.41684101953061        0.00266985713601
C            7.15175200466987        2.28709384491815       -0.01000680105619
C           -1.29908034914517        7.38794101825758        0.00598478147451
C           -3.54070027994743       -1.13824071276911       -0.00026128309062
C            5.04791537582631        3.57495506899658       -0.00417973090532
C           -5.64484716664678        0.13499802131894       -0.00122813297723
C            2.96212441928354        4.86428362458307        0.00038819364313
C           -7.71639398121970        1.40485977194819       -0.00105228695652
C            0.86003642165792        6.14496932978979        0.00373690419075
C            0.68831326496929       -1.23533861015501        0.00437657932568
C           -1.39969527381615        0.04904377200469        0.00330727224269
C            7.23175940965936        4.72015589445371       -0.00896325617510
C           -3.49197266427432        1.31907251351849        0.00230086514883
C            5.12988382605955        6.00929905260948       -0.00315484446544
C           -5.58738189095103        2.57762803521188        0.00213893076513
C            3.00030530722309        7.29087401084035        0.00159576959344
C            2.83304180926064       -0.04281346007514        0.00128627320778
C           -5.56549418334021        5.02968023485253        0.00467308732828
C            0.74486774892417        1.22943742641733        0.00307784107235
C           -7.69072517870553        6.20293031692568        0.00531611762967
C           -1.35139809980191        2.50661953732602        0.00375969298159
C            7.25305652529451        7.13370595914651       -0.00723244750659
C           -3.45549663469046        3.77580055689577        0.00413577605772
C            4.99034240675714        1.12871325694952       -0.00415374409906
C           -3.42824264915465        6.23226741920641        0.00589795492015
C            2.89126769150839        2.40708816376158        0.00018916269323
C           -5.62779524486546        7.44161390708758        0.00704926676650
C            0.79413355961759        3.69072516749431        0.00290955178302
C           -1.30756722206092        4.97182977686748        0.00460777498974
H           -3.47977075146389       -8.22382775012332       -0.03477569288529
H            0.75920121005021       -8.26150400892184        0.07991043876632
H            5.10669908324598       -8.37584673072616        0.00554280806285
H           -5.44602470362735       -8.04162894096800       -0.01696794335537
H           -1.11895893659230       -8.26519838020516       -0.02525924596174
H            3.15301440918280       -8.33958971795760        0.08098349077931
H            8.75757134572501       -6.20482761342385       -0.01449757804919
H            8.81603766111386       -1.44007616956478       -0.01629250046109
H            7.51959117538261       -8.33066672762677       -0.00847447985908
H           -7.76146227682042       -8.02632388085699       -0.02250625708352
H           -8.98625487190867       -5.87536467771449       -0.01991881248409
H           -8.78659302707139       -3.45313587157239       -0.01329132866486
H           -8.85109343822959       -1.04851096504194       -0.00713476450167
H            1.15824917321835        8.28775395372377        0.00491672281861
H            8.94992553825254        3.47723563438434       -0.01423251785719
H            9.01275935863613        5.97965405356829       -0.01246150724371
H            5.42309631842585        8.05079668359284       -0.00194427878039