      -----------------------------------------------------------      
     |                   =====================                   |     
     |                           x T B                           |     
     |                   =====================                   |     
     |                         S. Grimme                         |     
     |          Mulliken Center for Theoretical Chemistry        |     
     |                    University of Bonn                     |     
      -----------------------------------------------------------      

   * xtb version 6.7.1pre (5071a88) compiled by 'Marcel@Raven' on 2024-07-23

   xtb is free software: you can redistribute it and/or modify it under
   the terms of the GNU Lesser General Public License as published by
   the Free Software Foundation, either version 3 of the License, or
   (at your option) any later version.
   
   xtb is distributed in the hope that it will be useful,
   but WITHOUT ANY WARRANTY; without even the implied warranty of
   MERCHANTABILITY or FITNESS FOR A PARTICULAR PURPOSE.  See the
   GNU Lesser General Public License for more details.
   
   Cite this work as:
   * C. Bannwarth, E. Caldeweyher, S. Ehlert, A. Hansen, P. Pracht,
     J. Seibert, S. Spicher, S. Grimme, WIREs Comput. Mol. Sci., 2020, 11,
     e01493. DOI: 10.1002/wcms.1493
   
   for GFN2-xTB:
   * C. Bannwarth, S. Ehlert and S. Grimme., J. Chem. Theory Comput., 2019,
     15, 1652-1671. DOI: 10.1021/acs.jctc.8b01176
   for GFN1-xTB:
   * S. Grimme, C. Bannwarth, P. Shushkov, J. Chem. Theory Comput., 2017,
     13, 1989-2009. DOI: 10.1021/acs.jctc.7b00118
   for GFN0-xTB:
   * P. Pracht, E. Caldeweyher, S. Ehlert, S. Grimme, ChemRxiv, 2019, preprint.
     DOI: 10.26434/chemrxiv.8326202.v1
   for GFN-FF:
   * S. Spicher and S. Grimme, Angew. Chem. Int. Ed., 2020, 59, 15665-15673.
     DOI: 10.1002/anie.202004239
   
   for ALPB and GBSA implicit solvation:
   * S. Ehlert, M. Stahn, S. Spicher, S. Grimme, J. Chem. Theory Comput.,
     2021, 17, 4250-4261. DOI: 10.1021/acs.jctc.1c00471
   
   for ddCOSMO and CPCM-X implicit solvation:
   * M. Stahn, S. Ehlert, S. Grimme, J. Phys. Chem. A,
     2023, XX, XXXX-XXXX. DOI: 10.1021/acs.jpca.3c04382
   
   for DFT-D4:
   * E. Caldeweyher, C. Bannwarth and S. Grimme, J. Chem. Phys., 2017,
     147, 034112. DOI: 10.1063/1.4993215
   * E. Caldeweyher, S. Ehlert, A. Hansen, H. Neugebauer, S. Spicher,
     C. Bannwarth and S. Grimme, J. Chem. Phys., 2019, 150, 154122.
     DOI: 10.1063/1.5090222
   * E. Caldeweyher, J.-M. Mewes, S. Ehlert and S. Grimme, Phys. Chem. Chem. Phys.
     2020, 22, 8499-8512. DOI: 10.1039/D0CP00502A
   
   for sTDA-xTB:
   * S. Grimme and C. Bannwarth, J. Chem. Phys., 2016, 145, 054103.
     DOI: 10.1063/1.4959605
   
   in the mass-spec context:
   * V. Asgeirsson, C. Bauer and S. Grimme, Chem. Sci., 2017, 8, 4879.
     DOI: 10.1039/c7sc00601b
   * J. Koopman and S. Grimme, ACS Omega 2019, 4, 12, 15120-15133.
     DOI: 10.1021/acsomega.9b02011
   
   for metadynamics refer to:
   * S. Grimme, J. Chem. Theory Comput., 2019, 155, 2847-2862
     DOI: 10.1021/acs.jctc.9b00143
   
   for SPH calculations refer to:
   * S. Spicher and S. Grimme, J. Chem. Theory Comput., 2021, 17, 1701-1714
     DOI: 10.1021/acs.jctc.0c01306
   
   for ONIOM refer to:
   * C. Plett, A. Katbashev, S. Ehlert, S. Grimme, M. Bursch,
     Phys. Chem. Chem. Phys., 2023, 25, 17860-17868. DOI: 10.1039/D3CP02178E
   
   for DIPRO refer to:
   * J. Kohn, N. Gildemeister, S. Grimme, D. Fazzi, A. Hansen,
     J. Chem. Phys., 2023, just accepted.
   
   for PTB refer to:
   * S. Grimme, M. Mueller, A. Hansen, J. Chem. Phys., 2023, 158, 124111.
     DOI: 10.1063/5.0137838
   
   with help from (in alphabetical order)
   P. Atkinson, C. Bannwarth, F. Bohle, G. Brandenburg, E. Caldeweyher
   M. Checinski, S. Dohm, S. Ehlert, S. Ehrlich, I. Gerasimov, C. Hölzer
   A. Katbashev, J. Kohn, J. Koopman, C. Lavigne, S. Lehtola, F. März, M. Müller,
   F. Musil, H. Neugebauer, J. Pisarek, C. Plett, P. Pracht, F. Pultar,
   J. Seibert, P. Shushkov, S. Spicher, M. Stahn, M. Steiner, T. Strunk,
   J. Stückrath, T. Rose, and J. Unsleber
   
 * started run on 2025/12/08 at 00:35:04.524     
   ID    Z sym.   atoms
    1    6 C      1-53
    2    1 H      54-73
    3    8 O      74

           -------------------------------------------------
          |                Calculation Setup                |
           -------------------------------------------------

          program call               : xtb "C:\Users\LENOVO GAMING\Documents\GitHub\molecular-conductivity-sim\dataset\1nm-Odoped-1.5percent.xyz" --opt --parallel 4
          coordinate file            : C:\Users\LENOVO GAMING\Documents\GitHub\molecular-conductivity-sim\dataset\1nm-Odoped-1.5percent.xyz
          omp threads                :                     4


           -------------------------------------------------
          |                 G F N 2 - x T B                 |
           -------------------------------------------------

        Reference                      10.1021/acs.jctc.8b01176
      * Hamiltonian:
        H0-scaling (s, p, d)           1.850000    2.230000    2.230000
        zeta-weighting                 0.500000
      * Dispersion:
        s8                             2.700000
        a1                             0.520000
        a2                             5.000000
        s9                             5.000000
      * Repulsion:
        kExp                           1.500000    1.000000
        rExp                           1.000000
      * Coulomb:
        alpha                          2.000000
        third order                    shell-resolved
        anisotropic                    true
        a3                             3.000000
        a5                             4.000000
        cn-shift                       1.200000
        cn-exp                         4.000000
        max-rad                        5.000000


          ...................................................
          :                      SETUP                      :
          :.................................................:
          :  # basis functions                 236          :
          :  # atomic orbitals                 236          :
          :  # shells                          128          :
          :  # electrons                       238          :
          :  max. iterations                   250          :
          :  Hamiltonian                  GFN2-xTB          :
          :  restarted?                      false          :
          :  GBSA solvation                  false          :
          :  PC potential                    false          :
          :  electronic temp.          300.0000000     K    :
          :  accuracy                    1.0000000          :
          :  -> integral cutoff          0.2500000E+02      :
          :  -> integral neglect         0.1000000E-07      :
          :  -> SCF convergence          0.1000000E-05 Eh   :
          :  -> wf. convergence          0.1000000E-03 e    :
          :  Broyden damping             0.4000000          :
          :  net charge                          0          :
          :  unpaired electrons                  0          :
          ...................................................

 iter      E             dE          RMSdq      gap      omega  full diag
   1   -130.1359797 -0.130136E+03  0.488E+00    0.64       0.0  T
   2   -129.6818385  0.454141E+00  0.382E+00    1.08       1.0  T
   3   -129.6113134  0.705250E-01  0.278E+00    1.25       1.0  T
   4   -130.1635549 -0.552242E+00  0.125E+00    0.66       1.0  T
   5   -130.2287958 -0.652408E-01  0.821E-01    0.30       1.0  T
   6   -130.1538750  0.749208E-01  0.106E+00    0.18       1.0  T
   7   -130.2932565 -0.139382E+00  0.432E-01    0.09       1.0  T
   8   -130.3113284 -0.180719E-01  0.158E-01    0.04       1.0  T
   9   -130.3073709  0.395752E-02  0.241E-01    0.06       1.0  T
  10   -130.2917880  0.155829E-01  0.391E-01    0.02       1.0  T
  11   -130.3125337 -0.207457E-01  0.720E-02    0.02       1.0  T
  12   -130.3131085 -0.574861E-03  0.296E-02    0.03       1.0  T
  13   -130.3132077 -0.991327E-04  0.114E-02    0.03       1.0  T
  14   -130.3132098 -0.209137E-05  0.102E-02    0.03       1.1  T
  15   -130.3132234 -0.136418E-04  0.204E-03    0.03       5.7  T
  16   -130.3132239 -0.534303E-06  0.297E-04    0.03      39.1  T
  17   -130.3132240 -0.772684E-08  0.149E-04    0.03      78.2  T

   *** convergence criteria satisfied after 17 iterations ***

         #    Occupation            Energy/Eh            Energy/eV
      -------------------------------------------------------------
         1        2.0000           -0.7554769             -20.5576
       ...           ...                  ...                  ...
       113        2.0000           -0.3886194             -10.5749
       114        2.0000           -0.3878328             -10.5535
       115        2.0000           -0.3872311             -10.5371
       116        2.0000           -0.3810423             -10.3687
       117        2.0000           -0.3673494              -9.9961
       118        2.0000           -0.3591677              -9.7735
       119        1.2719           -0.3128837              -8.5140 (HOMO)
       120        0.7281           -0.3118239              -8.4852 (LUMO)
       121                         -0.2746860              -7.4746
       122                         -0.2683166              -7.3013
       123                         -0.2549540              -6.9377
       124                         -0.2458159              -6.6890
       ...                                ...                  ...
       236                          0.7306481              19.8819
      -------------------------------------------------------------
                  HL-Gap            0.0010598 Eh            0.0288 eV
             Fermi-level           -0.3123538 Eh           -8.4996 eV

 SCC (total)                   0 d,  0 h,  0 min,  0.325 sec
 SCC setup                      ...        0 min,  0.000 sec (  0.000%)
 Dispersion                     ...        0 min,  0.003 sec (  0.923%)
 classical contributions        ...        0 min,  0.000 sec (  0.000%)
 integral evaluation            ...        0 min,  0.017 sec (  5.231%)
 iterations                     ...        0 min,  0.253 sec ( 77.846%)
 molecular gradient             ...        0 min,  0.049 sec ( 15.077%)
 printout                       ...        0 min,  0.001 sec (  0.308%)

         :::::::::::::::::::::::::::::::::::::::::::::::::::::
         ::                     SUMMARY                     ::
         :::::::::::::::::::::::::::::::::::::::::::::::::::::
         :: total energy            -128.023260949219 Eh    ::
         :: gradient norm              0.049043087835 Eh/a0 ::
         :: HOMO-LUMO gap              0.028838724375 eV    ::
         ::.................................................::
         :: SCC energy              -130.315303338300 Eh    ::
         :: -> isotropic ES            0.013619871754 Eh    ::
         :: -> anisotropic ES          0.010230633534 Eh    ::
         :: -> anisotropic XC          0.054203556785 Eh    ::
         :: -> dispersion             -0.135017018772 Eh    ::
         :: repulsion energy           2.292042389081 Eh    ::
         :: add. restraining           0.000000000000 Eh    ::
         :: total charge              -0.000000000000 e     ::
         :::::::::::::::::::::::::::::::::::::::::::::::::::::

      ----------------------------------------------------------- 
     |                   =====================                   |
     |                        A N C O P T                        |
     |                   =====================                   |
     |               Approximate Normal Coordinate               |
     |                Rational Function Optimizer                |
      ----------------------------------------------------------- 
      ----------------------------------------------------------- 
     |                   =====================                   |
     |                        A N C O P T                        |
     |                   =====================                   |
     |               Approximate Normal Coordinate               |
     |                Rational Function Optimizer                |
      ----------------------------------------------------------- 

          ...................................................
          :                      SETUP                      :
          :.................................................:
          :   optimization level            normal          :
          :   max. optcycles                   222          :
          :   ANC micro-cycles                  20          :
          :   degrees of freedom               216          :
          :.................................................:
          :   RF solver                   davidson          :
          :   write xtbopt.log                true          :
          :   linear?                        false          :
          :   energy convergence         0.5000000E-05 Eh   :
          :   grad. convergence          0.1000000E-02 Eh/α :
          :   maxmium RF displ.          1.0000000          :
          :   Hlow (freq-cutoff)         0.1000000E-01      :
          :   Hmax (freq-cutoff)         5.0000000          :
          :   S6 in model hess.         20.0000000          :
          ...................................................

generating ANC from exact Hessian ...
Using Lindh-Hessian (1995)
 Shifting diagonal of input Hessian by   9.684114647933201E-003
 Lowest  eigenvalues of input Hessian
    0.000000    0.000000    0.000000    0.000000    0.000000    0.000000
    0.010000    0.010299    0.010729    0.011026    0.011366    0.012862
    0.013515    0.014093    0.014848    0.016176    0.016903    0.017329
 Highest eigenvalues
    2.024874    2.039125    2.054092    2.089631    2.119021    2.157295
 

........................................................................
.............................. CYCLE    1 ..............................
........................................................................

 iter      E             dE          RMSdq      gap      omega  full diag
   1   -130.3132240 -0.130313E+03  0.153E-04    0.03       0.0  T
   2   -130.3132228  0.111201E-05  0.280E-03    0.03       4.2  T
   3   -130.3132240 -0.111489E-05  0.628E-05    0.03     185.1  T
   4   -130.3132240 -0.213419E-09  0.493E-05    0.03     235.9  T
   5   -130.3132240 -0.237634E-09  0.172E-05    0.03     674.1  T
     SCC iter.                  ...        0 min,  0.074 sec
     gradient                   ...        0 min,  0.045 sec
 * total energy  :  -128.0232610 Eh     change       -0.2754973E-08 Eh
   gradient norm :     0.0490487 Eh/α   predicted     0.0000000E+00 (-100.00%)
   displ. norm   :     0.3791320 α      lambda       -0.1090430E-01
   maximum displ.:     0.2918866 α      in ANC's #34, #37, #74, ...

........................................................................
.............................. CYCLE    2 ..............................
........................................................................

 iter      E             dE          RMSdq      gap      omega  full diag
   1   -130.4029151 -0.130403E+03  0.252E-01    0.01       0.0  T
   2   -130.2963851  0.106530E+00  0.924E-01    0.55       1.0  T
   3   -130.3799383 -0.835532E-01  0.477E-01    0.11       1.0  T
   4   -130.3995567 -0.196184E-01  0.280E-01    0.01       1.0  T
   5   -130.3918249  0.773178E-02  0.369E-01    0.04       1.0  T
   6   -130.4101096 -0.182847E-01  0.368E-02    0.02       1.0  T
   7   -130.4102808 -0.171180E-03  0.986E-03    0.03       1.2  T
   8   -130.4102687  0.120994E-04  0.131E-02    0.03       1.0  T
   9   -130.4102922 -0.235243E-04  0.128E-03    0.03       9.1  T
  10   -130.4102921  0.534454E-07  0.109E-03    0.03      10.6  T
  11   -130.4102923 -0.126985E-06  0.482E-04    0.03      24.1  T
  12   -130.4102923  0.111005E-07  0.537E-04    0.03      21.6  T
     SCC iter.                  ...        0 min,  0.180 sec
     gradient                   ...        0 min,  0.052 sec
 * total energy  :  -128.0308560 Eh     change       -0.7595007E-02 Eh
   gradient norm :     0.0220244 Eh/α   predicted    -0.6235997E-02 ( -17.89%)
   displ. norm   :     0.2765081 α      lambda       -0.2987909E-02
   maximum displ.:     0.2156624 α      in ANC's #34, #15, #37, ...

........................................................................
.............................. CYCLE    3 ..............................
........................................................................

 iter      E             dE          RMSdq      gap      omega  full diag
   1   -130.4630705 -0.130463E+03  0.189E-01    0.01       0.0  T
   2   -130.3670616  0.960088E-01  0.859E-01    0.43       1.0  T
   3   -130.4538106 -0.867490E-01  0.317E-01    0.07       1.0  T
   4   -130.4596283 -0.581773E-02  0.237E-01    0.00       1.0  T
   5   -130.4539785  0.564979E-02  0.313E-01    0.03       1.0  T
   6   -130.4672828 -0.133043E-01  0.157E-02    0.03       1.0  T
   7   -130.4673080 -0.251744E-04  0.371E-03    0.03       3.1  T
   8   -130.4673000  0.800860E-05  0.822E-03    0.03       1.4  T
   9   -130.4673091 -0.911733E-05  0.125E-03    0.03       9.3  T
  10   -130.4673093 -0.158153E-06  0.260E-04    0.03      44.7  T
  11   -130.4673093 -0.393072E-08  0.119E-04    0.03      97.3  T
     SCC iter.                  ...        0 min,  0.166 sec
     gradient                   ...        0 min,  0.048 sec
 * total energy  :  -128.0324908 Eh     change       -0.1634800E-02 Eh
   gradient norm :     0.0062238 Eh/α   predicted    -0.1608436E-02 (  -1.61%)
   displ. norm   :     0.0480392 α      lambda       -0.8705035E-04
   maximum displ.:     0.0248002 α      in ANC's #15, #34, #19, ...

........................................................................
.............................. CYCLE    4 ..............................
........................................................................

 iter      E             dE          RMSdq      gap      omega  full diag
   1   -130.4707671 -0.130471E+03  0.395E-02    0.02       0.0  T
   2   -130.4365394  0.342277E-01  0.494E-01    0.11       1.0  T
   3   -130.4709426 -0.344031E-01  0.111E-02    0.03       1.0  T
   4   -130.4709092  0.333103E-04  0.187E-02    0.02       1.0  T
   5   -130.4709301 -0.208952E-04  0.122E-02    0.03       1.0  T
   6   -130.4709432 -0.130830E-04  0.428E-03    0.02       2.7  T
   7   -130.4709456 -0.241511E-05  0.555E-04    0.03      21.0  T
   8   -130.4709456  0.624023E-07  0.809E-04    0.03      14.4  T
   9   -130.4709456 -0.705136E-07  0.379E-04    0.03      30.7  T
     SCC iter.                  ...        0 min,  0.131 sec
     gradient                   ...        0 min,  0.048 sec
 * total energy  :  -128.0325453 Eh     change       -0.5451488E-04 Eh
   gradient norm :     0.0027798 Eh/α   predicted    -0.4367519E-04 ( -19.88%)
   displ. norm   :     0.0190042 α      lambda       -0.1419816E-04
   maximum displ.:     0.0108125 α      in ANC's #19, #15, #20, ...

........................................................................
.............................. CYCLE    5 ..............................
........................................................................

 iter      E             dE          RMSdq      gap      omega  full diag
   1   -130.4701648 -0.130470E+03  0.226E-02    0.02       0.0  T
   2   -130.4540534  0.161114E-01  0.338E-01    0.07       1.0  T
   3   -130.4702232 -0.161698E-01  0.663E-03    0.02       1.8  T
   4   -130.4702205  0.274415E-05  0.759E-03    0.03       1.5  T
   5   -130.4702215 -0.102588E-05  0.686E-03    0.03       1.7  T
   6   -130.4702263 -0.483122E-05  0.165E-03    0.03       7.0  T
   7   -130.4702266 -0.302155E-06  0.461E-04    0.03      25.2  T
   8   -130.4702266 -0.183341E-07  0.305E-04    0.03      38.2  T
     SCC iter.                  ...        0 min,  0.124 sec
     gradient                   ...        0 min,  0.043 sec
 * total energy  :  -128.0325543 Eh     change       -0.9052543E-05 Eh
   gradient norm :     0.0010129 Eh/α   predicted    -0.7660204E-05 ( -15.38%)
   displ. norm   :     0.0076315 α      lambda       -0.1419269E-05
   maximum displ.:     0.0041299 α      in ANC's #34, #19, #20, ...

........................................................................
.............................. CYCLE    6 ..............................
........................................................................

 iter      E             dE          RMSdq      gap      omega  full diag
   1   -130.4692706 -0.130469E+03  0.112E-02    0.02       0.0  T
   2   -130.4642769  0.499371E-02  0.188E-01    0.05       1.0  T
   3   -130.4692860 -0.500908E-02  0.280E-03    0.02       4.2  T
   4   -130.4692857  0.224731E-06  0.272E-03    0.03       4.3  T
   5   -130.4692863 -0.533952E-06  0.181E-03    0.03       6.4  T
   6   -130.4692864 -0.165738E-06  0.130E-03    0.03       9.0  T
   7   -130.4692866 -0.170769E-06  0.247E-04    0.03      47.1  T
   8   -130.4692866 -0.753457E-08  0.103E-04    0.03     112.4  T
     SCC iter.                  ...        0 min,  0.125 sec
     gradient                   ...        0 min,  0.050 sec
 * total energy  :  -128.0325554 Eh     change       -0.1105376E-05 Eh
   gradient norm :     0.0002739 Eh/α   predicted    -0.8370298E-06 ( -24.28%)
   displ. norm   :     0.0025327 α      lambda       -0.1564731E-06
   maximum displ.:     0.0012533 α      in ANC's #15, #19, #20, ...

   *** GEOMETRY OPTIMIZATION CONVERGED AFTER 6 ITERATIONS ***

------------------------------------------------------------------------
 total energy gain   :        -0.0092945 Eh       -5.8324 kcal/mol
 total RMSD          :         0.0801654 a0        0.0424 Å
 total power (kW/mol):        -4.0671103 (step)  -19.4909 (real)
------------------------------------------------------------------------

 ANCopt (total)                0 d,  0 h,  0 min,  1.252 sec
 optimizer setup                ...        0 min,  0.001 sec (  0.080%)
 model hessian                  ...        0 min,  0.045 sec (  3.594%)
 ANC generation                 ...        0 min,  0.007 sec (  0.559%)
 coordinate transformation      ...        0 min,  0.001 sec (  0.080%)
 single point calculation       ...        0 min,  1.186 sec ( 94.728%)
 optimization log               ...        0 min,  0.009 sec (  0.719%)
 hessian update                 ...        0 min,  0.000 sec (  0.000%)
 rational function              ...        0 min,  0.001 sec (  0.080%)

================
 final structure:
================
74
 xtb: 6.7.1pre (5071a88)
C           -3.61787974091293        4.85165864038571       -0.00077859374866
C           -5.66007746348838        3.60027654833072       -0.00024750865746
C           -0.68771470525291        4.87360912790608       -0.00138139114857
C           -4.99090596604111        4.81905012744450       -0.00057648234189
C           -2.86109237974966        3.67185855028484       -0.00067528403513
C           -4.95662215954193        2.41593593653293       -0.00010399890019
C            4.99882707321080        4.87775539577139        0.00167084677444
C            0.68044567062287        4.87891059923113       -0.00109064423624
C            0.73894884532276       -4.88146462863067       -0.00169105819066
C            2.86987762281202        3.70610933123246        0.00041273298610
C            4.98804888686675        2.46581977119976        0.00076509144162
C           -3.48377011323920       -2.46890663453228        0.00040999501403
C           -1.37180856577759       -3.70301244092224       -0.00045686324679
C           -1.41826200058684        3.67691946652329       -0.00081610904519
C            0.72340934938226        2.46690000573929       -0.00023315216568
C            2.85489859179612        1.24214139762651        0.00005260977344
C           -5.63625175501321       -3.59177582603171        0.00152504599423
C            4.99238574610644        0.02743329019385        0.00021118411031
C           -3.59532600112887       -4.87515504136951        0.00096914180335
C           -3.54588404809809        2.43327005433148       -0.00031158784315
C            5.01655853311551       -2.41151284227921       -0.00008470193254
C           -1.39933702401690        1.21977613677887       -0.00022525666849
C            0.74254272235620        0.00332566587908       -0.00015641015163
C            2.86893873734103       -1.21379413257629       -0.00025268748878
C           -5.73077410844150        1.12858440855298        0.00028664930176
C            2.91601780229413       -3.67982049885473       -0.00059449517550
C           -3.49926869021609       -0.02994279109522        0.00012812191024
C            5.06009789097759       -4.82373482272554       -0.00009487130495
C           -1.36335988701829       -1.24154688788405       -0.00007866519966
C            0.75837083750128       -2.46772451969901       -0.00049771782964
C            3.61056050874252        4.89045084817883        0.00119737342057
C           -4.87097324728854       -0.08363870060437        0.00042991139303
C            3.67235960397419       -4.85461301378538       -0.00038057190690
C            5.68505909273300        3.69039950182042        0.00136383409732
C           -2.75858141429358       -1.25056687381648        0.00011999360775
C           -0.66094590598063       -2.48145318376703       -0.00032365126169
C            1.47269812098922       -3.68750460744148       -0.00090760902885
C            1.42577283219414        3.69405255421201       -0.00026468616672
C            3.56228594922286        2.47357579350669        0.00038260389941
C           -4.89293582278446       -2.42763454575518        0.00093027345407
C            5.66948774893963        1.24872687549801        0.00060159792933
C           -2.81304622878374       -3.71009366346729        0.00026657323667
C           -0.62924748455617       -4.89262078877793       -0.00143690899766
C           -0.69778500295879        2.46322738614301       -0.00042507945315
C            1.43835711908178        1.23578299372794       -0.00008014871707
C            3.56121249125100        0.01845156005909       -0.00001138211923
C           -4.96999996428918       -4.81258123301516        0.00160810543795
C            5.68333270022807       -1.18642969461695        0.00015139294443
C           -2.80161636234233        1.21775671062014       -0.00016577375093
C            5.72981554494446       -3.62678118032089       -0.00000859493374
C           -0.67240106317210       -0.00254954338340       -0.00013679777067
C            1.45240249840885       -1.22371827848630       -0.00028019098055
C            3.59086981176644       -2.43733080315829       -0.00033075334369
H           -6.74055590804920        3.57979385636102       -0.00008443243240
H            1.25163423437488       -5.82936376935852       -0.00254868964520
H           -6.71268945653604       -3.53647167012203        0.00195966860385
H           -3.12511824632495       -5.84446856376070        0.00111820055611
H           -6.39357758234848        1.09498368333575       -0.87433363569780
H            5.61000044165867       -5.75406391822841        0.00006972843049
H            3.18962049976561       -5.81794049180964       -0.00035653282213
H           -1.13501489988661       -5.84444708064816       -0.00209261695634
H           -5.54708106114299       -5.72488832883438        0.00218670087793
H           -3.13001766614879        5.81212139453153       -0.00098427614237
H           -1.19784145612840        5.82262151770964       -0.00206749752524
H           -5.55448229324823        5.74002058856270       -0.00065710717401
H            5.53596972790830        5.81556387632118        0.00227522676533
H            1.18149539304520        5.83298630122113       -0.00158852598476
H            3.11600361142254        5.84772428412908        0.00154089360827
H            6.76510169938584        3.67404770763424        0.00165576393680
H            6.75009202899092        1.24938787064912        0.00084195860810
H            6.76390905968551       -1.17451374858481        0.00034480971588
H            6.80953781519357       -3.59577592675329        0.00018188464025
H           -6.39337399295336        1.09536645790065        0.87507229333653
O           -5.56344617587288       -1.24080354097055        0.00089273451233
 
 Bond Distances (Angstroems)
 ---------------------------
C1-C4=1.3734         C1-C5=1.4017         C1-H63=1.0773        C2-C4=1.3904         C2-C6=1.3775         C2-H54=1.0807        
C3-C8=1.3682         C3-C14=1.4021        C3-H64=1.0774        C4-C1=1.3734         C4-C2=1.3904         C4-H65=1.0797        
C5-C1=1.4017         C5-C14=1.4428        C5-C20=1.4153        C6-C2=1.3775         C6-C20=1.4108        C6-C25=1.5022        
C7-C31=1.3883        C7-C34=1.3714        C7-H66=1.0807        C8-C3=1.3682         C8-C38=1.3998        C8-H67=1.0776        
C9-C37=1.4014        C9-C43=1.3682        C9-H55=1.0777        C10-C31=1.3969       C10-C38=1.4442       C10-C39=1.4137       
C11-C34=1.4090       C11-C39=1.4258       C11-C41=1.3949       C12-C35=1.4178       C12-C40=1.4098       C12-C42=1.4108       
C13-C36=1.4133       C13-C42=1.4413       C13-C43=1.4023       C14-C3=1.4021        C14-C5=1.4428        C14-C44=1.4114       
C15-C38=1.4139       C15-C44=1.4212       C15-C45=1.4237       C16-C39=1.4202       C16-C45=1.4166       C16-C46=1.4129       
C17-C40=1.3812       C17-C47=1.3908       C17-H56=1.0779       C18-C41=1.3964       C18-C46=1.4312       C18-C48=1.3967       
C19-C42=1.4033       C19-C47=1.3761       C19-H57=1.0773       C20-C5=1.4153        C20-C6=1.4108        C20-C49=1.4253       
C21-C48=1.3948       C21-C50=1.4091       C21-C53=1.4259       C22-C44=1.4277       C22-C49=1.4023       C22-C51=1.4222       
C23-C45=1.4153       C23-C51=1.4150       C23-C52=1.4176       C24-C46=1.4134       C24-C52=1.4166       C24-C53=1.4206       
C25-C6=1.5022        C25-C32=1.4862       C25-H58=1.0979       C25-H73=1.0979       C26-C33=1.3972       C26-C37=1.4433       
C26-C53=1.4139       C27-C32=1.3728       C27-C35=1.4278       C27-C49=1.4295       C28-C33=1.3881       C28-C50=1.3716       
C28-H59=1.0807       C29-C35=1.3953       C29-C36=1.4250       C29-C51=1.4186       C30-C36=1.4194       C30-C37=1.4136       
C30-C52=1.4245       C31-C7=1.3883        C31-C10=1.3969       C31-H68=1.0775       C32-C25=1.4862       C32-C27=1.3728       
C32-O74=1.3485       C33-C26=1.3972       C33-C28=1.3881       C33-H60=1.0775       C34-C7=1.3714        C34-C11=1.4090       
C34-H69=1.0802       C35-C12=1.4178       C35-C27=1.4278       C35-C29=1.3953       C36-C13=1.4133       C36-C29=1.4250       
C36-C30=1.4194       C37-C9=1.4014        C37-C26=1.4433       C37-C30=1.4136       C38-C8=1.3998        C38-C10=1.4442       
C38-C15=1.4139       C39-C10=1.4137       C39-C11=1.4258       C39-C16=1.4202       C40-C12=1.4098       C40-C17=1.3812       
C40-O74=1.3631       C41-C11=1.3949       C41-C18=1.3964       C41-H70=1.0806       C42-C12=1.4108       C42-C13=1.4413       
C42-C19=1.4033       C43-C9=1.3682        C43-C13=1.4023       C43-H61=1.0779       C44-C14=1.4114       C44-C15=1.4212       
C44-C22=1.4277       C45-C15=1.4237       C45-C16=1.4166       C45-C23=1.4153       C46-C16=1.4129       C46-C18=1.4312       
C46-C24=1.4134       C47-C17=1.3908       C47-C19=1.3761       C47-H62=1.0795       C48-C18=1.3967       C48-C21=1.3948       
C48-H71=1.0806       C49-C20=1.4253       C49-C22=1.4023       C49-C27=1.4295       C50-C21=1.4091       C50-C28=1.3716       
C50-H72=1.0802       C51-C22=1.4222       C51-C23=1.4150       C51-C29=1.4186       C52-C23=1.4176       C52-C24=1.4166       
C52-C30=1.4245       C53-C21=1.4259       C53-C24=1.4206       C53-C26=1.4139       H54-C2=1.0807        H55-C9=1.0777        
H56-C17=1.0779       H57-C19=1.0773       H58-C25=1.0979       H59-C28=1.0807       H60-C33=1.0775       H61-C43=1.0779       
H62-C47=1.0795       H63-C1=1.0773        H64-C3=1.0774        H65-C4=1.0797        H66-C7=1.0807        H67-C8=1.0776        
H68-C31=1.0775       H69-C34=1.0802       H70-C41=1.0806       H71-C48=1.0806       H72-C50=1.0802       H73-C25=1.0979       
O74-C32=1.3485       O74-C40=1.3631       
 C  H  Rav=1.0808 sigma=0.0058  Rmin=1.0773  Rmax=1.0979    20
 C  C  Rav=1.4105 sigma=0.0235  Rmin=1.3682  Rmax=1.5022    69
 O  C  Rav=1.3558 sigma=0.0073  Rmin=1.3485  Rmax=1.3631     2
 
 selected bond angles (degree)
 --------------------
C5-C1-C4=121.32                H63-C1-C4=118.29               H63-C1-C5=120.39               C6-C2-C4=120.52                
H54-C2-C4=119.86               H54-C2-C6=119.62               C14-C3-C8=121.62               H64-C3-C8=118.04               
H64-C3-C14=120.34              C2-C4-C1=120.13                H65-C4-C1=120.10               H65-C4-C2=119.77               
C14-C5-C1=122.48               C20-C5-C1=118.38               C20-C5-C14=119.14              C20-C6-C2=120.00               
C25-C6-C2=118.27               C25-C6-C20=121.72              C34-C7-C31=120.55              H66-C7-C31=119.28              
H66-C7-C34=120.17              C38-C8-C3=121.95               H67-C8-C3=117.93               H67-C8-C38=120.12              
C43-C9-C37=122.04              H55-C9-C37=120.02              H55-C9-C43=117.94              C38-C10-C31=122.50             
C39-C10-C31=118.65             C39-C10-C38=118.85             
 
 selected dihedral angles (degree)
 ---------------------------------
C2-C4-C1-C5=  0.00            C2-C4-C1-H63=180.00           H65-C4-C1-C5=180.00           H65-C4-C1-H63=  0.00          
C1-C4-C2-C6=  0.00            C1-C4-C2-H54=180.00           H65-C4-C2-C6=180.00           H65-C4-C2-H54=  0.00          
C14-C5-C1-C4=180.00           C14-C5-C1-H63=  0.00          C20-C5-C1-C4=  0.00           C20-C5-C1-H63=180.00          
C20-C6-C2-C4=  0.00           C20-C6-C2-H54=180.00          C25-C6-C2-C4=180.00           C25-C6-C2-H54=  0.00          
C38-C8-C3-C14=  0.00          C38-C8-C3-H64=180.00          H67-C8-C3-C14=180.00          H67-C8-C3-H64=  0.00          
           -------------------------------------------------
          |                Final Singlepoint                |
           -------------------------------------------------

          ...................................................
          :                      SETUP                      :
          :.................................................:
          :  # basis functions                 236          :
          :  # atomic orbitals                 236          :
          :  # shells                          128          :
          :  # electrons                       238          :
          :  max. iterations                   250          :
          :  Hamiltonian                  GFN2-xTB          :
          :  restarted?                      false          :
          :  GBSA solvation                  false          :
          :  PC potential                    false          :
          :  electronic temp.          300.0000000     K    :
          :  accuracy                    1.0000000          :
          :  -> integral cutoff          0.2500000E+02      :
          :  -> integral neglect         0.1000000E-07      :
          :  -> SCF convergence          0.1000000E-05 Eh   :
          :  -> wf. convergence          0.1000000E-03 e    :
          :  Broyden damping             0.4000000          :
          :  net charge                          0          :
          :  unpaired electrons                  0          :
          ...................................................

 iter      E             dE          RMSdq      gap      omega  full diag
   1   -130.4692866 -0.130469E+03  0.215E-05    0.03       0.0  T
   2   -130.4692866  0.107998E-07  0.275E-04    0.03      42.2  T
   3   -130.4692866 -0.107245E-07  0.296E-05    0.03     393.0  T

   *** convergence criteria satisfied after 3 iterations ***

         #    Occupation            Energy/Eh            Energy/eV
      -------------------------------------------------------------
         1        2.0000           -0.7537662             -20.5110
       ...           ...                  ...                  ...
       113        2.0000           -0.3901376             -10.6162
       114        2.0000           -0.3887306             -10.5779
       115        2.0000           -0.3866737             -10.5219
       116        2.0000           -0.3820603             -10.3964
       117        2.0000           -0.3684928             -10.0272
       118        2.0000           -0.3601370              -9.7998
       119        1.2392           -0.3134021              -8.5281 (HOMO)
       120        0.7608           -0.3124750              -8.5029 (LUMO)
       121                         -0.2735220              -7.4429
       122                         -0.2676774              -7.2839
       123                         -0.2537707              -6.9055
       124                         -0.2430483              -6.6137
       ...                                ...                  ...
       236                          0.7669541              20.8699
      -------------------------------------------------------------
                  HL-Gap            0.0009271 Eh            0.0252 eV
             Fermi-level           -0.3129385 Eh           -8.5155 eV

 SCC (total)                   0 d,  0 h,  0 min,  0.114 sec
 SCC setup                      ...        0 min,  0.001 sec (  0.877%)
 Dispersion                     ...        0 min,  0.002 sec (  1.754%)
 classical contributions        ...        0 min,  0.000 sec (  0.000%)
 integral evaluation            ...        0 min,  0.017 sec ( 14.912%)
 iterations                     ...        0 min,  0.043 sec ( 37.719%)
 molecular gradient             ...        0 min,  0.050 sec ( 43.860%)
 printout                       ...        0 min,  0.001 sec (  0.877%)

         :::::::::::::::::::::::::::::::::::::::::::::::::::::
         ::                     SUMMARY                     ::
         :::::::::::::::::::::::::::::::::::::::::::::::::::::
         :: total energy            -128.032555433571 Eh    ::
         :: gradient norm              0.000274922297 Eh/a0 ::
         :: HOMO-LUMO gap              0.025227416957 eV    ::
         ::.................................................::
         :: SCC energy              -130.471379357095 Eh    ::
         :: -> isotropic ES            0.013722427822 Eh    ::
         :: -> anisotropic ES          0.009767230107 Eh    ::
         :: -> anisotropic XC          0.050760120517 Eh    ::
         :: -> dispersion             -0.136658210513 Eh    ::
         :: repulsion energy           2.438823923524 Eh    ::
         :: add. restraining           0.000000000000 Eh    ::
         :: total charge               0.000000000000 e     ::
         :::::::::::::::::::::::::::::::::::::::::::::::::::::

           -------------------------------------------------
          |                Property Printout                |
           -------------------------------------------------

    * Orbital Energies and Occupations

         #    Occupation            Energy/Eh            Energy/eV
      -------------------------------------------------------------
         1        2.0000           -0.7537662             -20.5110
       ...           ...                  ...                  ...
       107        2.0000           -0.4084259             -11.1138
       108        2.0000           -0.4064298             -11.0595
       109        2.0000           -0.4063754             -11.0580
       110        2.0000           -0.4019937             -10.9388
       111        2.0000           -0.3944977             -10.7348
       112        2.0000           -0.3909368             -10.6379
       113        2.0000           -0.3901376             -10.6162
       114        2.0000           -0.3887306             -10.5779
       115        2.0000           -0.3866737             -10.5219
       116        2.0000           -0.3820603             -10.3964
       117        2.0000           -0.3684928             -10.0272
       118        2.0000           -0.3601370              -9.7998
       119        1.2392           -0.3134021              -8.5281 (HOMO)
       120        0.7608           -0.3124750              -8.5029 (LUMO)
       121                         -0.2735220              -7.4429
       122                         -0.2676774              -7.2839
       123                         -0.2537707              -6.9055
       124                         -0.2430483              -6.6137
       125                         -0.2376872              -6.4678
       126                         -0.2369057              -6.4465
       127                         -0.2258611              -6.1460
       128                         -0.2196021              -5.9757
       129                         -0.2132246              -5.8021
       130                         -0.2079560              -5.6588
       ...                                ...                  ...
       236                          0.7669541              20.8699
      -------------------------------------------------------------
                  HL-Gap            0.0009271 Eh            0.0252 eV
             Fermi-level           -0.3129385 Eh           -8.5155 eV

     #   Z          covCN         q      C6AA      α(0)
     1   6 C        2.921    -0.038    28.940     8.822
     2   6 C        2.924    -0.043    29.063     8.841
     3   6 C        2.919    -0.040    28.988     8.829
     4   6 C        2.915    -0.032    28.801     8.800
     5   6 C        2.980     0.006    27.873     8.660
     6   6 C        2.973     0.004    27.933     8.669
     7   6 C        2.912    -0.031    28.770     8.795
     8   6 C        2.919    -0.036    28.903     8.816
     9   6 C        2.918    -0.037    28.913     8.818
    10   6 C        2.976     0.005    27.915     8.667
    11   6 C        2.979     0.011    27.756     8.642
    12   6 C        2.993    -0.012    28.310     8.728
    13   6 C        2.979     0.001    27.993     8.679
    14   6 C        2.978     0.003    27.950     8.672
    15   6 C        2.988     0.001    27.993     8.679
    16   6 C        2.985     0.001    28.009     8.681
    17   6 C        2.914    -0.061    29.510     8.908
    18   6 C        2.974     0.010    27.785     8.646
    19   6 C        2.919    -0.043    29.074     8.842
    20   6 C        2.988    -0.002    28.067     8.690
    21   6 C        2.979     0.011    27.755     8.642
    22   6 C        2.984     0.002    27.963     8.674
    23   6 C        2.985    -0.002    28.064     8.690
    24   6 C        2.985     0.000    28.014     8.682
    25   6 C        3.813    -0.069    21.808     6.647
    26   6 C        2.976     0.005    27.917     8.667
    27   6 C        2.977    -0.020    28.502     8.757
    28   6 C        2.911    -0.031    28.770     8.795
    29   6 C        2.987    -0.003    28.083     8.693
    30   6 C        2.988     0.002    27.983     8.677
    31   6 C        2.921    -0.042    29.043     8.838
    32   6 C        2.872     0.133    25.085     8.210
    33   6 C        2.921    -0.041    29.020     8.834
    34   6 C        2.922    -0.041    29.013     8.833
    35   6 C        2.999     0.004    27.931     8.669
    36   6 C        2.991     0.001    28.003     8.681
    37   6 C        2.978     0.004    27.923     8.668
    38   6 C        2.979     0.003    27.942     8.671
    39   6 C        2.994    -0.001    28.035     8.685
    40   6 C        2.886     0.134    25.074     8.209
    41   6 C        2.925    -0.053    29.321     8.880
    42   6 C        2.979     0.005    27.910     8.666
    43   6 C        2.918    -0.039    28.962     8.825
    44   6 C        2.990    -0.000    28.022     8.683
    45   6 C        2.986    -0.005    28.142     8.702
    46   6 C        2.991     0.000    28.010     8.682
    47   6 C        2.919    -0.030    28.747     8.792
    48   6 C        2.925    -0.052    29.286     8.875
    49   6 C        2.986    -0.007    28.190     8.709
    50   6 C        2.922    -0.040    28.988     8.829
    51   6 C        2.987    -0.001    28.044     8.687
    52   6 C        2.985    -0.003    28.097     8.695
    53   6 C        2.993    -0.001    28.039     8.686
    54   1 H        0.926     0.029     2.598     2.521
    55   1 H        0.926     0.034     2.532     2.488
    56   1 H        0.926     0.048     2.350     2.397
    57   1 H        0.926     0.041     2.431     2.438
    58   1 H        0.924     0.072     2.064     2.246
    59   1 H        0.926     0.026     2.651     2.546
    60   1 H        0.926     0.028     2.617     2.530
    61   1 H        0.926     0.031     2.568     2.506
    62   1 H        0.926     0.041     2.436     2.441
    63   1 H        0.926     0.037     2.492     2.469
    64   1 H        0.926     0.031     2.569     2.506
    65   1 H        0.926     0.033     2.547     2.496
    66   1 H        0.926     0.025     2.659     2.550
    67   1 H        0.926     0.033     2.539     2.492
    68   1 H        0.926     0.027     2.626     2.534
    69   1 H        0.926     0.027     2.630     2.536
    70   1 H        0.926     0.026     2.641     2.541
    71   1 H        0.926     0.027     2.631     2.537
    72   1 H        0.926     0.028     2.618     2.530
    73   1 H        0.924     0.072     2.064     2.246
    74   8 O        1.710    -0.209    17.476     5.644

 Mol. C6AA /au·bohr⁶  :     100308.580017
 Mol. C8AA /au·bohr⁸  :    2687770.801178
 Mol. α(0) /au        :        515.013972


Wiberg/Mayer (AO) data.
largest (>0.10) Wiberg bond orders for each atom

 ---------------------------------------------------------------------------
     #   Z sym  total        # sym  WBO       # sym  WBO       # sym  WBO
 ---------------------------------------------------------------------------
     1   6 C    3.984 --     4 C    1.493     5 C    1.341    63 H    0.961
                             6 C    0.104
     2   6 C    3.979 --     6 C    1.475     4 C    1.374    54 H    0.969
     3   6 C    3.949 --     8 C    1.509    14 C    1.315    64 H    0.961
     4   6 C    3.962 --     1 C    1.493     2 C    1.374    65 H    0.971
     5   6 C    3.960 --     1 C    1.341    20 C    1.275    14 C    1.153
     6   6 C    3.962 --     2 C    1.475    20 C    1.294    25 C    1.011
                             1 C    0.104
     7   6 C    3.983 --    34 C    1.494    31 C    1.396    66 H    0.970
     8   6 C    3.973 --     3 C    1.509    38 C    1.328    67 H    0.960
     9   6 C    3.972 --    43 C    1.513    37 C    1.324    55 H    0.961
    10   6 C    3.978 --    31 C    1.367    39 C    1.276    38 C    1.143
    11   6 C    3.985 --    41 C    1.333    34 C    1.275    39 C    1.216
    12   6 C    3.981 --    42 C    1.275    40 C    1.260    35 C    1.216
    13   6 C    3.973 --    43 C    1.312    36 C    1.293    42 C    1.159
    14   6 C    3.972 --     3 C    1.315    44 C    1.298     5 C    1.153
    15   6 C    3.981 --    38 C    1.282    44 C    1.253    45 C    1.221
    16   6 C    3.975 --    46 C    1.273    45 C    1.247    39 C    1.236
    17   6 C    3.944 --    40 C    1.407    47 C    1.384    56 H    0.968
    18   6 C    3.988 --    41 C    1.324    48 C    1.323    46 C    1.182
    19   6 C    3.962 --    47 C    1.486    42 C    1.332    57 H    0.962
    20   6 C    3.983 --     6 C    1.294     5 C    1.275    49 C    1.200
    21   6 C    3.985 --    48 C    1.334    50 C    1.275    53 C    1.216
    22   6 C    3.977 --    49 C    1.323    51 C    1.231    44 C    1.200
    23   6 C    3.966 --    45 C    1.254    52 C    1.251    51 C    1.247
    24   6 C    3.975 --    46 C    1.271    52 C    1.250    53 C    1.236
    25   6 C    3.988 --    32 C    1.024     6 C    1.011    73 H    0.935
                            58 H    0.935
    26   6 C    3.978 --    33 C    1.365    53 C    1.276    37 C    1.146
    27   6 C    3.972 --    32 C    1.431    35 C    1.171    49 C    1.166
    28   6 C    3.983 --    50 C    1.493    33 C    1.398    59 H    0.970
    29   6 C    3.976 --    35 C    1.317    51 C    1.231    36 C    1.204
    30   6 C    3.982 --    37 C    1.282    36 C    1.254    52 C    1.221
    31   6 C    3.878 --     7 C    1.396    10 C    1.367    68 H    0.962
    32   6 C    3.714 --    27 C    1.431    74 O    1.098    25 C    1.024
    33   6 C    3.875 --    28 C    1.398    26 C    1.365    60 H    0.962
    34   6 C    3.884 --     7 C    1.494    11 C    1.275    69 H    0.969
    35   6 C    3.905 --    29 C    1.317    12 C    1.216    27 C    1.171
    36   6 C    3.979 --    13 C    1.293    30 C    1.254    29 C    1.204
    37   6 C    3.938 --     9 C    1.324    30 C    1.282    26 C    1.146
    38   6 C    3.941 --     8 C    1.328    15 C    1.282    10 C    1.143
    39   6 C    3.945 --    10 C    1.276    16 C    1.236    11 C    1.216
    40   6 C    3.907 --    17 C    1.407    12 C    1.260    74 O    1.043
    41   6 C    3.773 --    11 C    1.333    18 C    1.324    70 H    0.967
    42   6 C    3.956 --    19 C    1.332    12 C    1.275    13 C    1.159
    43   6 C    3.948 --     9 C    1.513    13 C    1.312    61 H    0.962
    44   6 C    3.979 --    14 C    1.298    15 C    1.253    22 C    1.200
    45   6 C    3.920 --    23 C    1.254    16 C    1.247    15 C    1.221
    46   6 C    3.942 --    16 C    1.273    24 C    1.271    18 C    1.182
    47   6 C    3.964 --    19 C    1.486    17 C    1.384    62 H    0.970
    48   6 C    3.771 --    21 C    1.334    18 C    1.323    71 H    0.967
    49   6 C    3.885 --    22 C    1.323    20 C    1.200    27 C    1.166
    50   6 C    3.882 --    28 C    1.493    21 C    1.275    72 H    0.969
    51   6 C    3.890 --    23 C    1.247    22 C    1.231    29 C    1.231
    52   6 C    3.920 --    23 C    1.251    24 C    1.250    30 C    1.221
    53   6 C    3.945 --    26 C    1.276    24 C    1.236    21 C    1.216
    54   1 H    0.998 --     2 C    0.969
    55   1 H    0.998 --     9 C    0.961
    56   1 H    0.997 --    17 C    0.968
    57   1 H    0.998 --    19 C    0.962
    58   1 H    0.978 --    25 C    0.935
    59   1 H    0.998 --    28 C    0.970
    60   1 H    0.999 --    33 C    0.962
    61   1 H    0.998 --    43 C    0.962
    62   1 H    0.997 --    47 C    0.970
    63   1 H    0.998 --     1 C    0.961
    64   1 H    0.998 --     3 C    0.961
    65   1 H    0.998 --     4 C    0.971
    66   1 H    0.998 --     7 C    0.970
    67   1 H    0.998 --     8 C    0.960
    68   1 H    0.999 --    31 C    0.962
    69   1 H    0.998 --    34 C    0.969
    70   1 H    0.998 --    41 C    0.967
    71   1 H    0.998 --    48 C    0.967
    72   1 H    0.998 --    50 C    0.969
    73   1 H    0.978 --    25 C    0.935
    74   8 O    2.338 --    32 C    1.098    40 C    1.043
 ---------------------------------------------------------------------------

Topologies differ in total number of bonds
Writing topology from bond orders to xtbtopo.mol

molecular dipole:
                 x           y           z       tot (Debye)
 q only:       -1.629      -0.092       0.000
   full:       -1.770      -0.126       0.000       4.510
molecular quadrupole (traceless):
                xx          xy          yy          xz          yz          zz
 q only:        6.293      -1.269       4.387      -0.002      -0.002     -10.680
  q+dip:       21.755      -1.183      15.091      -0.000      -0.000     -36.846
   full:       11.273      -1.174       5.633      -0.000      -0.001     -16.906

           -------------------------------------------------
          |                Geometry Summary                 |
           -------------------------------------------------

      molecular mass/u    :      672.7272226
   center of mass at/Å    :       -0.0026018      -0.0039640      -0.0000038
  moments of inertia/u·Å² :        0.6901170E+04   0.9277925E+04   0.1617601E+05
rotational constants/cm⁻¹ :        0.2442721E-02   0.1816961E-02   0.1042138E-02

 * 86 selected distances

     #   Z          #   Z                                           value/Å
     1   6 C        4   6 C                                       1.3734135
     2   6 C        4   6 C                                       1.3903956
     1   6 C        5   6 C                                       1.4016618
     2   6 C        6   6 C                                       1.3775022
     3   6 C        8   6 C                                       1.3681708
     3   6 C       14   6 C                                       1.4020578
     5   6 C       20   6 C                                       1.4152885
     6   6 C       20   6 C                                       1.4108447
     7   6 C       31   6 C                                       1.3883248
    10   6 C       31   6 C                                       1.3968811
    25   6 C       32   6 C                                       1.4861840 (max)
    27   6 C       32   6 C                                       1.3727553
    26   6 C       33   6 C                                       1.3972082
    28   6 C       33   6 C                                       1.3880819
     7   6 C       34   6 C                                       1.3713967
    11   6 C       34   6 C                                       1.4090491
    12   6 C       35   6 C                                       1.4178332
    27   6 C       35   6 C                                       1.4277749
    29   6 C       35   6 C                                       1.3952508
    13   6 C       36   6 C                                       1.4133411
    29   6 C       36   6 C                                       1.4250451
    30   6 C       36   6 C                                       1.4193833
     9   6 C       37   6 C                                       1.4014027
    30   6 C       37   6 C                                       1.4135514
     8   6 C       38   6 C                                       1.3997865
    15   6 C       38   6 C                                       1.4139371
    10   6 C       39   6 C                                       1.4137074
    11   6 C       39   6 C                                       1.4257842
    16   6 C       39   6 C                                       1.4201507
    12   6 C       40   6 C                                       1.4097702
    17   6 C       40   6 C                                       1.3812111
    11   6 C       41   6 C                                       1.3948743
    18   6 C       41   6 C                                       1.3964332
    12   6 C       42   6 C                                       1.4108211
    19   6 C       42   6 C                                       1.4033284
     9   6 C       43   6 C                                       1.3682420
    13   6 C       43   6 C                                       1.4023431
    14   6 C       44   6 C                                       1.4114305
    15   6 C       44   6 C                                       1.4211992
    22   6 C       44   6 C                                       1.4277068
    15   6 C       45   6 C                                       1.4236572
    16   6 C       45   6 C                                       1.4165559
    23   6 C       45   6 C                                       1.4153124
    16   6 C       46   6 C                                       1.4129036
    18   6 C       46   6 C                                       1.4312016
    24   6 C       46   6 C                                       1.4133905
    17   6 C       47   6 C                                       1.3907759
    19   6 C       47   6 C                                       1.3760977
    18   6 C       48   6 C                                       1.3967360
    21   6 C       48   6 C                                       1.3947820
    20   6 C       49   6 C                                       1.4252745
    22   6 C       49   6 C                                       1.4022809
    27   6 C       49   6 C                                       1.4295011
    21   6 C       50   6 C                                       1.4091178
    28   6 C       50   6 C                                       1.3715758
    22   6 C       51   6 C                                       1.4221520
    23   6 C       51   6 C                                       1.4149561
    29   6 C       51   6 C                                       1.4186398
    23   6 C       52   6 C                                       1.4175818
    24   6 C       52   6 C                                       1.4165711
    30   6 C       52   6 C                                       1.4245111
    21   6 C       53   6 C                                       1.4259226
    24   6 C       53   6 C                                       1.4206431
    26   6 C       53   6 C                                       1.4139329
     2   6 C       54   1 H                                       1.0806727
     9   6 C       55   1 H                                       1.0776642
    17   6 C       56   1 H                                       1.0778576
    19   6 C       57   1 H                                       1.0773413
    25   6 C       58   1 H                                       1.0979063
    28   6 C       59   1 H                                       1.0806967
    33   6 C       60   1 H                                       1.0775143
    43   6 C       61   1 H                                       1.0778565
    47   6 C       62   1 H                                       1.0795033
     1   6 C       63   1 H                                       1.0772643 (min)
     3   6 C       64   1 H                                       1.0774296
     4   6 C       65   1 H                                       1.0797245
     7   6 C       66   1 H                                       1.0807440
     8   6 C       67   1 H                                       1.0776417
    31   6 C       68   1 H                                       1.0774782
    34   6 C       69   1 H                                       1.0801665
    41   6 C       70   1 H                                       1.0806046
    48   6 C       71   1 H                                       1.0806422
    50   6 C       72   1 H                                       1.0801675
    25   6 C       73   1 H                                       1.0979035
    32   6 C       74   8 O                                       1.3485362
    40   6 C       74   8 O                                       1.3631406

 * 3 distinct bonds (by element types)

   Z      Z             #   av. dist./Å        max./Å        min./Å
   1 H    6 C          20     1.0808390     1.0979063     1.0772643
   6 C    6 C          64     1.4069937     1.4861840     1.3681708
   6 C    8 O           2     1.3558384     1.3631406     1.3485362


optimized geometry written to: xtbopt.xyz


           -------------------------------------------------
          | TOTAL ENERGY             -128.032555433571 Eh   |
          | GRADIENT NORM               0.000274922297 Eh/α |
          | HOMO-LUMO GAP               0.025227416957 eV   |
           -------------------------------------------------

------------------------------------------------------------------------
 * finished run on 2025/12/08 at 00:35:06.295     
------------------------------------------------------------------------
 total:
 * wall-time:     0 d,  0 h,  0 min,  1.766 sec
 *  cpu-time:     0 d,  0 h,  0 min,  6.875 sec
 * ratio c/w:     3.893 speedup
 SCF:
 * wall-time:     0 d,  0 h,  0 min,  0.326 sec
 *  cpu-time:     0 d,  0 h,  0 min,  1.312 sec
 * ratio c/w:     4.026 speedup
 ANC optimizer:
 * wall-time:     0 d,  0 h,  0 min,  1.373 sec
 *  cpu-time:     0 d,  0 h,  0 min,  5.406 sec
 * ratio c/w:     3.938 speedup

normal termination of xtb
