74
 energy: -128.032555433571 gnorm: 0.000274922297 xtb: 6.7.1pre (5071a88)
C           -3.61787974091293        4.85165864038571       -0.00077859374866
C           -5.66007746348838        3.60027654833072       -0.00024750865746
C           -0.68771470525291        4.87360912790608       -0.00138139114857
C           -4.99090596604111        4.81905012744450       -0.00057648234189
C           -2.86109237974966        3.67185855028484       -0.00067528403513
C           -4.95662215954193        2.41593593653293       -0.00010399890019
C            4.99882707321080        4.87775539577139        0.00167084677444
C            0.68044567062287        4.87891059923113       -0.00109064423624
C            0.73894884532276       -4.88146462863067       -0.00169105819066
C            2.86987762281202        3.70610933123246        0.00041273298610
C            4.98804888686675        2.46581977119976        0.00076509144162
C           -3.48377011323920       -2.46890663453228        0.00040999501403
C           -1.37180856577759       -3.70301244092224       -0.00045686324679
C           -1.41826200058684        3.67691946652329       -0.00081610904519
C            0.72340934938226        2.46690000573929       -0.00023315216568
C            2.85489859179612        1.24214139762651        0.00005260977344
C           -5.63625175501321       -3.59177582603171        0.00152504599423
C            4.99238574610644        0.02743329019385        0.00021118411031
C           -3.59532600112887       -4.87515504136951        0.00096914180335
C           -3.54588404809809        2.43327005433148       -0.00031158784315
C            5.01655853311551       -2.41151284227921       -0.00008470193254
C           -1.39933702401690        1.21977613677887       -0.00022525666849
C            0.74254272235620        0.00332566587908       -0.00015641015163
C            2.86893873734103       -1.21379413257629       -0.00025268748878
C           -5.73077410844150        1.12858440855298        0.00028664930176
C            2.91601780229413       -3.67982049885473       -0.00059449517550
C           -3.49926869021609       -0.02994279109522        0.00012812191024
C            5.06009789097759       -4.82373482272554       -0.00009487130495
C           -1.36335988701829       -1.24154688788405       -0.00007866519966
C            0.75837083750128       -2.46772451969901       -0.00049771782964
C            3.61056050874252        4.89045084817883        0.00119737342057
C           -4.87097324728854       -0.08363870060437        0.00042991139303
C            3.67235960397419       -4.85461301378538       -0.00038057190690
C            5.68505909273300        3.69039950182042        0.00136383409732
C           -2.75858141429358       -1.25056687381648        0.00011999360775
C           -0.66094590598063       -2.48145318376703       -0.00032365126169
C            1.47269812098922       -3.68750460744148       -0.00090760902885
C            1.42577283219414        3.69405255421201       -0.00026468616672
C            3.56228594922286        2.47357579350669        0.00038260389941
C           -4.89293582278446       -2.42763454575518        0.00093027345407
C            5.66948774893963        1.24872687549801        0.00060159792933
C           -2.81304622878374       -3.71009366346729        0.00026657323667
C           -0.62924748455617       -4.89262078877793       -0.00143690899766
C           -0.69778500295879        2.46322738614301       -0.00042507945315
C            1.43835711908178        1.23578299372794       -0.00008014871707
C            3.56121249125100        0.01845156005909       -0.00001138211923
C           -4.96999996428918       -4.81258123301516        0.00160810543795
C            5.68333270022807       -1.18642969461695        0.00015139294443
C           -2.80161636234233        1.21775671062014       -0.00016577375093
C            5.72981554494446       -3.62678118032089       -0.00000859493374
C           -0.67240106317210       -0.00254954338340       -0.00013679777067
C            1.45240249840885       -1.22371827848630       -0.00028019098055
C            3.59086981176644       -2.43733080315829       -0.00033075334369
H           -6.74055590804920        3.57979385636102       -0.00008443243240
H            1.25163423437488       -5.82936376935852       -0.00254868964520
H           -6.71268945653604       -3.53647167012203        0.00195966860385
H           -3.12511824632495       -5.84446856376070        0.00111820055611
H           -6.39357758234848        1.09498368333575       -0.87433363569780
H            5.61000044165867       -5.75406391822841        0.00006972843049
H            3.18962049976561       -5.81794049180964       -0.00035653282213
H           -1.13501489988661       -5.84444708064816       -0.00209261695634
H           -5.54708106114299       -5.72488832883438        0.00218670087793
H           -3.13001766614879        5.81212139453153       -0.00098427614237
H           -1.19784145612840        5.82262151770964       -0.00206749752524
H           -5.55448229324823        5.74002058856270       -0.00065710717401
H            5.53596972790830        5.81556387632118        0.00227522676533
H            1.18149539304520        5.83298630122113       -0.00158852598476
H            3.11600361142254        5.84772428412908        0.00154089360827
H            6.76510169938584        3.67404770763424        0.00165576393680
H            6.75009202899092        1.24938787064912        0.00084195860810
H            6.76390905968551       -1.17451374858481        0.00034480971588
H            6.80953781519357       -3.59577592675329        0.00018188464025
H           -6.39337399295336        1.09536645790065        0.87507229333653
O           -5.56344617587288       -1.24080354097055        0.00089273451233
