74
 energy: -128.023260951974 gnorm: 0.049048683558 xtb: 6.7.1pre (5071a88)
C           -3.64978600000000        4.88313700000000       -0.00082000000000
C           -5.70806700000000        3.61526600000000       -0.00022500000000
C           -0.69715200000000        4.91035400000000       -0.00148100000000
C           -5.03306200000000        4.84401600000000       -0.00059300000000
C           -2.88564700000000        3.69600400000000       -0.00071000000000
C           -4.99676700000000        2.42646700000000       -0.00012200000000
C            5.02799800000000        4.92347100000000        0.00176400000000
C            0.67965100000000        4.91269400000000       -0.00124300000000
C            0.74184400000000       -4.91904100000000       -0.00198700000000
C            2.89392000000000        3.74498800000000        0.00049800000000
C            5.03780100000000        2.48624800000000        0.00076600000000
C           -3.50152800000000       -2.48227500000000        0.00048000000000
C           -1.37897800000000       -3.73381500000000       -0.00050700000000
C           -1.42889500000000        3.70454400000000       -0.00083400000000
C            0.72982000000000        2.48477600000000       -0.00024300000000
C            2.87960500000000        1.25625100000000        0.00004600000000
C           -5.68626500000000       -3.59132200000000        0.00162200000000
C            5.04529100000000        0.03227900000000        0.00016800000000
C           -3.63109100000000       -4.89948100000000        0.00116600000000
C           -3.57502800000000        2.45068500000000       -0.00037800000000
C            5.05863400000000       -2.43059600000000       -0.00007500000000
C           -1.41192200000000        1.23035200000000       -0.00017600000000
C            0.75001900000000        0.00499800000000       -0.00017500000000
C            2.89315700000000       -1.22635200000000       -0.00026500000000
C           -5.75677900000000        1.12009900000000        0.00026200000000
C            2.93822000000000       -3.71484700000000       -0.00058000000000
C           -3.50737100000000       -0.03550600000000        0.00012500000000
C            5.08900500000000       -4.86887500000000       -0.00002200000000
C           -1.37113800000000       -1.25419400000000       -0.00004800000000
C            0.76407000000000       -2.48747200000000       -0.00054200000000
C            3.62571000000000        4.94314700000000        0.00133600000000
C           -4.88844900000000       -0.08342100000000        0.00041500000000
C            3.68809100000000       -4.90417200000000       -0.00030100000000
C            5.72546400000000        3.73249700000000        0.00139000000000
C           -2.77535100000000       -1.26153300000000        0.00016900000000
C           -0.66536300000000       -2.50381900000000       -0.00032700000000
C            1.48133000000000       -3.71782900000000       -0.00101700000000
C            1.43365500000000        3.72153400000000       -0.00030700000000
C            3.59424800000000        2.49851500000000        0.00039800000000
C           -4.91146000000000       -2.44604800000000        0.00102200000000
C            5.72036700000000        1.26227300000000        0.00056700000000
C           -2.83519400000000       -3.73790500000000        0.00037900000000
C           -0.63576900000000       -4.93019900000000       -0.00171100000000
C           -0.70351400000000        2.48346000000000       -0.00041700000000
C            1.44953100000000        1.24436200000000       -0.00009300000000
C            3.59449300000000        0.02008300000000       -0.00002000000000
C           -5.02099000000000       -4.82270600000000        0.00173400000000
C            5.72647900000000       -1.20183000000000        0.00011400000000
C           -2.82223900000000        1.22535600000000       -0.00014100000000
C            5.76615700000000       -3.66541900000000        0.00002700000000
C           -0.67889000000000       -0.00621400000000       -0.00010600000000
C            1.46403600000000       -1.23355400000000       -0.00029900000000
C            3.61709400000000       -2.46160300000000       -0.00032100000000
H           -6.79461300000000        3.59280800000000       -0.00003200000000
H            1.25619900000000       -5.87183400000000       -0.00315600000000
H           -6.76793200000000       -3.52001900000000        0.00205400000000
H           -3.17014400000000       -5.87974000000000        0.00155400000000
H           -6.42502900000000        1.06092400000000       -0.87154800000000
H            5.64378800000000       -5.80375500000000        0.00020500000000
H            3.19731500000000       -5.86942400000000       -0.00010500000000
H           -1.14292000000000       -5.88793800000000       -0.00270200000000
H           -5.60412200000000       -5.73810700000000        0.00239400000000
H           -3.16032000000000        5.84914400000000       -0.00098800000000
H           -1.21015200000000        5.86410600000000       -0.00220400000000
H           -5.59942900000000        5.77051400000000       -0.00065300000000
H            5.56987200000000        5.86680800000000        0.00245200000000
H            1.18401900000000        5.87122900000000       -0.00192700000000
H            3.12305500000000        5.90251100000000        0.00190600000000
H            6.81299000000000        3.72714100000000        0.00168500000000
H            6.80827400000000        1.26349700000000        0.00086200000000
H            6.81445800000000       -1.19563800000000        0.00032100000000
H            6.85317000000000       -3.64280600000000        0.00024800000000
H           -6.42489500000000        1.06146600000000        0.87217100000000
O           -5.56469800000000       -1.23098300000000        0.00091100000000
74
 energy: -128.030855959396 gnorm: 0.022024408657 xtb: 6.7.1pre (5071a88)
C           -3.63821261120652        4.86146590358377       -0.00079469462533
C           -5.68330605339102        3.60369044831873       -0.00024702041965
C           -0.69213711197208        4.88640388849424       -0.00147067186461
C           -5.01351755414150        4.82487978796999       -0.00057861397508
C           -2.87437487682538        3.68109349714409       -0.00069175499920
C           -4.97538282356653        2.41984559430952       -0.00013108662467
C            5.01255319146482        4.89627732160185        0.00177574704805
C            0.67902580359544        4.89018760470875       -0.00121498905927
C            0.73984453256835       -4.89524462884568       -0.00198095238435
C            2.88308413223188        3.72294592228913        0.00045144935660
C            5.01087978351405        2.47564262080632        0.00076602650983
C           -3.49034585424563       -2.47440657360972        0.00046495647777
C           -1.37528031078447       -3.71620451931865       -0.00049391682164
C           -1.42414771145522        3.68742404722730       -0.00083487713662
C            0.72831862373091        2.47458917851512       -0.00023073863430
C            2.86897630910483        1.24857159244615        0.00004142853813
C           -5.66153812086661       -3.58822876588022        0.00160487283361
C            5.01704548884567        0.02965459488328        0.00019067845731
C           -3.61856638749566       -4.88203353586453        0.00115798092871
C           -3.55976142898854        2.44034611752288       -0.00033876630223
C            5.03637642848502       -2.42038151231790       -0.00007600753069
C           -1.40272081557901        1.22512938498894       -0.00021028580621
C            0.74878971563535        0.00431022799412       -0.00015187436370
C            2.88257859666169       -1.21926489836783       -0.00026982799908
C           -5.74202620288689        1.12458125668585        0.00025864048997
C            2.92842858747130       -3.69504492464637       -0.00059164565933
C           -3.49938909920956       -0.03126387515964        0.00013918045381
C            5.07404052399949       -4.84182054006885       -0.00000590838360
C           -1.36391848674493       -1.24658917138984       -0.00004809240057
C            0.76301486376697       -2.47617693487854       -0.00052078543426
C            3.62026007322635        4.91180154769231        0.00133738461146
C           -4.87626240218545       -0.08322968434158        0.00044321272869
C            3.68268609598283       -4.87465199073413       -0.00028941874271
C            5.70204963332303        3.71028736281747        0.00138646255335
C           -2.76388123529104       -1.25482059106085        0.00015596000947
C           -0.66134952514689       -2.49146374971361       -0.00032007326814
C            1.47818399744336       -3.70037800864561       -0.00099006395196
C            1.43081232294351        3.70522076025875       -0.00028960164057
C            3.57824787659784        2.48481142775114        0.00038150729775
C           -4.89924894007782       -2.43684946724508        0.00099098703062
C            5.69136313321644        1.25558818642699        0.00058474797037
C           -2.82419477035636       -3.72303147680027        0.00034866696947
C           -0.63178021582116       -4.90690490621338       -0.00170522101275
C           -0.69878494657413        2.47226843337666       -0.00042477391774
C            1.44616608132778        1.23949916613693       -0.00007742921593
C            3.57809294701726        0.01926465306279       -0.00003049588851
C           -4.99799220648009       -4.81222796408909        0.00176662400406
C            5.70191125770305       -1.19419067921406        0.00013323106560
C           -2.80864877142166        1.22233892957425       -0.00016252652594
C            5.74543628269181       -3.64481470936489        0.00002900381127
C           -0.67264268817615       -0.00376006111661       -0.00011345854276
C            1.46037394481641       -1.22798201081020       -0.00028739574651
C            3.60413547036289       -2.44821238345831       -0.00033622286205
H           -6.76597122786788        3.58419109233532       -0.00004791679362
H            1.25080250658426       -5.84620163968570       -0.00305620850562
H           -6.73905682421983       -3.52366083297609        0.00201947960959
H           -3.15999775562219       -5.85877828915327        0.00144602137772
H           -6.40842726751128        1.07905707581387       -0.87282905353337
H            5.62664399244415       -5.77373590613030        0.00019010987154
H            3.20014390055658       -5.83972065798022       -0.00015737896094
H           -1.13693166962442       -5.86177178252620       -0.00257143257455
H           -5.57872472337096       -5.72484300511770        0.00236575701846
H           -3.15452112938820        5.82590147504700       -0.00099666577803
H           -1.20221008011443        5.83784258757759       -0.00219493683682
H           -5.57978858323244        5.74708534320234       -0.00065093695089
H            5.55235982123652        5.83618233677035        0.00241283062734
H            1.17918766716260        5.84707999192457       -0.00185221831501
H            3.12633354218231        5.87116074512739        0.00182527265146
H            6.78496092711405        3.70492942339657        0.00165897775819
H            6.77530221302306        1.25799771457596        0.00083593368107
H            6.78589531603031       -1.18635598234679        0.00031810019713
H            6.82796268304485       -3.62302651226521        0.00022369651974
H           -6.40829349139991        1.07952614675205        0.87345294620170
O           -5.56105336386516       -1.23406921777340        0.00091806532896
74
 energy: -128.032490759449 gnorm: 0.006223845571 xtb: 6.7.1pre (5071a88)
C           -3.62271163025585        4.85005474702100       -0.00079119229988
C           -5.66383018719751        3.59759060011499       -0.00024422117878
C           -0.68871903001935        4.87271092511523       -0.00145171544913
C           -4.99529477005628        4.81609567051047       -0.00057808618369
C           -2.86349051532717        3.67151865674524       -0.00068848248086
C           -4.95881165669190        2.41497934005995       -0.00011565457701
C            4.99986042774102        4.87903599409091        0.00174601786733
C            0.67980912019437        4.87772160689403       -0.00117737625058
C            0.73944614461941       -4.88107310027332       -0.00190995686748
C            2.87234163458012        3.70743745539029        0.00043944389928
C            4.99113977036114        2.46717982886404        0.00076019230157
C           -3.48326452109399       -2.46887939916733        0.00045259556691
C           -1.37228161159752       -3.70418086007250       -0.00048300118378
C           -1.41947526644618        3.67657700165501       -0.00083423114134
C            0.72530431218629        2.46732949886881       -0.00023204328659
C            2.85846179436487        1.24282674838533        0.00004342914479
C           -5.64203052800803       -3.58765470622954        0.00158635563971
C            4.99599846450189        0.02778497102105        0.00019121173596
C           -3.60253143310056       -4.87292535945264        0.00109726679222
C           -3.54755288231418        2.43314982148606       -0.00032120088727
C            5.01979735565396       -2.41230119756788       -0.00008210881582
C           -1.39782940701605        1.22038785002569       -0.00021589791054
C            0.74512202017974        0.00346024430805       -0.00014082210257
C            2.87227815910585       -1.21414054952982       -0.00026466707871
C           -5.73102897220534        1.12725001649812        0.00026225522328
C            2.91865656001152       -3.68096879918027       -0.00059883010065
C           -3.49642217106776       -0.02933899441527        0.00014058589556
C            5.06172920496854       -4.82460745687445       -0.00002296087261
C           -1.36129928658755       -1.24171724597995       -0.00004989483152
C            0.76013123728936       -2.46832529525906       -0.00051071824264
C            3.61155596459681        4.89170926779962        0.00129785400506
C           -4.86926719056238       -0.08374841273019        0.00044218326129
C            3.67409677620574       -4.85565863168054       -0.00031181847272
C            5.68641613885721        3.69311349032803        0.00137561601220
C           -2.75746408372505       -1.25044744511397        0.00014605901861
C           -0.65999592614045       -2.48258528859085       -0.00031855438015
C            1.47429235925757       -3.68832709763390       -0.00097469154468
C            1.42707085936409        3.69441315646786       -0.00028055061332
C            3.56511647334868        2.47487746569016        0.00038241111690
C           -4.89179322876104       -2.42882921720473        0.00097599424149
C            5.67168815276775        1.24988843198220        0.00058473220297
C           -2.81466724925184       -3.71174677460370        0.00031762513917
C           -0.62924668664887       -4.89280179148268       -0.00163278908729
C           -0.69666588664705        2.46386290583000       -0.00042698049582
C            1.44104728287380        1.23588591291824       -0.00007369926647
C            3.56451501958077        0.01861309528291       -0.00002691523559
C           -4.97711349156870       -4.80857838672017        0.00172508092168
C            5.68538040740771       -1.18743717201378        0.00013828744869
C           -2.80045820388849        1.21872400457439       -0.00016576234033
C            5.73153695462335       -3.62887440465667        0.00001888110862
C           -0.67058379334586       -0.00261491880920       -0.00011481860770
C            1.45500168467410       -1.22407755514198       -0.00027643069903
C            3.59344830059684       -2.43839998601280       -0.00033722763189
H           -6.74438506772702        3.57808740503556       -0.00007695408634
H            1.25125346094062       -5.82975618034344       -0.00292776754235
H           -6.71779725213346       -3.52810736837233        0.00200132889945
H           -3.13916852094128       -5.84566948367036        0.00133097800908
H           -6.39491028547829        1.09106599150125       -0.87403645821668
H            5.61228249491365       -5.75489595780668        0.00018491343442
H            3.19274773223849       -5.81967220703226       -0.00022494217384
H           -1.13481293838303       -5.84508441431890       -0.00243130446582
H           -5.55549343656200       -5.72015026015664        0.00235536236942
H           -3.13797328964201        5.81216762217696       -0.00099715386251
H           -1.19903751810940        5.82192443906955       -0.00217369575287
H           -5.56059428626927        5.73620289264208       -0.00065053014771
H            5.53757067630170        5.81691564648351        0.00239681135697
H            1.18007506704074        5.83255793966592       -0.00174883762429
H            3.11872311854402        5.84988679720799        0.00172281894009
H            6.76673718140023        3.68291060927447        0.00164887743407
H            6.75278608771637        1.25208786647023        0.00083012521279
H            6.76648959488982       -1.17721972022737        0.00033097210910
H            6.81154998067973       -3.60324906078246        0.00020801336017
H           -6.39476513752792        1.09147294324421        0.87468173711248
O           -5.56080963227923       -1.23768216159178        0.00091492720753
74
 energy: -128.032545274324 gnorm: 0.002779837457 xtb: 6.7.1pre (5071a88)
C           -3.61865365452764        4.85042478264203       -0.00078596256458
C           -5.66054701428318        3.59860332479518       -0.00024854827518
C           -0.68814078370061        4.87256586423935       -0.00143581006342
C           -4.99150778107997        4.81733647185680       -0.00057674779643
C           -2.86135578362236        3.67110359217513       -0.00068483100118
C           -4.95654487423695        2.41502266105505       -0.00011143972798
C            4.99834241650675        4.87758500392335        0.00173216900710
C            0.68010926772879        4.87783586652913       -0.00114964397037
C            0.73909065773469       -4.88070938037825       -0.00185308158647
C            2.87017593772820        3.70598248772808        0.00042965118075
C            4.98839472111971        2.46593873661124        0.00076110081746
C           -3.48304629726610       -2.46846806980074        0.00043999927422
C           -1.37181471798215       -3.70294425120648       -0.00047950164158
C           -1.41845115289688        3.67612226033400       -0.00083346005606
C            0.72401252381512        2.46664370481757       -0.00023155446875
C            2.85579181409215        1.24214557916704        0.00004644618164
C           -5.63813011496422       -3.58953789380673        0.00157493149761
C            4.99295426794109        0.02754835859185        0.00019605340236
C           -3.59747276706953       -4.87350358572621        0.00106041806672
C           -3.54583052135806        2.43271352459635       -0.00031688865633
C            5.01722983669009       -2.41128540341513       -0.00008430458433
C           -1.39834333640003        1.21965124631637       -0.00021765991546
C            0.74342957129661        0.00327746972471       -0.00014287070908
C            2.86976492204504       -1.21372200881404       -0.00026245653608
C           -5.72993613318013        1.12787987839993        0.00026900516776
C            2.91655617957362       -3.67965445519167       -0.00060156058397
C           -3.49764816520458       -0.02962173802427        0.00013767915201
C            5.06010500749561       -4.82325820278232       -0.00003741033757
C           -1.36228448298827       -1.24141473192047       -0.00005667893325
C            0.75887591614640       -2.46761538850250       -0.00050673540791
C            3.60998770355317        4.89016996838091        0.00126813160946
C           -4.86967425476655       -0.08399053508265        0.00043795438236
C            3.67235546689332       -4.85422642952341       -0.00033243364015
C            5.68480178350881        3.69070220766884        0.00137599134942
C           -2.75773218666423       -1.25024191033646        0.00013960114439
C           -0.66049645385460       -2.48150695365471       -0.00032065041054
C            1.47304250138260       -3.68736111114742       -0.00095858310023
C            1.42593160363095        3.69369584295764       -0.00027466790075
C            3.56272061962734        2.47367262972317        0.00038147538548
C           -4.89171509813104       -2.42780692247069        0.00096313471509
C            5.66950738329562        1.24893025269591        0.00058799116257
C           -2.81305881545497       -3.71018446673568        0.00030008251062
C           -0.62930206292137       -4.89210975927161       -0.00158101816100
C           -0.69714354664767        2.46292864429513       -0.00042746386752
C            1.43914004928644        1.23555752094691       -0.00007357519967
C            3.56187895268352        0.01848133510059       -0.00002377638837
C           -4.97212699116454       -4.81042695260795        0.00170279294455
C            5.68350425600204       -1.18638268093127        0.00014165947270
C           -2.80057024857583        1.21785976891058       -0.00016453839606
C            5.72995453485552       -3.62673529834027        0.00001356819778
C           -0.67154597267423       -0.00264519385014       -0.00011885454987
C            1.45313191847615       -1.22373486402836       -0.00027604155765
C            3.59140075714124       -2.43731270446612       -0.00033827784163
H           -6.74095849510232        3.57851739320012       -0.00008122116120
H            1.25146358163989       -5.82885182291101       -0.00282452507474
H           -6.71413394285815       -3.53181131674882        0.00199437341290
H           -3.13028341507573       -5.84446488435654        0.00125867375223
H           -6.39304369720856        1.09332508211568       -0.87428941840474
H            5.61025269390974       -5.75343998769858        0.00015956030567
H            3.19025249079444       -5.81782460094666       -0.00026456942561
H           -1.13540166848511       -5.84384741771510       -0.00233090659520
H           -5.54958316758993       -5.72242505050091        0.00231364969498
H           -3.13201460113124        5.81154342343428       -0.00099528766692
H           -1.19868857502311        5.82140374367865       -0.00215147125439
H           -5.55593751689022        5.73773552572030       -0.00065281127876
H            5.53563518758879        5.81529607247707        0.00236572035403
H            1.18091029090022        5.83213183665150       -0.00169660296339
H            3.11616505536870        5.84779236282577        0.00166559902355
H            6.76489747260960        3.67729255191032        0.00165122783180
H            6.75020681271673        1.25042534031756        0.00082955707813
H            6.76420428549611       -1.17517689393212        0.00033625064007
H            6.80974695128106       -3.59827818828759        0.00020111533543
H           -6.39288558071209        1.09371894658326        0.87495843107010
O           -5.56204052086370       -1.23930820798447        0.00090984653346
74
 energy: -128.032554326867 gnorm: 0.001012911640 xtb: 6.7.1pre (5071a88)
C           -3.61761126450629        4.85127247213596       -0.00078370067295
C           -5.65982322239832        3.59974572172575       -0.00024784159224
C           -0.68780888613669        4.87323306935629       -0.00141397548700
C           -4.99061869823523        4.81857528678901       -0.00057710035919
C           -2.86089420888273        3.67153236051624       -0.00068171196408
C           -4.95628596018280        2.41555551573439       -0.00010703743901
C            4.99840994862341        4.87759916532564        0.00170498501572
C            0.68035235943514        4.87856095866216       -0.00112323809302
C            0.73895175089647       -4.88121321393852       -0.00178272218044
C            2.86970396996899        3.70593902022312        0.00042315360631
C            4.98785947687223        2.46574808078428        0.00076299025426
C           -3.48345176440922       -2.46866895802710        0.00042634309136
C           -1.37174471583078       -3.70288628178546       -0.00047106598618
C           -1.41817944403910        3.67656975111548       -0.00082714385197
C            0.72347432844760        2.46671186770298       -0.00023223761052
C            2.85490955207356        1.24207365721676        0.00004946843231
C           -5.63661752503324       -3.59109415272411        0.00155569670005
C            4.99226697393140        0.02746626741304        0.00020168696919
C           -3.59555724592867       -4.87455124090779        0.00101726402953
C           -3.54562692312595        2.43300076828058       -0.00031446414886
C            5.01654169217268       -2.41129460355044       -0.00008547915756
C           -1.39900271489755        1.21961051508975       -0.00022027954644
C            0.74268402062251        0.00326506734037       -0.00014824788391
C            2.86894988885573       -1.21374215435338       -0.00025894362325
C           -5.73023255757861        1.12833731462226        0.00027678109835
C            2.91596688305662       -3.67964689438443       -0.00059998905043
C           -3.49876198797655       -0.02985768059189        0.00013358150109
C            5.05991153852431       -4.82342624055989       -0.00006185922968
C           -1.36306034517114       -1.24149160870551       -0.00006644345516
C            0.75839246064733       -2.46762643933225       -0.00050387326367
C            3.61006517911345        4.89024232619511        0.00123631228766
C           -4.87050585259510       -0.08391982001563        0.00043378489469
C            3.67211614548233       -4.85435795726267       -0.00035363284139
C            5.68474916019673        3.69027114491448        0.00137106880108
C           -2.75829736260061       -1.25041499567120        0.00013097202959
C           -0.66083923671626       -2.48136731869950       -0.00032300863678
C            1.47264910194603       -3.68740327372285       -0.00093818699766
C            1.42565818940866        3.69386263538778       -0.00026993937475
C            3.56214722728252        2.47350070840814        0.00038266887978
C           -4.89237019869941       -2.42765266067150        0.00094986764141
C            5.66926098414001        1.24870972188778        0.00059304832492
C           -2.81282069868839       -3.70995944017474        0.00028329958991
C           -0.62930766151881       -4.89242208108678       -0.00151773512428
C           -0.69758357388062        2.46297576986546       -0.00042623611472
C            1.43840991166033        1.23564394442440       -0.00007610000024
C            3.56114508401146        0.01844419591404       -0.00001872664467
C           -4.97027355335422       -4.81196140047743        0.00166093075243
C            5.68321932492916       -1.18625888943224        0.00014532343761
C           -2.80122035328614        1.21767580189457       -0.00016441603876
C            5.72970337026276       -3.62649990050169        0.00000386563245
C           -0.67220161700463       -0.00262497332094       -0.00012591962510
C            1.45244005703909       -1.22371566944646       -0.00027789043075
C            3.59083195378887       -2.43722273302036       -0.00033667223442
H           -6.74025183890315        3.57933782797244       -0.00008436424317
H            1.25156252123454       -5.82915359753557       -0.00270509271602
H           -6.71288932550038       -3.53478349523203        0.00198492148272
H           -3.12618789755263       -5.84439151777498        0.00119375956274
H           -6.39305560085765        1.09448725176551       -0.87435281564962
H            5.60988071985216       -5.75366814817328        0.00012487081571
H            3.18956447293431       -5.81775905677571       -0.00030504989017
H           -1.13537964354391       -5.84408812059764       -0.00222642312887
H           -5.54734357596646       -5.72422884014496        0.00226356159910
H           -3.13003797264377        5.81189225930050       -0.00098923868158
H           -1.19816386074293        5.82209582718319       -0.00211944300278
H           -5.55447856135057        5.73932134830121       -0.00065458105461
H            5.53555596111790        5.81534338961702        0.00233024361802
H            1.18135968812405        5.83265928099388       -0.00164619096237
H            3.11569985713671        5.84760003883407        0.00160919265650
H            6.76479409178803        3.67483044740595        0.00165597246111
H            6.74985533957982        1.24966542394288        0.00083337941836
H            6.76379743235433       -1.17452313639560        0.00034057592553
H            6.80943903974722       -3.59625558663845        0.00019452954796
H           -6.39287835592069        1.09487404207571        0.87505169755941
O           -5.56303445159921       -1.24036616468517        0.00090322037139
74
 energy: -128.032555432244 gnorm: 0.000273853243 xtb: 6.7.1pre (5071a88)
C           -3.61787974091293        4.85165864038571       -0.00077859374866
C           -5.66007746348838        3.60027654833072       -0.00024750865746
C           -0.68771470525291        4.87360912790608       -0.00138139114857
C           -4.99090596604111        4.81905012744450       -0.00057648234189
C           -2.86109237974966        3.67185855028484       -0.00067528403513
C           -4.95662215954193        2.41593593653293       -0.00010399890019
C            4.99882707321080        4.87775539577139        0.00167084677444
C            0.68044567062287        4.87891059923113       -0.00109064423624