      -----------------------------------------------------------      
     |                   =====================                   |     
     |                           x T B                           |     
     |                   =====================                   |     
     |                         S. Grimme                         |     
     |          Mulliken Center for Theoretical Chemistry        |     
     |                    University of Bonn                     |     
      -----------------------------------------------------------      

   * xtb version 6.7.1pre (5071a88) compiled by 'Marcel@Raven' on 2024-07-23

   xtb is free software: you can redistribute it and/or modify it under
   the terms of the GNU Lesser General Public License as published by
   the Free Software Foundation, either version 3 of the License, or
   (at your option) any later version.
   
   xtb is distributed in the hope that it will be useful,
   but WITHOUT ANY WARRANTY; without even the implied warranty of
   MERCHANTABILITY or FITNESS FOR A PARTICULAR PURPOSE.  See the
   GNU Lesser General Public License for more details.
   
   Cite this work as:
   * C. Bannwarth, E. Caldeweyher, S. Ehlert, A. Hansen, P. Pracht,
     J. Seibert, S. Spicher, S. Grimme, WIREs Comput. Mol. Sci., 2020, 11,
     e01493. DOI: 10.1002/wcms.1493
   
   for GFN2-xTB:
   * C. Bannwarth, S. Ehlert and S. Grimme., J. Chem. Theory Comput., 2019,
     15, 1652-1671. DOI: 10.1021/acs.jctc.8b01176
   for GFN1-xTB:
   * S. Grimme, C. Bannwarth, P. Shushkov, J. Chem. Theory Comput., 2017,
     13, 1989-2009. DOI: 10.1021/acs.jctc.7b00118
   for GFN0-xTB:
   * P. Pracht, E. Caldeweyher, S. Ehlert, S. Grimme, ChemRxiv, 2019, preprint.
     DOI: 10.26434/chemrxiv.8326202.v1
   for GFN-FF:
   * S. Spicher and S. Grimme, Angew. Chem. Int. Ed., 2020, 59, 15665-15673.
     DOI: 10.1002/anie.202004239
   
   for ALPB and GBSA implicit solvation:
   * S. Ehlert, M. Stahn, S. Spicher, S. Grimme, J. Chem. Theory Comput.,
     2021, 17, 4250-4261. DOI: 10.1021/acs.jctc.1c00471
   
   for ddCOSMO and CPCM-X implicit solvation:
   * M. Stahn, S. Ehlert, S. Grimme, J. Phys. Chem. A,
     2023, XX, XXXX-XXXX. DOI: 10.1021/acs.jpca.3c04382
   
   for DFT-D4:
   * E. Caldeweyher, C. Bannwarth and S. Grimme, J. Chem. Phys., 2017,
     147, 034112. DOI: 10.1063/1.4993215
   * E. Caldeweyher, S. Ehlert, A. Hansen, H. Neugebauer, S. Spicher,
     C. Bannwarth and S. Grimme, J. Chem. Phys., 2019, 150, 154122.
     DOI: 10.1063/1.5090222
   * E. Caldeweyher, J.-M. Mewes, S. Ehlert and S. Grimme, Phys. Chem. Chem. Phys.
     2020, 22, 8499-8512. DOI: 10.1039/D0CP00502A
   
   for sTDA-xTB:
   * S. Grimme and C. Bannwarth, J. Chem. Phys., 2016, 145, 054103.
     DOI: 10.1063/1.4959605
   
   in the mass-spec context:
   * V. Asgeirsson, C. Bauer and S. Grimme, Chem. Sci., 2017, 8, 4879.
     DOI: 10.1039/c7sc00601b
   * J. Koopman and S. Grimme, ACS Omega 2019, 4, 12, 15120-15133.
     DOI: 10.1021/acsomega.9b02011
   
   for metadynamics refer to:
   * S. Grimme, J. Chem. Theory Comput., 2019, 155, 2847-2862
     DOI: 10.1021/acs.jctc.9b00143
   
   for SPH calculations refer to:
   * S. Spicher and S. Grimme, J. Chem. Theory Comput., 2021, 17, 1701-1714
     DOI: 10.1021/acs.jctc.0c01306
   
   for ONIOM refer to:
   * C. Plett, A. Katbashev, S. Ehlert, S. Grimme, M. Bursch,
     Phys. Chem. Chem. Phys., 2023, 25, 17860-17868. DOI: 10.1039/D3CP02178E
   
   for DIPRO refer to:
   * J. Kohn, N. Gildemeister, S. Grimme, D. Fazzi, A. Hansen,
     J. Chem. Phys., 2023, just accepted.
   
   for PTB refer to:
   * S. Grimme, M. Mueller, A. Hansen, J. Chem. Phys., 2023, 158, 124111.
     DOI: 10.1063/5.0137838
   
   with help from (in alphabetical order)
   P. Atkinson, C. Bannwarth, F. Bohle, G. Brandenburg, E. Caldeweyher
   M. Checinski, S. Dohm, S. Ehlert, S. Ehrlich, I. Gerasimov, C. Hölzer
   A. Katbashev, J. Kohn, J. Koopman, C. Lavigne, S. Lehtola, F. März, M. Müller,
   F. Musil, H. Neugebauer, J. Pisarek, C. Plett, P. Pracht, F. Pultar,
   J. Seibert, P. Shushkov, S. Spicher, M. Stahn, M. Steiner, T. Strunk,
   J. Stückrath, T. Rose, and J. Unsleber
   
 * started run on 2025/12/08 at 00:35:18.868     
   ID    Z sym.   atoms
    1    6 C      1-170
    2    1 H      171-206

           -------------------------------------------------
          |                Calculation Setup                |
           -------------------------------------------------

          program call               : xtb "C:\Users\LENOVO GAMING\Documents\GitHub\molecular-conductivity-sim\dataset\2nm-0pure-0percent.xyz" --opt --parallel 4
          coordinate file            : C:\Users\LENOVO GAMING\Documents\GitHub\molecular-conductivity-sim\dataset\2nm-0pure-0percent.xyz
          omp threads                :                     4


           -------------------------------------------------
          |                 G F N 2 - x T B                 |
           -------------------------------------------------

        Reference                      10.1021/acs.jctc.8b01176
      * Hamiltonian:
        H0-scaling (s, p, d)           1.850000    2.230000    2.230000
        zeta-weighting                 0.500000
      * Dispersion:
        s8                             2.700000
        a1                             0.520000
        a2                             5.000000
        s9                             5.000000
      * Repulsion:
        kExp                           1.500000    1.000000
        rExp                           1.000000
      * Coulomb:
        alpha                          2.000000
        third order                    shell-resolved
        anisotropic                    true
        a3                             3.000000
        a5                             4.000000
        cn-shift                       1.200000
        cn-exp                         4.000000
        max-rad                        5.000000


          ...................................................
          :                      SETUP                      :
          :.................................................:
          :  # basis functions                 716          :
          :  # atomic orbitals                 716          :
          :  # shells                          376          :
          :  # electrons                       716          :
          :  max. iterations                   250          :
          :  Hamiltonian                  GFN2-xTB          :
          :  restarted?                      false          :
          :  GBSA solvation                  false          :
          :  PC potential                    false          :
          :  electronic temp.          300.0000000     K    :
          :  accuracy                    1.0000000          :
          :  -> integral cutoff          0.2500000E+02      :
          :  -> integral neglect         0.1000000E-07      :
          :  -> SCF convergence          0.1000000E-05 Eh   :
          :  -> wf. convergence          0.1000000E-03 e    :
          :  Broyden damping             0.4000000          :
          :  net charge                          0          :
          :  unpaired electrons                  0          :
          ...................................................

 iter      E             dE          RMSdq      gap      omega  full diag
   1   -390.9205618 -0.390921E+03  0.497E+00    0.00       0.0  T
   2   -390.9571196 -0.365578E-01  0.296E+00    0.01       1.0  T
   3   -390.5317404  0.425379E+00  0.112E+00    0.00       1.0  T
   4   -390.8494613 -0.317721E+00  0.713E-01    0.06       1.0  T
   5   -390.7321669  0.117294E+00  0.693E-01    0.05       1.0  T
   6   -390.4440914  0.288076E+00  0.989E-01    0.43       1.0  T
   7   -390.9357380 -0.491647E+00  0.314E-01    0.04       1.0  T
   8   -390.9301221  0.561590E-02  0.389E-01    0.04       1.0  T
   9   -390.9455987 -0.154766E-01  0.299E-01    0.03       1.0  T
  10   -390.9719449 -0.263462E-01  0.169E-01    0.01       1.0  T
  11   -390.9574224  0.145225E-01  0.239E-01    0.03       1.0  T
  12   -390.9656461 -0.822379E-02  0.212E-01    0.02       1.0  T
  13   -390.9863867 -0.207406E-01  0.630E-02    0.01       1.0  T
  14   -390.9882307 -0.184394E-02  0.128E-02    0.00       1.0  T
  15   -390.9878479  0.382794E-03  0.289E-02    0.00       1.0  T
  16   -390.9880384 -0.190508E-03  0.223E-02    0.00       1.0  T
  17   -390.9882753 -0.236916E-03  0.934E-03    0.00       1.0  T
  18   -390.9883248 -0.495531E-04  0.546E-04    0.00      12.8  T
  19   -390.9883249 -0.105275E-06  0.318E-04    0.00      21.9  T
  20   -390.9883249  0.322279E-08  0.323E-04    0.00      21.5  T

   *** convergence criteria satisfied after 20 iterations ***

         #    Occupation            Energy/Eh            Energy/eV
      -------------------------------------------------------------
         1        2.0000           -0.6598263             -17.9548
       ...           ...                  ...                  ...
       352        2.0000           -0.3743250             -10.1859
       353        2.0000           -0.3618911              -9.8476
       354        2.0000           -0.3607605              -9.8168
       355        2.0000           -0.3571992              -9.7199
       356        2.0000           -0.3381424              -9.2013
       357        1.3402           -0.3254125              -8.8549
       358        1.0850           -0.3249010              -8.8410 (HOMO)
       359        1.0832           -0.3248976              -8.8409 (LUMO)
       360        0.4916           -0.3236739              -8.8076
       361        0.0000           -0.3104268              -8.4471
       362                         -0.2894931              -7.8775
       363                         -0.2857439              -7.7755
       ...                                ...                  ...
       716                          0.7576600              20.6170
      -------------------------------------------------------------
                  HL-Gap            0.0000033 Eh            0.0001 eV
             Fermi-level           -0.3247391 Eh           -8.8366 eV

 SCC (total)                   0 d,  0 h,  0 min,  4.163 sec
 SCC setup                      ...        0 min,  0.005 sec (  0.120%)
 Dispersion                     ...        0 min,  0.017 sec (  0.408%)
 classical contributions        ...        0 min,  0.002 sec (  0.048%)
 integral evaluation            ...        0 min,  0.102 sec (  2.450%)
 iterations                     ...        0 min,  3.593 sec ( 86.308%)
 molecular gradient             ...        0 min,  0.430 sec ( 10.329%)
 printout                       ...        0 min,  0.014 sec (  0.336%)

         :::::::::::::::::::::::::::::::::::::::::::::::::::::
         ::                     SUMMARY                     ::
         :::::::::::::::::::::::::::::::::::::::::::::::::::::
         :: total energy            -383.849523358050 Eh    ::
         :: gradient norm              0.051690151589 Eh/a0 ::
         :: HOMO-LUMO gap              0.000090786771 eV    ::
         ::.................................................::
         :: SCC energy              -391.005267042100 Eh    ::
         :: -> isotropic ES            0.001290396549 Eh    ::
         :: -> anisotropic ES          0.017254143587 Eh    ::
         :: -> anisotropic XC          0.142736939501 Eh    ::
         :: -> dispersion             -0.490402336509 Eh    ::
         :: repulsion energy           7.155743684050 Eh    ::
         :: add. restraining           0.000000000000 Eh    ::
         :: total charge               0.000000001368 e     ::
         :::::::::::::::::::::::::::::::::::::::::::::::::::::

      ----------------------------------------------------------- 
     |                   =====================                   |
     |                        A N C O P T                        |
     |                   =====================                   |
     |               Approximate Normal Coordinate               |
     |                Rational Function Optimizer                |
      ----------------------------------------------------------- 
      ----------------------------------------------------------- 
     |                   =====================                   |
     |                        A N C O P T                        |
     |                   =====================                   |
     |               Approximate Normal Coordinate               |
     |                Rational Function Optimizer                |
      ----------------------------------------------------------- 

          ...................................................
          :                      SETUP                      :
          :.................................................:
          :   optimization level            normal          :
          :   max. optcycles                   618          :
          :   ANC micro-cycles                  20          :
          :   degrees of freedom               612          :
          :.................................................:
          :   RF solver                   davidson          :
          :   write xtbopt.log                true          :
          :   linear?                        false          :
          :   energy convergence         0.5000000E-05 Eh   :
          :   grad. convergence          0.1000000E-02 Eh/α :
          :   maxmium RF displ.          1.0000000          :
          :   Hlow (freq-cutoff)         0.1000000E-01      :
          :   Hmax (freq-cutoff)         5.0000000          :
          :   S6 in model hess.         20.0000000          :
          ...................................................

generating ANC from exact Hessian ...
Using Lindh-Hessian (1995)
 Shifting diagonal of input Hessian by   9.942894495431325E-003
 Lowest  eigenvalues of input Hessian
    0.000000    0.000000    0.000000    0.000000    0.000000    0.000000
    0.010000    0.010080    0.010093    0.010204    0.010223    0.010649
    0.010678    0.010753    0.010796    0.010986    0.011612    0.011651
 Highest eigenvalues
    2.114759    2.115294    2.119295    2.137317    2.143934    2.153466
 

........................................................................
.............................. CYCLE    1 ..............................
........................................................................

 iter      E             dE          RMSdq      gap      omega  full diag
   1   -390.9883250 -0.390988E+03  0.272E-04    0.00       0.0  T
   2   -390.9882470  0.779438E-04  0.118E-02    0.00       1.0  T
   3   -390.9883250 -0.779728E-04  0.199E-04    0.00      35.0  T
   4   -390.9883250  0.346238E-07  0.382E-04    0.00      18.2  T
   5   -390.9883249  0.101586E-06  0.658E-04    0.00      10.6  T
     SCC iter.                  ...        0 min,  0.888 sec
     gradient                   ...        0 min,  0.450 sec
 * total energy  :  -383.8495233 Eh     change        0.9165859E-07 Eh
   gradient norm :     0.0516906 Eh/α   predicted     0.0000000E+00 (-100.00%)
   displ. norm   :     0.5648094 α      lambda       -0.1831826E-01
   maximum displ.:     0.5043055 α      in ANC's #45, #78, #92, ...

........................................................................
.............................. CYCLE    2 ..............................
........................................................................

 iter      E             dE          RMSdq      gap      omega  full diag
   1   -391.1731180 -0.391173E+03  0.860E-02    0.00       0.0  T
   2   -391.1724376  0.680358E-03  0.772E-02    0.00       1.0  T
   3   -391.1637107  0.872690E-02  0.180E-01    0.01       1.0  T
   4   -390.8585300  0.305181E+00  0.743E-01    0.12       1.0  T
   5   -391.1723412 -0.313811E+00  0.431E-02    0.00       1.0  T
   6   -391.1671818  0.515942E-02  0.131E-01    0.01       1.0  T
   7   -391.1726955 -0.551371E-02  0.280E-02    0.00       1.0  T
   8   -391.1731115 -0.415971E-03  0.100E-02    0.00       1.0  T
   9   -391.1731436 -0.321249E-04  0.564E-03    0.00       1.2  T
  10   -391.1731450 -0.137817E-05  0.532E-03    0.00       1.3  T
  11   -391.1731550 -0.100416E-04  0.508E-04    0.00      13.7  T
  12   -391.1731521  0.292678E-05  0.228E-03    0.00       3.1  T
  13   -391.1731545 -0.237312E-05  0.102E-03    0.00       6.8  T
  14   -391.1731551 -0.594235E-06  0.967E-05    0.00      72.1  T
  15   -391.1731551  0.330972E-07  0.254E-04    0.00      27.4  T
     SCC iter.                  ...        0 min,  2.700 sec
     gradient                   ...        0 min,  0.455 sec
 * total energy  :  -383.8638990 Eh     change       -0.1437575E-01 Eh
   gradient norm :     0.0242263 Eh/α   predicted    -0.1208134E-01 ( -15.96%)
   displ. norm   :     0.6370592 α      lambda       -0.1118784E-01
   maximum displ.:     0.6072730 α      in ANC's #45, #78, #92, ...

........................................................................
.............................. CYCLE    3 ..............................
........................................................................

 iter      E             dE          RMSdq      gap      omega  full diag
   1   -391.3445218 -0.391345E+03  0.793E-02    0.00       0.0  T
   2   -391.3444987  0.230235E-04  0.485E-02    0.00       1.0  T
   3   -391.2017178  0.142781E+00  0.505E-01    0.07       1.0  T
   4   -391.3375978 -0.135880E+00  0.119E-01    0.01       1.0  T
   5   -391.3436964 -0.609855E-02  0.506E-02    0.00       1.0  T
   6   -391.3417884  0.190796E-02  0.897E-02    0.00       1.0  T
   7   -391.3445024 -0.271397E-02  0.718E-03    0.00       1.0  T
   8   -391.3444838  0.186137E-04  0.106E-02    0.00       1.0  T
   9   -391.3445091 -0.252926E-04  0.745E-03    0.00       1.0  T
  10   -391.3445213 -0.122021E-04  0.392E-03    0.00       1.8  T
  11   -391.3445298 -0.852919E-05  0.654E-04    0.00      10.7  T
  12   -391.3445298 -0.292975E-07  0.523E-04    0.00      13.3  T
  13   -391.3445300 -0.127620E-06  0.188E-04    0.00      37.1  T
     SCC iter.                  ...        0 min,  2.311 sec
     gradient                   ...        0 min,  0.451 sec
 * total energy  :  -383.8719348 Eh     change       -0.8035797E-02 Eh
   gradient norm :     0.0096133 Eh/α   predicted    -0.7864333E-02 (  -2.13%)
   displ. norm   :     0.4681378 α      lambda       -0.3793800E-02
   maximum displ.:     0.4589219 α      in ANC's #45, #78, #27, ...

........................................................................
.............................. CYCLE    4 ..............................
........................................................................

 iter      E             dE          RMSdq      gap      omega  full diag
   1   -391.4469790 -0.391447E+03  0.579E-02    0.00       0.0  T
   2   -391.4465209  0.458175E-03  0.554E-02    0.00       1.0  T
   3   -391.4261288  0.203921E-01  0.210E-01    0.02       1.0  T
   4   -391.2374235  0.188705E+00  0.611E-01    0.08       1.0  T
   5   -391.4468101 -0.209387E+00  0.192E-02    0.00       1.0  T
   6   -391.4458058  0.100432E-02  0.452E-02    0.00       1.0  T
   7   -391.4465516 -0.745835E-03  0.354E-02    0.00       1.0  T
   8   -391.4469717 -0.420022E-03  0.913E-03    0.00       1.0  T
   9   -391.4469988 -0.271185E-04  0.867E-04    0.00       8.0  T
  10   -391.4469970  0.178492E-05  0.241E-03    0.00       2.9  T
  11   -391.4469984 -0.138113E-05  0.137E-03    0.00       5.1  T
  12   -391.4469984 -0.627917E-07  0.101E-03    0.00       6.9  T
  13   -391.4469989 -0.471731E-06  0.393E-04    0.00      17.7  T
  14   -391.4469990 -0.769856E-07  0.131E-04    0.00      53.3  T
     SCC iter.                  ...        0 min,  2.512 sec
     gradient                   ...        0 min,  0.444 sec
 * total energy  :  -383.8743434 Eh     change       -0.2408559E-02 Eh
   gradient norm :     0.0057512 Eh/α   predicted    -0.2312984E-02 (  -3.97%)
   displ. norm   :     0.1754262 α      lambda       -0.4516807E-03
   maximum displ.:     0.1716055 α      in ANC's #45, #34, #27, ...

........................................................................
.............................. CYCLE    5 ..............................
........................................................................

 iter      E             dE          RMSdq      gap      omega  full diag
   1   -391.4783270 -0.391478E+03  0.250E-02    0.00       0.0  T
   2   -391.4781971  0.129952E-03  0.276E-02    0.00       1.0  T
   3   -391.4735902  0.460686E-02  0.967E-02    0.01       1.0  T
   4   -391.4427030  0.308872E-01  0.254E-01    0.04       1.0  T
   5   -391.4783108 -0.356079E-01  0.667E-03    0.00       1.0  T
   6   -391.4780970  0.213839E-03  0.259E-02    0.00       1.0  T
   7   -391.4783212 -0.224225E-03  0.482E-03    0.00       1.4  T
   8   -391.4783131  0.818172E-05  0.570E-03    0.00       1.2  T
   9   -391.4783312 -0.181325E-04  0.159E-03    0.00       4.4  T
  10   -391.4783306  0.634623E-06  0.206E-03    0.00       3.4  T
  11   -391.4783321 -0.154278E-05  0.200E-04    0.00      34.8  T
  12   -391.4783321 -0.364776E-08  0.995E-05    0.00      70.0  T
  13   -391.4783321 -0.290424E-08  0.234E-05    0.00     297.2  T
     SCC iter.                  ...        0 min,  2.320 sec
     gradient                   ...        0 min,  0.443 sec
 * total energy  :  -383.8745908 Eh     change       -0.2474378E-03 Eh
   gradient norm :     0.0031124 Eh/α   predicted    -0.2329821E-03 (  -5.84%)
   displ. norm   :     0.0186583 α      lambda       -0.1607704E-04
   maximum displ.:     0.0134401 α      in ANC's #45, #34, #78, ...

........................................................................
.............................. CYCLE    6 ..............................
........................................................................

 iter      E             dE          RMSdq      gap      omega  full diag
   1   -391.4792207 -0.391479E+03  0.456E-03    0.00       0.0  T
   2   -391.4792202  0.531151E-06  0.309E-03    0.00       2.3  T
   3   -391.4782567  0.963429E-03  0.422E-02    0.01       1.0  T
   4   -391.4788230 -0.566220E-03  0.276E-02    0.00       1.0  T
   5   -391.4792201 -0.397184E-03  0.132E-03    0.00       5.3  T
   6   -391.4792185  0.160486E-05  0.253E-03    0.00       2.8  T
   7   -391.4792206 -0.208751E-05  0.581E-04    0.00      12.0  T
   8   -391.4792207 -0.117819E-06  0.117E-04    0.00      59.6  T
   9   -391.4792207  0.720883E-07  0.462E-04    0.00      15.1  T
     SCC iter.                  ...        0 min,  1.597 sec
     gradient                   ...        0 min,  0.430 sec
 * total energy  :  -383.8746012 Eh     change       -0.1039608E-04 Eh
   gradient norm :     0.0014431 Eh/α   predicted    -0.8053953E-05 ( -22.53%)
   displ. norm   :     0.0110677 α      lambda       -0.3625789E-05
   maximum displ.:     0.0057719 α      in ANC's #34, #78, #92, ...

........................................................................
.............................. CYCLE    7 ..............................
........................................................................

 iter      E             dE          RMSdq      gap      omega  full diag
   1   -391.4781653 -0.391478E+03  0.333E-03    0.00       0.0  T
   2   -391.4781352  0.301476E-04  0.769E-03    0.00       1.0  T
   3   -391.4777321  0.403096E-03  0.279E-02    0.00       1.0  T
   4   -391.4781469 -0.414787E-03  0.844E-03    0.00       1.0  T
   5   -391.4781485 -0.159721E-05  0.687E-03    0.00       1.0  T
   6   -391.4781645 -0.160358E-04  0.148E-03    0.00       4.7  T
   7   -391.4781642  0.357422E-06  0.147E-03    0.00       4.7  T
   8   -391.4781654 -0.124193E-05  0.155E-04    0.00      44.8  T
   9   -391.4781654  0.270497E-07  0.338E-04    0.00      20.6  T
  10   -391.4781654 -0.361795E-07  0.937E-05    0.00      74.4  T
     SCC iter.                  ...        0 min,  1.774 sec
     gradient                   ...        0 min,  0.457 sec
 * total energy  :  -383.8746032 Eh     change       -0.1992619E-05 Eh
   gradient norm :     0.0004528 Eh/α   predicted    -0.1824580E-05 (  -8.43%)
   displ. norm   :     0.0036547 α      lambda       -0.3444440E-06
   maximum displ.:     0.0021864 α      in ANC's #78, #45, #92, ...

   *** GEOMETRY OPTIMIZATION CONVERGED AFTER 7 ITERATIONS ***

------------------------------------------------------------------------
 total energy gain   :        -0.0250798 Eh      -15.7378 kcal/mol
 total RMSD          :         0.1273112 a0        0.0674 Å
 total power (kW/mol):        -9.4067303 (step)   -3.5849 (real)
------------------------------------------------------------------------

 ANCopt (total)                0 d,  0 h,  0 min, 18.368 sec
 optimizer setup                ...        0 min,  0.003 sec (  0.016%)
 model hessian                  ...        0 min,  0.220 sec (  1.198%)
 ANC generation                 ...        0 min,  0.089 sec (  0.485%)
 coordinate transformation      ...        0 min,  0.002 sec (  0.011%)
 single point calculation       ...        0 min, 18.026 sec ( 98.138%)
 optimization log               ...        0 min,  0.020 sec (  0.109%)
 hessian update                 ...        0 min,  0.001 sec (  0.005%)
 rational function              ...        0 min,  0.005 sec (  0.027%)

================
 final structure:
================
206
 xtb: 6.7.1pre (5071a88)
C           -9.95332011868774       -8.53205160699261       -0.01692053048126
C           -9.27920290329086       -9.72594305495534       -0.01524839970740
C           -7.89011353000636       -9.75153100888192       -0.00851471148226
C           -7.13723673238401       -8.57681861225065       -0.00342059627512
C           -9.91283369648222       -6.09101666731425       -0.01507543011637
C           -9.24266015861467       -7.31554589592404       -0.01296207755202
C           -7.81724961735269       -7.33806265567456       -0.00681525818818
C           -7.09712870778810       -6.11539049130824       -0.00458243341519
C           -9.89796864192599       -3.65570696137054       -0.01404714181342
C           -9.22242555167807       -4.87866945641348       -0.01215141650160
C           -7.79035163000972       -4.89115103450797       -0.00746765635485
C           -7.08136225593124       -3.66938265663922       -0.00584517545609
C           -9.89188798028819       -1.21899749173020       -0.01363422283835
C           -9.21305239420948       -2.43898025960851       -0.01188487736693
C           -7.78121807557539       -2.44404481763642       -0.00803618090306
C           -7.07702691403194       -1.22358681489203       -0.00640775476217
C           -9.89189306818316        1.21898261952900       -0.01362843571930
C           -9.21002708092705       -0.00000676112110       -0.01180556223461
C           -7.77921895386721       -0.00000634658410       -0.00819249193989
C           -7.07703088548703        1.22357829019403       -0.00640342413882
C           -9.89797957402767        3.65570243979704       -0.01402982255155
C           -9.21306153214401        2.43897099892466       -0.01187401054883
C           -7.78122553449685        2.44403572870527       -0.00802674733378
C           -7.08137071931611        3.66937807225194       -0.00583210467093
C           -9.91284094748201        6.09102534368387       -0.01504666718312
C           -9.22243600765311        4.87867050971018       -0.01212969757726
C           -7.79035975080482        4.89115028018263       -0.00744872759538
C           -7.09713424392952        6.11539161708851       -0.00456041523299
C           -9.95331605879029        8.53206837318736       -0.01688038084130
C           -9.24266219097333        7.31555643202181       -0.01292943005724
C           -7.81725023105783        7.33807036341023       -0.00678661383293
C           -7.13723424751082        8.57682628516649       -0.00338906634100
C           -9.27919358817984        9.72595873218604       -0.01520472653469
C           -7.89010287422228        9.75154718077209       -0.00847530607129
C           -5.69165513054496       -8.57795663157855        0.00463082859439
C           -4.96101547483759       -9.76861438757766        0.01335551414232
C           -3.59169718581542       -9.77119164054108        0.01916073041523
C           -2.85435513993066       -8.58197702865776        0.01614406612778
C           -5.67621277052451       -6.12075652963923       -0.00007086250539
C           -4.97735460102576       -7.35736960627395        0.00453940125735
C           -3.55661583743765       -7.35816482423289        0.00956262889740
C           -2.83902693779942       -6.12864442471528        0.00802548963474
C           -5.66300931497163       -3.67432336569495       -0.00222497712320
C           -4.96418335289285       -4.90333184320882        0.00058033918173
C           -3.54077003370948       -4.90502825259967        0.00394937555937
C           -2.83203041228313       -3.68032363921282        0.00348442804505
C           -5.65595859321872       -1.22540968114955       -0.00322356966230
C           -4.95405421931580       -2.44957597555795       -0.00132280169113
C           -3.53572027626214       -2.45098639293796        0.00117797065960
C           -2.83061379462470       -1.22749887228545        0.00151875717929
C           -5.65596155943871        1.22540559787001       -0.00322000135637
C           -4.95070543663279       -0.00000133573285       -0.00192937332459
C           -3.53477023169789       -0.00000092827145        0.00034231842004
C           -2.83061483269694        1.22749748164688        0.00152063460909
C           -5.66301563445152        3.67431965910574       -0.00221418429519
C           -4.95405824650088        2.44957291167550       -0.00131645473061
C           -3.53572325094334        2.45098419778139        0.00118264608173
C           -2.83203265867695        3.68032134081953        0.00349009061277
C           -5.67621687248085        6.12075385667712       -0.00005250908557
C           -4.96418805355887        4.90332831891439        0.00059324572209
C           -3.54077346254568        4.90502542730315        0.00395877797570
C           -2.83902859082197        6.12864122456232        0.00803503495994
C           -5.69165338578569        8.57795584264490        0.00465716514641
C           -4.97735613290591        7.35736668415965        0.00455930962573
C           -3.55661690719290        7.35816193460303        0.00957711088042
C           -2.85435486003897        8.58197383725528        0.01615820484897
C           -4.96101288260531        9.76861311608416        0.01338267376562
C           -3.59169496798156        9.77118966942753        0.01918182322063
C           -1.41648278274770       -8.58188724056594        0.01928469758921
C           -0.68350677370351       -9.77400142471639        0.02522841916630
C            0.68352016925204       -9.77398992475846        0.02639950498868
C            1.41649322460679       -8.58187089010493        0.02153523621735
C           -1.42127239666088       -6.12865360779112        0.01048227351505
C           -0.70986566482436       -7.36007599173266        0.01537069826063
C            0.70987127059543       -7.36006836455267        0.01620598661617
C            1.42127552163225       -6.12864559218395        0.01139338559437
C           -1.41597791737373       -3.68104288886835        0.00511011385912
C           -0.71174092539740       -4.90789713089647        0.00802337525185
C            0.71173970755834       -4.90789418215760        0.00815806860817
C            1.41597400532889       -3.68103986256331        0.00494516093176
C           -1.41216077711462       -1.22783232751485        0.00265770023798
C           -0.70869393648595       -2.45265327062150        0.00390774776684
C            0.70868738585010       -2.45265238608143        0.00359919811623
C            1.41215294807495       -1.22783162009566        0.00197712299689
C           -1.41216138387789        1.22783133313700        0.00265862703955
C           -0.70741677674570       -0.00000033985871        0.00261435701561
C            0.70740845445952       -0.00000033066983        0.00216945682027
C            1.41215386647830        1.22783055780384        0.00197614567652
C           -1.41597923599035        3.68104094907159        0.00511294912437
C           -0.70869401168645        2.45265198392035        0.00390864310101
C            0.70868796611635        2.45265108724960        0.00359821482626
C            1.41597602314614        3.68103784118592        0.00494220733299
C           -1.42127336404692        6.12865059216106        0.01048720098720
C           -0.71174101683001        4.90789456833025        0.00802528530711
C            0.71174046343099        4.90789154719155        0.00815601063089
C            1.42127709645428        6.12864249198852        0.01138827424701
C           -1.41648254108105        8.58188389498970        0.01929144998782
C           -0.70986562690272        7.36007257804704        0.01537363878674
C            0.70987167614517        7.36006485325981        0.01620273258506
C            1.41649327235767        8.58186747150014        0.02152799237780
C           -0.68350659976480        9.77399829428701        0.02523129608759
C            0.68352032037803        9.77398676672395        0.02639539106019
C            2.85436849113021       -8.58195165855202        0.02063297423164
C            3.59171771885048       -9.77114871691747        0.02695339968790
C            4.96104096343665       -9.76856944160040        0.02242150244308
C            5.69167741070180       -8.57792756542669        0.01149419381937
C            2.83903069893734       -6.12863369334583        0.00943276076281
C            3.55662643821268       -7.35814587646321        0.01283061249959
C            4.97736731564375       -7.35734978056729        0.00853209134349
C            5.67621694067346       -6.12074367601031        0.00152854850541
C            2.83202569840795       -3.68031940145467        0.00290088829889
C            3.54076952019373       -4.90502030804613        0.00422500503969
C            4.96418124737981       -4.90332354456595        0.00041020763837
C            5.66300043671535       -3.67431837626478       -0.00447754959921
C            2.83060454922179       -1.22749778561720       -0.00013977725010
C            3.53571250605166       -2.45098370383355       -0.00043253013697
C            4.95404320759897       -2.44957304238087       -0.00415798819306
C            5.65594415389181       -1.22540862193118       -0.00748604807701
C            2.83060594391634        1.22749628565976       -0.00014173643479
C            3.53476035690949       -0.00000104938574       -0.00193921514578
C            4.95069194205260       -0.00000149799949       -0.00568509680372
C            5.65594779633579        1.22540395784518       -0.00748969833324
C            2.83202874143151        3.68031690425418        0.00289507626751
C            3.53571627688829        2.45098125194419       -0.00043735224218
C            4.95404821661022        2.44956961928461       -0.00416446799084
C            5.66300820447297        3.67431418497628       -0.00448837138609
C            2.83903303650821        6.12863023787646        0.00942302010334
C            3.54077391598193        4.90501723261710        0.00421542386255
C            4.96418711144148        4.90331962204072        0.00039718298676
C            5.67622200942791        6.12074080457267        0.00151018196037
C            2.85436839766035        8.58194831762507        0.02061877649774
C            3.55662793876353        7.35814286009553        0.01281605681270
C            4.97736928798366        7.35734661936668        0.00851221091289
C            5.69167532577155        8.57792703273081        0.01146799846794
C            3.59171520078340        9.77114689818872        0.02693291125158
C            4.96103791560637        9.76856839255099        0.02239499775768
C            7.13726112320233       -8.57679233577749        0.00377658023554
C            7.89015550093878       -9.75150215767083        0.00234906641577
C            9.27924140063300       -9.72592109144710       -0.00495582588080
C            9.95333976478353       -8.53203388616256       -0.01097446036205
C            7.09712931820715       -6.11537757735931       -0.00374396987217
C            7.81725944642191       -7.33804470551652       -0.00336796236853
C            9.24266525162570       -7.31553176524302       -0.01041433024912
C            9.91282230388975       -6.09100940324377       -0.01665057428365
C            7.08134792781803       -3.66937841409241       -0.00956957724204
C            7.79034078109776       -4.89114424339380       -0.00983062769248
C            9.22240745360510       -4.87866495698441       -0.01611850056777
C            9.89793898493496       -3.65570801523892       -0.02154439391006
C            7.07700653113377       -1.22358655526184       -0.01258715206938
C            7.78119656976734       -2.44404431855001       -0.01423072070937
C            9.21302269622205       -2.43898137279080       -0.02027544043949
C            9.89185126389165       -1.21900028657738       -0.02441871770799
C            7.07701137236969        1.22357655347428       -0.01259151367410
C            7.77919514730342       -0.00000753542866       -0.01575066753099
C            9.20999493672032       -0.00000796943351       -0.02178204470872
C            9.89185741352540        1.21898271901668       -0.02442442095217
C            7.08135825196729        3.66937321495328       -0.00958241860618
C            7.78120562441001        2.44403363863867       -0.01424002839138
C            9.21303376244746        2.43897056190632       -0.02028615791888
C            9.89795220547896        3.65570291045304       -0.02156152092050
C            7.09713607627020        6.11537930519549       -0.00376593710241
C            7.79035066022619        4.89114368318975       -0.00984953160908
C            9.22242013517480        4.87866661459310       -0.01614008312974
C            9.91283104218800        6.09102029313511       -0.01667915069579
C            7.13725806033134        8.57680202322246        0.00374477139430
C            7.81726015474009        7.33805443090607       -0.00339660244154
C            9.24266762474612        7.31554491225678       -0.01044683169851
C            9.95333457947634        8.53205468058512       -0.01101476448504
C            7.89014230548308        9.75152223049335        0.00230927314197
C            9.27922973485590        9.72594050220550       -0.00500001432268
H          -11.03304094664136       -8.50448780635949       -0.02167885481875
H           -9.82495253495738      -10.65840171925721       -0.01907045132715
H           -7.40550264290672      -10.71389604649672       -0.00781563601397
H          -10.99349994534249       -6.08136341629489       -0.01922946783228
H          -10.97854993575229       -3.65181916984722       -0.01733490190756
H          -10.97247235923399       -1.21776356053863       -0.01650101573727
H          -10.97247719438738        1.21774652796646       -0.01649470854341
H          -10.97856028686458        3.65181470883133       -0.01731601345914
H          -10.99350669456931        6.08137473252172       -0.01919829159112
H          -11.03303681943994        8.50450744540108       -0.02163574048176
H           -5.46856345233350      -10.71915525904349        0.01609725069830
H           -3.09119813530988      -10.72507054485556        0.02594205286105
H           -1.18742806971466      -10.72600050568338        0.02869877578097
H            1.18744806422428      -10.72598307844196        0.03060116432509
H            3.09122045209421      -10.72501463687675        0.03550170600425
H            5.46859293729523      -10.71909757349539        0.02767074381672
H            7.40556037878495      -10.71386662157260        0.00650665516716
H            9.82500163093119      -10.65838115098089       -0.00584348416004
H           11.03305747411274       -8.50447339052263       -0.01641937503246
H           10.99348440633079       -6.08136051688149       -0.02182027571007
H           10.97851472857040       -3.65182412413842       -0.02637966537830
H           10.97242921352698       -1.21776821968243       -0.02917323352645
H           10.97243505132616        1.21774804335092       -0.02917939106795
H           10.97852723256217        3.65181907907650       -0.02639819267094
H           10.99349250918517        6.08137463090096       -0.02185134219200
H           11.03305217472792        8.50449773025905       -0.01646276861316
H            9.82498942965881       10.65840019582976       -0.00589395354447
H           -9.82494283385578       10.65841706949477       -0.01902078864244
H           -7.40548875539053       10.71390979755851       -0.00777319490531
H           -5.46856076777040       10.71915411606929        0.01612953212748
H           -3.09119522032588       10.72506814598439        0.02596412234742
H           -1.18742795301177       10.72599742189973        0.02870371628413
H            1.18744828251827       10.72597997707468        0.03059431367778
H            3.09121708056042       10.72501229925884        0.03548075105164
H            5.46858979107023       10.71909670226458        0.02763955242880
H            7.40554318767678       10.71388370312545        0.00646357050145
 
 Bond Distances (Angstroems)
 ---------------------------
C1-C2=1.3711         C1-C6=1.4089         C1-H171=1.0801       C2-C1=1.3711         C2-C3=1.3893         C2-H172=1.0804       
C3-C2=1.3893         C3-C4=1.3953         C3-H173=1.0775       C4-C3=1.3953         C4-C7=1.4131         C4-C35=1.4456        
C5-C6=1.3959         C5-C10=1.3952        C5-H174=1.0807       C6-C1=1.4089         C6-C5=1.3959         C6-C7=1.4256         
C7-C4=1.4131         C7-C6=1.4256         C7-C8=1.4190         C8-C7=1.4190         C8-C11=1.4069        C8-C39=1.4209        
C9-C10=1.3971        C9-C14=1.3963        C9-H175=1.0806       C10-C5=1.3952        C10-C9=1.3971        C10-C11=1.4321       
C11-C8=1.4069        C11-C10=1.4321       C11-C12=1.4126       C12-C11=1.4126       C12-C15=1.4111       C12-C43=1.4184       
C13-C14=1.3961       C13-C18=1.3967       C13-H176=1.0806      C14-C9=1.3963        C14-C13=1.3961       C14-C15=1.4318       
C15-C12=1.4111       C15-C14=1.4318       C15-C16=1.4090       C16-C15=1.4090       C16-C19=1.4108       C16-C47=1.4211       
C17-C18=1.3967       C17-C22=1.3961       C17-H177=1.0806      C18-C13=1.3967       C18-C17=1.3967       C18-C19=1.4308       
C19-C16=1.4108       C19-C18=1.4308       C19-C20=1.4108       C20-C19=1.4108       C20-C23=1.4090       C20-C51=1.4211       
C21-C22=1.3963       C21-C26=1.3971       C21-H178=1.0806      C22-C17=1.3961       C22-C21=1.3963       C22-C23=1.4319       
C23-C20=1.4090       C23-C22=1.4319       C23-C24=1.4111       C24-C23=1.4111       C24-C27=1.4126       C24-C55=1.4184       
C25-C26=1.3952       C25-C30=1.3959       C25-H179=1.0807      C26-C21=1.3971       C26-C25=1.3952       C26-C27=1.4321       
C27-C24=1.4126       C27-C26=1.4321       C27-C28=1.4069       C28-C27=1.4069       C28-C31=1.4190       C28-C59=1.4209       
C29-C30=1.4089       C29-C33=1.3711       C29-H180=1.0801      C30-C25=1.3959       C30-C29=1.4089       C30-C31=1.4256       
C31-C28=1.4190       C31-C30=1.4256       C31-C32=1.4131       C32-C31=1.4131       C32-C34=1.3953       C32-C63=1.4456       
C33-C29=1.3711       C33-C34=1.3893       C33-H198=1.0804      C34-C32=1.3953       C34-C33=1.3893       C34-H199=1.0775      
C35-C4=1.4456        C35-C36=1.3970       C35-C40=1.4142       C36-C35=1.3970       C36-C37=1.3693       C36-H181=1.0776      
C37-C36=1.3693       C37-C38=1.3993       C37-H182=1.0772      C38-C37=1.3993       C38-C41=1.4110       C38-C69=1.4379       
C39-C8=1.4209        C39-C40=1.4204       C39-C44=1.4104       C40-C35=1.4142       C40-C39=1.4204       C40-C41=1.4207       
C41-C38=1.4110       C41-C40=1.4207       C41-C42=1.4236       C42-C41=1.4236       C42-C45=1.4106       C42-C73=1.4178       
C43-C12=1.4184       C43-C44=1.4138       C43-C48=1.4151       C44-C39=1.4104       C44-C43=1.4138       C44-C45=1.4234       
C45-C42=1.4106       C45-C44=1.4234       C45-C46=1.4150       C46-C45=1.4150       C46-C49=1.4165       C46-C77=1.4161       
C47-C16=1.4211       C47-C48=1.4111       C47-C52=1.4139       C48-C43=1.4151       C48-C47=1.4111       C48-C49=1.4183       
C49-C46=1.4165       C49-C48=1.4183       C49-C50=1.4121       C50-C49=1.4121       C50-C53=1.4151       C50-C81=1.4185       
C51-C20=1.4211       C51-C52=1.4139       C51-C56=1.4111       C52-C47=1.4139       C52-C51=1.4139       C52-C53=1.4159       
C53-C50=1.4151       C53-C52=1.4159       C53-C54=1.4151       C54-C53=1.4151       C54-C57=1.4121       C54-C85=1.4185       
C55-C24=1.4184       C55-C56=1.4151       C55-C60=1.4138       C56-C51=1.4111       C56-C55=1.4151       C56-C57=1.4183       
C57-C54=1.4121       C57-C56=1.4183       C57-C58=1.4165       C58-C57=1.4165       C58-C61=1.4150       C58-C89=1.4161       
C59-C28=1.4209       C59-C60=1.4104       C59-C64=1.4204       C60-C55=1.4138       C60-C59=1.4104       C60-C61=1.4234       
C61-C58=1.4150       C61-C60=1.4234       C61-C62=1.4106       C62-C61=1.4106       C62-C65=1.4236       C62-C93=1.4178       
C63-C32=1.4456       C63-C64=1.4142       C63-C67=1.3970       C64-C59=1.4204       C64-C63=1.4142       C64-C65=1.4207       
C65-C62=1.4236       C65-C64=1.4207       C65-C66=1.4110       C66-C65=1.4110       C66-C68=1.3993       C66-C97=1.4379       
C67-C63=1.3970       C67-C68=1.3693       C67-H200=1.0776      C68-C66=1.3993       C68-C67=1.3693       C68-H201=1.0772      
C69-C38=1.4379       C69-C70=1.3994       C69-C74=1.4114       C70-C69=1.3994       C70-C71=1.3670       C70-H183=1.0771      
C71-C70=1.3670       C71-C72=1.3994       C71-H184=1.0772      C72-C71=1.3994       C72-C75=1.4114       C72-C103=1.4379      
C73-C42=1.4178       C73-C74=1.4222       C73-C78=1.4120       C74-C69=1.4114       C74-C73=1.4222       C74-C75=1.4197       
C75-C72=1.4114       C75-C74=1.4197       C75-C76=1.4222       C76-C75=1.4222       C76-C79=1.4120       C76-C107=1.4178      
C77-C46=1.4161       C77-C78=1.4146       C77-C82=1.4175       C78-C73=1.4120       C78-C77=1.4146       C78-C79=1.4235       
C79-C76=1.4120       C79-C78=1.4235       C79-C80=1.4146       C80-C79=1.4146       C80-C83=1.4175       C80-C111=1.4161      
C81-C50=1.4185       C81-C82=1.4125       C81-C86=1.4157       C82-C77=1.4175       C82-C81=1.4125       C82-C83=1.4174       
C83-C80=1.4175       C83-C82=1.4174       C83-C84=1.4125       C84-C83=1.4125       C84-C87=1.4157       C84-C115=1.4185      
C85-C54=1.4185       C85-C86=1.4157       C85-C90=1.4125       C86-C81=1.4157       C86-C85=1.4157       C86-C87=1.4148       
C87-C84=1.4157       C87-C86=1.4148       C87-C88=1.4157       C88-C87=1.4157       C88-C91=1.4125       C88-C119=1.4185      
C89-C58=1.4161       C89-C90=1.4175       C89-C94=1.4146       C90-C85=1.4125       C90-C89=1.4175       C90-C91=1.4174       
C91-C88=1.4125       C91-C90=1.4174       C91-C92=1.4175       C92-C91=1.4175       C92-C95=1.4146       C92-C123=1.4161      
C93-C62=1.4178       C93-C94=1.4120       C93-C98=1.4222       C94-C89=1.4146       C94-C93=1.4120       C94-C95=1.4235       
C95-C92=1.4146       C95-C94=1.4235       C95-C96=1.4120       C96-C95=1.4120       C96-C99=1.4222       C96-C127=1.4178      
C97-C66=1.4379       C97-C98=1.4114       C97-C101=1.3994      C98-C93=1.4222       C98-C97=1.4114       C98-C99=1.4197       
C99-C96=1.4222       C99-C98=1.4197       C99-C100=1.4114      C100-C99=1.4114      C100-C102=1.3994     C100-C131=1.4379     
C101-C97=1.3994      C101-C102=1.3670     C101-H202=1.0771     C102-C100=1.3994     C102-C101=1.3670     C102-H203=1.0772     
C103-C72=1.4379      C103-C104=1.3993     C103-C108=1.4110     C104-C103=1.3993     C104-C105=1.3693     C104-H185=1.0772     
C105-C104=1.3693     C105-C106=1.3970     C105-H186=1.0776     C106-C105=1.3970     C106-C109=1.4142     C106-C137=1.4456     
C107-C76=1.4178      C107-C108=1.4236     C107-C112=1.4106     C108-C103=1.4110     C108-C107=1.4236     C108-C109=1.4207     
C109-C106=1.4142     C109-C108=1.4207     C109-C110=1.4204     C110-C109=1.4204     C110-C113=1.4104     C110-C141=1.4209     
C111-C80=1.4161      C111-C112=1.4150     C111-C116=1.4165     C112-C107=1.4106     C112-C111=1.4150     C112-C113=1.4234     
C113-C110=1.4104     C113-C112=1.4234     C113-C114=1.4138     C114-C113=1.4138     C114-C117=1.4151     C114-C145=1.4184     
C115-C84=1.4185      C115-C116=1.4121     C115-C120=1.4151     C116-C111=1.4165     C116-C115=1.4121     C116-C117=1.4183     
C117-C114=1.4151     C117-C116=1.4183     C117-C118=1.4111     C118-C117=1.4111     C118-C121=1.4139     C118-C149=1.4211     
C119-C88=1.4185      C119-C120=1.4151     C119-C124=1.4121     C120-C115=1.4151     C120-C119=1.4151     C120-C121=1.4159     
C121-C118=1.4139     C121-C120=1.4159     C121-C122=1.4139     C122-C121=1.4139     C122-C125=1.4111     C122-C153=1.4211     
C123-C92=1.4161      C123-C124=1.4165     C123-C128=1.4150     C124-C119=1.4121     C124-C123=1.4165     C124-C125=1.4183     
C125-C122=1.4111     C125-C124=1.4183     C125-C126=1.4151     C126-C125=1.4151     C126-C129=1.4138     C126-C157=1.4184     
C127-C96=1.4178      C127-C128=1.4106     C127-C132=1.4236     C128-C123=1.4150     C128-C127=1.4106     C128-C129=1.4234     
C129-C126=1.4138     C129-C128=1.4234     C129-C130=1.4104     C130-C129=1.4104     C130-C133=1.4204     C130-C161=1.4209     
C131-C100=1.4379     C131-C132=1.4110     C131-C135=1.3993     C132-C127=1.4236     C132-C131=1.4110     C132-C133=1.4207     
C133-C130=1.4204     C133-C132=1.4207     C133-C134=1.4142     C134-C133=1.4142     C134-C136=1.3970     C134-C165=1.4456     
C135-C131=1.3993     C135-C136=1.3693     C135-H204=1.0772     C136-C134=1.3970     C136-C135=1.3693     C136-H205=1.0776     
C137-C106=1.4456     C137-C138=1.3953     C137-C142=1.4131     C138-C137=1.3953     C138-C139=1.3893     C138-H187=1.0775     
C139-C138=1.3893     C139-C140=1.3711     C139-H188=1.0804     C140-C139=1.3711     C140-C143=1.4089     C140-H189=1.0801     
C141-C110=1.4209     C141-C142=1.4190     C141-C146=1.4069     C142-C137=1.4131     C142-C141=1.4190     C142-C143=1.4256     
C143-C140=1.4089     C143-C142=1.4256     C143-C144=1.3959     C144-C143=1.3959     C144-C147=1.3952     C144-H190=1.0807     
C145-C114=1.4184     C145-C146=1.4126     C145-C150=1.4111     C146-C141=1.4069     C146-C145=1.4126     C146-C147=1.4321     
C147-C144=1.3952     C147-C146=1.4321     C147-C148=1.3971     C148-C147=1.3971     C148-C151=1.3963     C148-H191=1.0806     
C149-C118=1.4211     C149-C150=1.4090     C149-C154=1.4108     C150-C145=1.4111     C150-C149=1.4090     C150-C151=1.4318     
C151-C148=1.3963     C151-C150=1.4318     C151-C152=1.3961     C152-C151=1.3961     C152-C155=1.3967     C152-H192=1.0806     
C153-C122=1.4211     C153-C154=1.4108     C153-C158=1.4090     C154-C149=1.4108     C154-C153=1.4108     C154-C155=1.4308     
C155-C152=1.3967     C155-C154=1.4308     C155-C156=1.3967     C156-C155=1.3967     C156-C159=1.3961     C156-H193=1.0806     
C157-C126=1.4184     C157-C158=1.4111     C157-C162=1.4126     C158-C153=1.4090     C158-C157=1.4111     C158-C159=1.4318     
C159-C156=1.3961     C159-C158=1.4318     C159-C160=1.3963     C160-C159=1.3963     C160-C163=1.3971     C160-H194=1.0806     
C161-C130=1.4209     C161-C162=1.4069     C161-C166=1.4190     C162-C157=1.4126     C162-C161=1.4069     C162-C163=1.4321     
C163-C160=1.3971     C163-C162=1.4321     C163-C164=1.3952     C164-C163=1.3952     C164-C167=1.3959     C164-H195=1.0807     
C165-C134=1.4456     C165-C166=1.4131     C165-C169=1.3953     C166-C161=1.4190     C166-C165=1.4131     C166-C167=1.4256     
C167-C164=1.3959     C167-C166=1.4256     C167-C168=1.4089     C168-C167=1.4089     C168-C170=1.3711     C168-H196=1.0801     
C169-C165=1.3953     C169-C170=1.3893     C169-H206=1.0775     C170-C168=1.3711     C170-C169=1.3893     C170-H197=1.0804     
H171-C1=1.0801       H172-C2=1.0804       H173-C3=1.0775       H174-C5=1.0807       H175-C9=1.0806       H176-C13=1.0806      
H177-C17=1.0806      H178-C21=1.0806      H179-C25=1.0807      H180-C29=1.0801      H181-C36=1.0776      H182-C37=1.0772      
H183-C70=1.0771      H184-C71=1.0772      H185-C104=1.0772     H186-C105=1.0776     H187-C138=1.0775     H188-C139=1.0804     
H189-C140=1.0801     H190-C144=1.0807     H191-C148=1.0806     H192-C152=1.0806     H193-C156=1.0806     H194-C160=1.0806     
H195-C164=1.0807     H196-C168=1.0801     H197-C170=1.0804     H198-C33=1.0804      H199-C34=1.0775      H200-C67=1.0776      
H201-C68=1.0772      H202-C101=1.0771     H203-C102=1.0772     H204-C135=1.0772     H205-C136=1.0776     H206-C169=1.0775     
 C  H  Rav=1.0791 sigma=0.0016  Rmin=1.0771  Rmax=1.0807    36
 C  C  Rav=1.4116 sigma=0.0139  Rmin=1.3670  Rmax=1.4456   237
 
 selected bond angles (degree)
 --------------------
C6-C1-C2=120.26                H171-C1-C2=120.91              H171-C1-C6=118.83              C3-C2-C1=120.51                
H172-C2-C1=120.21              H172-C2-C3=119.28              C4-C3-C2=121.60                H173-C3-C2=117.78              
H173-C3-C4=120.62              C7-C4-C3=118.58                C35-C4-C3=122.61               C35-C4-C7=118.81               
C10-C5-C6=121.65               H174-C5-C6=119.20              H174-C5-C10=119.15             C5-C6-C1=121.02                
C7-C6-C1=119.39                C7-C6-C5=119.60                C6-C7-C4=119.67                C8-C7-C4=120.74                
C8-C7-C6=119.59                C11-C8-C7=119.98               C39-C8-C7=120.28               C39-C8-C11=119.74              
C14-C9-C10=121.71              H175-C9-C10=119.12             H175-C9-C14=119.17             C9-C10-C5=121.42               
C11-C10-C5=119.16              C11-C10-C9=119.41              
 
 selected dihedral angles (degree)
 ---------------------------------
C3-C2-C1-C6=  0.05            C3-C2-C1-H171=180.03          H172-C2-C1-C6=180.05          H172-C2-C1-H171=  0.00        
C4-C3-C2-C1=  0.00            C4-C3-C2-H172=180.00          H173-C3-C2-C1=180.02          H173-C3-C2-H172=  0.03        
C7-C4-C3-C2=359.93            C7-C4-C3-H173=179.90          C35-C4-C3-C2=179.95           C35-C4-C3-H173=359.92         
C5-C6-C1-C2=179.98            C5-C6-C1-H171=  0.00          C7-C6-C1-C2=  0.00            C7-C6-C1-H171=180.01          
C1-C6-C5-C10=180.05           C1-C6-C5-H174=  0.04          C7-C6-C5-C10=  0.04           C7-C6-C5-H174=180.03          
C6-C7-C4-C3=  0.11            C6-C7-C4-C35=180.08           C8-C7-C4-C3=180.13            C8-C7-C4-C35=  0.10           
C4-C7-C6-C1=359.94            C4-C7-C6-C5=179.94            C8-C7-C6-C1=179.92            C8-C7-C6-C5=359.92            
C11-C8-C7-C4=180.03           C11-C8-C7-C6=  0.05           C39-C8-C7-C4=  0.06           C39-C8-C7-C6=180.07           
C9-C10-C5-C6=180.01           C9-C10-C5-H174=  0.00         C11-C10-C5-C6=  0.03          C11-C10-C5-H174=180.04        
C5-C10-C9-C14=180.04          C5-C10-C9-H175=  0.03         C11-C10-C9-C14=  0.00         C11-C10-C9-H175=180.02        
           -------------------------------------------------
          |                Final Singlepoint                |
           -------------------------------------------------

          ...................................................
          :                      SETUP                      :
          :.................................................:
          :  # basis functions                 716          :
          :  # atomic orbitals                 716          :
          :  # shells                          376          :
          :  # electrons                       716          :
          :  max. iterations                   250          :
          :  Hamiltonian                  GFN2-xTB          :
          :  restarted?                      false          :
          :  GBSA solvation                  false          :
          :  PC potential                    false          :
          :  electronic temp.          300.0000000     K    :
          :  accuracy                    1.0000000          :
          :  -> integral cutoff          0.2500000E+02      :
          :  -> integral neglect         0.1000000E-07      :
          :  -> SCF convergence          0.1000000E-05 Eh   :
          :  -> wf. convergence          0.1000000E-03 e    :
          :  Broyden damping             0.4000000          :
          :  net charge                          0          :
          :  unpaired electrons                  0          :
          ...................................................

 iter      E             dE          RMSdq      gap      omega  full diag
   1   -391.4781654 -0.391478E+03  0.290E-05    0.00       0.0  T
   2   -391.4781654  0.550654E-08  0.144E-04    0.00      48.5  T
   3   -391.4781654  0.153705E-08  0.116E-04    0.00      59.9  T

   *** convergence criteria satisfied after 3 iterations ***

         #    Occupation            Energy/Eh            Energy/eV
      -------------------------------------------------------------
         1        2.0000           -0.6634545             -18.0535
       ...           ...                  ...                  ...
       352        2.0000           -0.3751432             -10.2082
       353        2.0000           -0.3624991              -9.8641
       354        2.0000           -0.3613792              -9.8336
       355        2.0000           -0.3576235              -9.7314
       356        2.0000           -0.3380731              -9.1994
       357        1.3833           -0.3254704              -8.8565
       358        1.0599           -0.3248169              -8.8387 (HOMO)
       359        1.0582           -0.3248136              -8.8386 (LUMO)
       360        0.4986           -0.3236557              -8.8071
       361        0.0000           -0.3104410              -8.4475
       362                         -0.2889608              -7.8630
       363                         -0.2849583              -7.7541
       ...                                ...                  ...
       716                          0.7922882              21.5593
      -------------------------------------------------------------
                  HL-Gap            0.0000033 Eh            0.0001 eV
             Fermi-level           -0.3247029 Eh           -8.8356 eV

 SCC (total)                   0 d,  0 h,  0 min,  1.121 sec
 SCC setup                      ...        0 min,  0.005 sec (  0.446%)
 Dispersion                     ...        0 min,  0.010 sec (  0.892%)
 classical contributions        ...        0 min,  0.001 sec (  0.089%)
 integral evaluation            ...        0 min,  0.089 sec (  7.939%)
 iterations                     ...        0 min,  0.539 sec ( 48.082%)
 molecular gradient             ...        0 min,  0.459 sec ( 40.946%)
 printout                       ...        0 min,  0.018 sec (  1.606%)

         :::::::::::::::::::::::::::::::::::::::::::::::::::::
         ::                     SUMMARY                     ::
         :::::::::::::::::::::::::::::::::::::::::::::::::::::
         :: total energy            -383.874603194179 Eh    ::
         :: gradient norm              0.000452598474 Eh/a0 ::
         :: HOMO-LUMO gap              0.000090819412 eV    ::
         ::.................................................::
         :: SCC energy              -391.495518234378 Eh    ::
         :: -> isotropic ES            0.002253023929 Eh    ::
         :: -> anisotropic ES          0.016726380156 Eh    ::
         :: -> anisotropic XC          0.133209744009 Eh    ::
         :: -> dispersion             -0.497220369078 Eh    ::
         :: repulsion energy           7.620915040198 Eh    ::
         :: add. restraining           0.000000000000 Eh    ::
         :: total charge               0.000000000084 e     ::
         :::::::::::::::::::::::::::::::::::::::::::::::::::::

           -------------------------------------------------
          |                Property Printout                |
           -------------------------------------------------

    * Orbital Energies and Occupations

         #    Occupation            Energy/Eh            Energy/eV
      -------------------------------------------------------------
         1        2.0000           -0.6634545             -18.0535
       ...           ...                  ...                  ...
       346        2.0000           -0.3837952             -10.4436
       347        2.0000           -0.3817879             -10.3890
       348        2.0000           -0.3814348             -10.3794
       349        2.0000           -0.3807370             -10.3604
       350        2.0000           -0.3771342             -10.2623
       351        2.0000           -0.3770185             -10.2592
       352        2.0000           -0.3751432             -10.2082
       353        2.0000           -0.3624991              -9.8641
       354        2.0000           -0.3613792              -9.8336
       355        2.0000           -0.3576235              -9.7314
       356        2.0000           -0.3380731              -9.1994
       357        1.3833           -0.3254704              -8.8565
       358        1.0599           -0.3248169              -8.8387 (HOMO)
       359        1.0582           -0.3248136              -8.8386 (LUMO)
       360        0.4986           -0.3236557              -8.8071
       361        0.0000           -0.3104410              -8.4475
       362                         -0.2889608              -7.8630
       363                         -0.2849583              -7.7541
       364                         -0.2831855              -7.7059
       365                         -0.2683006              -7.3008
       366                         -0.2660595              -7.2398
       367                         -0.2651487              -7.2151
       368                         -0.2614396              -7.1141
       369                         -0.2572307              -6.9996
       ...                                ...                  ...
       716                          0.7922882              21.5593
      -------------------------------------------------------------
                  HL-Gap            0.0000033 Eh            0.0001 eV
             Fermi-level           -0.3247029 Eh           -8.8356 eV

     #   Z          covCN         q      C6AA      α(0)
     1   6 C        2.922    -0.037    28.918     8.819
     2   6 C        2.912    -0.030    28.742     8.791
     3   6 C        2.922    -0.036    28.903     8.816
     4   6 C        2.976     0.006    27.873     8.660
     5   6 C        2.925    -0.045    29.108     8.848
     6   6 C        2.980     0.013    27.728     8.638
     7   6 C        2.994     0.002    27.980     8.677
     8   6 C        2.986     0.001    28.001     8.680
     9   6 C        2.925    -0.045    29.126     8.850
    10   6 C        2.974     0.012    27.745     8.640
    11   6 C        2.993    -0.000    28.023     8.684
    12   6 C        2.988     0.001    28.002     8.680
    13   6 C        2.925    -0.046    29.146     8.853
    14   6 C        2.974     0.012    27.737     8.639
    15   6 C        2.993     0.001    28.006     8.681
    16   6 C        2.988     0.001    27.998     8.680
    17   6 C        2.925    -0.046    29.146     8.853
    18   6 C        2.974     0.012    27.739     8.639
    19   6 C        2.994     0.001    27.999     8.680
    20   6 C        2.988     0.001    27.998     8.680
    21   6 C        2.925    -0.045    29.126     8.850
    22   6 C        2.974     0.012    27.737     8.639
    23   6 C        2.993     0.001    28.006     8.681
    24   6 C        2.988     0.001    28.002     8.680
    25   6 C        2.925    -0.045    29.108     8.848
    26   6 C        2.974     0.012    27.745     8.640
    27   6 C        2.993    -0.000    28.023     8.684
    28   6 C        2.986     0.001    28.001     8.680
    29   6 C        2.922    -0.037    28.918     8.819
    30   6 C        2.980     0.013    27.728     8.638
    31   6 C        2.994     0.002    27.980     8.677
    32   6 C        2.976     0.006    27.873     8.660
    33   6 C        2.912    -0.030    28.742     8.791
    34   6 C        2.922    -0.036    28.903     8.816
    35   6 C        2.979     0.004    27.927     8.669
    36   6 C        2.919    -0.037    28.915     8.818
    37   6 C        2.919    -0.037    28.926     8.820
    38   6 C        2.981     0.005    27.916     8.667
    39   6 C        2.987    -0.000    28.029     8.685
    40   6 C        2.989     0.001    27.987     8.678
    41   6 C        2.990     0.001    27.996     8.679
    42   6 C        2.986    -0.000    28.031     8.685
    43   6 C        2.989    -0.001    28.039     8.686
    44   6 C        2.987    -0.001    28.033     8.685
    45   6 C        2.988    -0.001    28.033     8.685
    46   6 C        2.988    -0.001    28.034     8.685
    47   6 C        2.990    -0.001    28.043     8.687
    48   6 C        2.989    -0.000    28.029     8.684
    49   6 C        2.989    -0.000    28.028     8.684
    50   6 C        2.989    -0.000    28.030     8.685
    51   6 C        2.990    -0.001    28.043     8.687
    52   6 C        2.989    -0.000    28.029     8.685
    53   6 C        2.989    -0.000    28.029     8.685
    54   6 C        2.989    -0.000    28.030     8.685
    55   6 C        2.989    -0.001    28.039     8.686
    56   6 C        2.989    -0.000    28.029     8.684
    57   6 C        2.989    -0.000    28.028     8.684
    58   6 C        2.988    -0.001    28.034     8.685
    59   6 C        2.987    -0.000    28.029     8.685
    60   6 C        2.987    -0.001    28.033     8.685
    61   6 C        2.988    -0.001    28.033     8.685
    62   6 C        2.986    -0.000    28.031     8.685
    63   6 C        2.979     0.004    27.927     8.669
    64   6 C        2.989     0.001    27.987     8.678
    65   6 C        2.990     0.001    27.996     8.679
    66   6 C        2.981     0.005    27.916     8.667
    67   6 C        2.919    -0.037    28.915     8.818
    68   6 C        2.919    -0.037    28.926     8.820
    69   6 C        2.981     0.004    27.919     8.667
    70   6 C        2.920    -0.037    28.923     8.819
    71   6 C        2.920    -0.037    28.923     8.819
    72   6 C        2.981     0.004    27.919     8.667
    73   6 C        2.986    -0.000    28.029     8.684
    74   6 C        2.990     0.001    27.992     8.679
    75   6 C        2.990     0.001    27.992     8.679
    76   6 C        2.986    -0.000    28.029     8.684
    77   6 C        2.988    -0.001    28.033     8.685
    78   6 C        2.987    -0.000    28.032     8.685
    79   6 C        2.987    -0.000    28.032     8.685
    80   6 C        2.988    -0.001    28.033     8.685
    81   6 C        2.989    -0.000    28.030     8.685
    82   6 C        2.988    -0.000    28.029     8.684
    83   6 C        2.988    -0.000    28.029     8.684
    84   6 C        2.989    -0.000    28.030     8.685
    85   6 C        2.989    -0.000    28.030     8.685
    86   6 C        2.989    -0.000    28.030     8.685
    87   6 C        2.989    -0.000    28.030     8.685
    88   6 C        2.989    -0.000    28.030     8.685
    89   6 C        2.988    -0.001    28.033     8.685
    90   6 C        2.988    -0.000    28.029     8.684
    91   6 C        2.988    -0.000    28.029     8.684
    92   6 C        2.988    -0.001    28.033     8.685
    93   6 C        2.986    -0.000    28.029     8.684
    94   6 C        2.987    -0.000    28.032     8.685
    95   6 C        2.987    -0.000    28.032     8.685
    96   6 C        2.986    -0.000    28.029     8.684
    97   6 C        2.981     0.004    27.919     8.667
    98   6 C        2.990     0.001    27.992     8.679
    99   6 C        2.990     0.001    27.992     8.679
   100   6 C        2.981     0.004    27.919     8.667
   101   6 C        2.920    -0.037    28.923     8.819
   102   6 C        2.920    -0.037    28.923     8.819
   103   6 C        2.981     0.005    27.916     8.667
   104   6 C        2.919    -0.037    28.926     8.820
   105   6 C        2.919    -0.037    28.915     8.818
   106   6 C        2.979     0.004    27.927     8.669
   107   6 C        2.986    -0.000    28.031     8.685
   108   6 C        2.990     0.001    27.996     8.679
   109   6 C        2.989     0.001    27.987     8.678
   110   6 C        2.987    -0.000    28.029     8.685
   111   6 C        2.988    -0.001    28.034     8.685
   112   6 C        2.988    -0.001    28.033     8.685
   113   6 C        2.987    -0.001    28.033     8.685
   114   6 C        2.989    -0.001    28.039     8.686
   115   6 C        2.989    -0.000    28.030     8.685
   116   6 C        2.989    -0.000    28.028     8.684
   117   6 C        2.989    -0.000    28.029     8.684
   118   6 C        2.990    -0.001    28.043     8.687
   119   6 C        2.989    -0.000    28.030     8.685
   120   6 C        2.989    -0.000    28.029     8.685
   121   6 C        2.989    -0.000    28.029     8.685
   122   6 C        2.990    -0.001    28.043     8.687
   123   6 C        2.988    -0.001    28.034     8.685
   124   6 C        2.989    -0.000    28.028     8.684
   125   6 C        2.989    -0.000    28.029     8.684
   126   6 C        2.989    -0.001    28.039     8.686
   127   6 C        2.986    -0.000    28.031     8.685
   128   6 C        2.988    -0.001    28.033     8.685
   129   6 C        2.987    -0.001    28.033     8.685
   130   6 C        2.987    -0.000    28.029     8.685
   131   6 C        2.981     0.005    27.916     8.667
   132   6 C        2.990     0.001    27.996     8.679
   133   6 C        2.989     0.001    27.987     8.678
   134   6 C        2.979     0.004    27.927     8.669
   135   6 C        2.919    -0.037    28.926     8.820
   136   6 C        2.919    -0.037    28.915     8.818
   137   6 C        2.976     0.006    27.873     8.660
   138   6 C        2.922    -0.036    28.903     8.816
   139   6 C        2.912    -0.030    28.742     8.791
   140   6 C        2.922    -0.037    28.918     8.819
   141   6 C        2.986     0.001    28.001     8.680
   142   6 C        2.994     0.002    27.980     8.677
   143   6 C        2.980     0.013    27.728     8.638
   144   6 C        2.925    -0.045    29.108     8.848
   145   6 C        2.988     0.001    28.002     8.680
   146   6 C        2.993    -0.000    28.023     8.684
   147   6 C        2.974     0.012    27.745     8.640
   148   6 C        2.925    -0.045    29.126     8.850
   149   6 C        2.988     0.001    27.998     8.680
   150   6 C        2.993     0.001    28.006     8.681
   151   6 C        2.974     0.012    27.737     8.639
   152   6 C        2.925    -0.046    29.146     8.853
   153   6 C        2.988     0.001    27.998     8.680
   154   6 C        2.994     0.001    27.999     8.680
   155   6 C        2.974     0.012    27.739     8.639
   156   6 C        2.925    -0.046    29.146     8.853
   157   6 C        2.988     0.001    28.002     8.680
   158   6 C        2.993     0.001    28.006     8.681
   159   6 C        2.974     0.012    27.737     8.639
   160   6 C        2.925    -0.045    29.126     8.850
   161   6 C        2.986     0.001    28.001     8.680
   162   6 C        2.993    -0.000    28.023     8.684
   163   6 C        2.974     0.012    27.745     8.640
   164   6 C        2.925    -0.045    29.108     8.848
   165   6 C        2.976     0.006    27.873     8.660
   166   6 C        2.994     0.002    27.980     8.677
   167   6 C        2.980     0.013    27.728     8.638
   168   6 C        2.922    -0.037    28.918     8.819
   169   6 C        2.922    -0.036    28.903     8.816
   170   6 C        2.912    -0.030    28.742     8.791
   171   1 H        0.926     0.031     2.569     2.506
   172   1 H        0.926     0.030     2.591     2.517
   173   1 H        0.926     0.033     2.549     2.497
   174   1 H        0.926     0.032     2.561     2.502
   175   1 H        0.926     0.031     2.566     2.505
   176   1 H        0.926     0.031     2.569     2.507
   177   1 H        0.926     0.031     2.569     2.507
   178   1 H        0.926     0.031     2.566     2.505
   179   1 H        0.926     0.032     2.561     2.502
   180   1 H        0.926     0.031     2.569     2.506
   181   1 H        0.926     0.033     2.545     2.495
   182   1 H        0.926     0.033     2.541     2.493
   183   1 H        0.926     0.033     2.541     2.493
   184   1 H        0.926     0.033     2.541     2.493
   185   1 H        0.926     0.033     2.541     2.493
   186   1 H        0.926     0.033     2.545     2.495
   187   1 H        0.926     0.033     2.549     2.497
   188   1 H        0.926     0.030     2.591     2.517
   189   1 H        0.926     0.031     2.569     2.506
   190   1 H        0.926     0.032     2.561     2.502
   191   1 H        0.926     0.031     2.566     2.505
   192   1 H        0.926     0.031     2.569     2.507
   193   1 H        0.926     0.031     2.569     2.507
   194   1 H        0.926     0.031     2.566     2.505
   195   1 H        0.926     0.032     2.561     2.502
   196   1 H        0.926     0.031     2.569     2.506
   197   1 H        0.926     0.030     2.591     2.517
   198   1 H        0.926     0.030     2.591     2.517
   199   1 H        0.926     0.033     2.549     2.497
   200   1 H        0.926     0.033     2.545     2.495
   201   1 H        0.926     0.033     2.541     2.493
   202   1 H        0.926     0.033     2.541     2.493
   203   1 H        0.926     0.033     2.541     2.493
   204   1 H        0.926     0.033     2.541     2.493
   205   1 H        0.926     0.033     2.545     2.495
   206   1 H        0.926     0.033     2.549     2.497

 Mol. C6AA /au·bohr⁶  :     921681.753839
 Mol. C8AA /au·bohr⁸  :   25539429.327434
 Mol. α(0) /au        :       1570.430013


Wiberg/Mayer (AO) data.
largest (>0.10) Wiberg bond orders for each atom

 ---------------------------------------------------------------------------
     #   Z sym  total        # sym  WBO       # sym  WBO       # sym  WBO
 ---------------------------------------------------------------------------
     1   6 C    3.892 --     2 C    1.498     6 C    1.275   171 H    0.969
     2   6 C    3.983 --     1 C    1.498     3 C    1.392   172 H    0.970
     3   6 C    3.886 --     2 C    1.392     4 C    1.377   173 H    0.962
     4   6 C    3.979 --     3 C    1.377     7 C    1.274    35 C    1.137
     5   6 C    3.782 --    10 C    1.333     6 C    1.331   174 H    0.966
     6   6 C    3.985 --     5 C    1.331     1 C    1.275     7 C    1.217
     7   6 C    3.944 --     4 C    1.274     8 C    1.238     6 C    1.217
     8   6 C    3.974 --    11 C    1.292     7 C    1.238    39 C    1.226
     9   6 C    3.751 --    14 C    1.327    10 C    1.322   175 H    0.966
    10   6 C    3.985 --     5 C    1.333     9 C    1.322    11 C    1.175
    11   6 C    3.944 --     8 C    1.292    12 C    1.260    10 C    1.175
    12   6 C    3.972 --    15 C    1.266    11 C    1.260    43 C    1.232
    13   6 C    3.760 --    14 C    1.328    18 C    1.325   176 H    0.966
    14   6 C    3.980 --    13 C    1.328     9 C    1.327    15 C    1.175
    15   6 C    3.921 --    16 C    1.275    12 C    1.266    14 C    1.175
    16   6 C    3.971 --    15 C    1.275    19 C    1.266    47 C    1.218
    17   6 C    3.760 --    22 C    1.328    18 C    1.325   177 H    0.966
    18   6 C    3.980 --    13 C    1.325    17 C    1.325    19 C    1.179
    19   6 C    3.912 --    16 C    1.266    20 C    1.266    18 C    1.179
    20   6 C    3.971 --    23 C    1.275    19 C    1.266    51 C    1.218
    21   6 C    3.751 --    22 C    1.327    26 C    1.322   178 H    0.966
    22   6 C    3.980 --    17 C    1.328    21 C    1.327    23 C    1.175
    23   6 C    3.921 --    20 C    1.275    24 C    1.266    22 C    1.175
    24   6 C    3.972 --    23 C    1.266    27 C    1.260    55 C    1.232
    25   6 C    3.782 --    26 C    1.333    30 C    1.331   179 H    0.966
    26   6 C    3.985 --    25 C    1.333    21 C    1.322    27 C    1.175
    27   6 C    3.944 --    28 C    1.292    24 C    1.260    26 C    1.175
    28   6 C    3.974 --    27 C    1.292    31 C    1.238    59 C    1.226
    29   6 C    3.892 --    33 C    1.498    30 C    1.275   180 H    0.969
    30   6 C    3.985 --    25 C    1.331    29 C    1.275    31 C    1.217
    31   6 C    3.944 --    32 C    1.274    28 C    1.238    30 C    1.217
    32   6 C    3.979 --    34 C    1.377    31 C    1.274    63 C    1.137
    33   6 C    3.983 --    29 C    1.498    34 C    1.392   198 H    0.970
    34   6 C    3.886 --    33 C    1.392    32 C    1.377   199 H    0.962
    35   6 C    3.947 --    36 C    1.339    40 C    1.280     4 C    1.137
    36   6 C    3.969 --    37 C    1.496    35 C    1.339   181 H    0.961
    37   6 C    3.952 --    36 C    1.496    38 C    1.329   182 H    0.960
    38   6 C    3.964 --    37 C    1.329    41 C    1.282    69 C    1.155
    39   6 C    3.935 --    44 C    1.279     8 C    1.226    40 C    1.226
    40   6 C    3.981 --    35 C    1.280    41 C    1.250    39 C    1.226
    41   6 C    3.976 --    38 C    1.282    40 C    1.250    42 C    1.220
    42   6 C    3.961 --    45 C    1.274    73 C    1.248    41 C    1.220
    43   6 C    3.946 --    44 C    1.256    48 C    1.249    12 C    1.232
    44   6 C    3.969 --    39 C    1.279    43 C    1.256    45 C    1.214
    45   6 C    3.958 --    42 C    1.274    46 C    1.255    44 C    1.214
    46   6 C    3.964 --    45 C    1.255    77 C    1.248    49 C    1.244
    47   6 C    3.950 --    48 C    1.268    52 C    1.253    16 C    1.218
    48   6 C    3.966 --    47 C    1.268    43 C    1.249    49 C    1.232
    49   6 C    3.952 --    50 C    1.265    46 C    1.244    48 C    1.232
    50   6 C    3.961 --    49 C    1.265    53 C    1.250    81 C    1.231
    51   6 C    3.950 --    56 C    1.268    52 C    1.253    20 C    1.218
    52   6 C    3.967 --    47 C    1.253    51 C    1.253    53 C    1.242
    53   6 C    3.953 --    54 C    1.250    50 C    1.250    52 C    1.242
    54   6 C    3.961 --    57 C    1.265    53 C    1.250    85 C    1.231
    55   6 C    3.946 --    60 C    1.256    56 C    1.249    24 C    1.232
    56   6 C    3.966 --    51 C    1.268    55 C    1.249    57 C    1.232
    57   6 C    3.952 --    54 C    1.265    58 C    1.244    56 C    1.232
    58   6 C    3.964 --    61 C    1.255    89 C    1.248    57 C    1.244
    59   6 C    3.935 --    60 C    1.279    28 C    1.226    64 C    1.226
    60   6 C    3.969 --    59 C    1.279    55 C    1.256    61 C    1.214
    61   6 C    3.958 --    62 C    1.274    58 C    1.255    60 C    1.214
    62   6 C    3.961 --    61 C    1.274    93 C    1.248    65 C    1.220
    63   6 C    3.947 --    67 C    1.339    64 C    1.280    32 C    1.137
    64   6 C    3.981 --    63 C    1.280    65 C    1.250    59 C    1.226
[...]
    17   6 C       18   6 C                                       1.3967391
    16   6 C       19   6 C                                       1.4107538
    18   6 C       19   6 C                                       1.4308128
    19   6 C       20   6 C                                       1.4107555
    17   6 C       22   6 C                                       1.3961330
    21   6 C       22   6 C                                       1.3962640
    20   6 C       23   6 C                                       1.4090456
    22   6 C       23   6 C                                       1.4318503
    23   6 C       24   6 C                                       1.4111222
    21   6 C       26   6 C                                       1.3971449
    25   6 C       26   6 C                                       1.3951602
    24   6 C       27   6 C                                       1.4125848
    26   6 C       27   6 C                                       1.4321384 (max)
    27   6 C       28   6 C                                       1.4068892
    25   6 C       30   6 C                                       1.3959301
    29   6 C       30   6 C                                       1.4088812
    28   6 C       31   6 C                                       1.4189840
    30   6 C       31   6 C                                       1.4256031
    31   6 C       32   6 C                                       1.4131348
    29   6 C       33   6 C                                       1.3710647
    32   6 C       34   6 C                                       1.3952801
    33   6 C       34   6 C                                       1.3893428
    35   6 C       36   6 C                                       1.3969884
    36   6 C       37   6 C                                       1.3693331
    37   6 C       38   6 C                                       1.3992549
     8   6 C       39   6 C                                       1.4209334
    35   6 C       40   6 C                                       1.4142342
    39   6 C       40   6 C                                       1.4204352
    38   6 C       41   6 C                                       1.4110032
    40   6 C       41   6 C                                       1.4207480
    41   6 C       42   6 C                                       1.4236070
    12   6 C       43   6 C                                       1.4183663
    39   6 C       44   6 C                                       1.4103580
    43   6 C       44   6 C                                       1.4137991
    42   6 C       45   6 C                                       1.4105662
    44   6 C       45   6 C                                       1.4234184
    45   6 C       46   6 C                                       1.4149961
    16   6 C       47   6 C                                       1.4210732
    43   6 C       48   6 C                                       1.4151412
    47   6 C       48   6 C                                       1.4111190
    46   6 C       49   6 C                                       1.4164940
    48   6 C       49   6 C                                       1.4183370
    49   6 C       50   6 C                                       1.4121251
    20   6 C       51   6 C                                       1.4210742
    47   6 C       52   6 C                                       1.4138634
    51   6 C       52   6 C                                       1.4138636
    50   6 C       53   6 C                                       1.4151287
    52   6 C       53   6 C                                       1.4159372
    53   6 C       54   6 C                                       1.4151286
    24   6 C       55   6 C                                       1.4183684
    51   6 C       56   6 C                                       1.4111194
    55   6 C       56   6 C                                       1.4151418
    54   6 C       57   6 C                                       1.4121254
    56   6 C       57   6 C                                       1.4183380
    57   6 C       58   6 C                                       1.4164942
    28   6 C       59   6 C                                       1.4209348
    55   6 C       60   6 C                                       1.4138000
    59   6 C       60   6 C                                       1.4103584
    58   6 C       61   6 C                                       1.4149962
    60   6 C       61   6 C                                       1.4234197
    61   6 C       62   6 C                                       1.4105667
    59   6 C       64   6 C                                       1.4204363
    63   6 C       64   6 C                                       1.4142344
    62   6 C       65   6 C                                       1.4236070
    64   6 C       65   6 C                                       1.4207484
    65   6 C       66   6 C                                       1.4110036
    63   6 C       67   6 C                                       1.3969885
    66   6 C       68   6 C                                       1.3992549
    67   6 C       68   6 C                                       1.3693327
    69   6 C       70   6 C                                       1.3994377
    70   6 C       71   6 C                                       1.3670276
    71   6 C       72   6 C                                       1.3994361
    42   6 C       73   6 C                                       1.4177568
    69   6 C       74   6 C                                       1.4114341
    73   6 C       74   6 C                                       1.4221550
    72   6 C       75   6 C                                       1.4114336
    74   6 C       75   6 C                                       1.4197373
    75   6 C       76   6 C                                       1.4221539
    46   6 C       77   6 C                                       1.4160537
    73   6 C       78   6 C                                       1.4119801
    77   6 C       78   6 C                                       1.4146130
    76   6 C       79   6 C                                       1.4119794
    78   6 C       79   6 C                                       1.4234808
    79   6 C       80   6 C                                       1.4146124
    50   6 C       81   6 C                                       1.4184536
    77   6 C       82   6 C                                       1.4174602
    81   6 C       82   6 C                                       1.4124638
    80   6 C       83   6 C                                       1.4174598
    82   6 C       83   6 C                                       1.4173815
    83   6 C       84   6 C                                       1.4124633
    54   6 C       85   6 C                                       1.4184541
    81   6 C       86   6 C                                       1.4157104
    85   6 C       86   6 C                                       1.4157104
    84   6 C       87   6 C                                       1.4157100
    86   6 C       87   6 C                                       1.4148254
    87   6 C       88   6 C                                       1.4157101
    58   6 C       89   6 C                                       1.4160547
    85   6 C       90   6 C                                       1.4124638
    89   6 C       90   6 C                                       1.4174603
    88   6 C       91   6 C                                       1.4124633
    90   6 C       91   6 C                                       1.4173821
    91   6 C       92   6 C                                       1.4174599
    62   6 C       93   6 C                                       1.4177575
    89   6 C       94   6 C                                       1.4146131
    93   6 C       94   6 C                                       1.4119801
    92   6 C       95   6 C                                       1.4146125
    94   6 C       95   6 C                                       1.4234816
    95   6 C       96   6 C                                       1.4119794
    93   6 C       98   6 C                                       1.4221552
    97   6 C       98   6 C                                       1.4114340
    96   6 C       99   6 C                                       1.4221541
    98   6 C       99   6 C                                       1.4197377
    99   6 C      100   6 C                                       1.4114335
    97   6 C      101   6 C                                       1.3994378
   100   6 C      102   6 C                                       1.3994362
   101   6 C      102   6 C                                       1.3670275
   103   6 C      104   6 C                                       1.3992547
   104   6 C      105   6 C                                       1.3693333
   105   6 C      106   6 C                                       1.3969887
    76   6 C      107   6 C                                       1.4177567
   103   6 C      108   6 C                                       1.4110025
   107   6 C      108   6 C                                       1.4236066
   106   6 C      109   6 C                                       1.4142341
   108   6 C      109   6 C                                       1.4207477
   109   6 C      110   6 C                                       1.4204348
    80   6 C      111   6 C                                       1.4160535
   107   6 C      112   6 C                                       1.4105653
   111   6 C      112   6 C                                       1.4149955
   110   6 C      113   6 C                                       1.4103575
   112   6 C      113   6 C                                       1.4234180
   113   6 C      114   6 C                                       1.4137985
    84   6 C      115   6 C                                       1.4184534
   111   6 C      116   6 C                                       1.4164932
   115   6 C      116   6 C                                       1.4121245
   114   6 C      117   6 C                                       1.4151403
   116   6 C      117   6 C                                       1.4183364
   117   6 C      118   6 C                                       1.4111183
    88   6 C      119   6 C                                       1.4184538
   115   6 C      120   6 C                                       1.4151280
   119   6 C      120   6 C                                       1.4151278
   118   6 C      121   6 C                                       1.4138624
   120   6 C      121   6 C                                       1.4159367
   121   6 C      122   6 C                                       1.4138628
    92   6 C      123   6 C                                       1.4160545
   119   6 C      124   6 C                                       1.4121248
   123   6 C      124   6 C                                       1.4164935
   122   6 C      125   6 C                                       1.4111187
   124   6 C      125   6 C                                       1.4183377
   125   6 C      126   6 C                                       1.4151410
    96   6 C      127   6 C                                       1.4177574
   123   6 C      128   6 C                                       1.4149957
   127   6 C      128   6 C                                       1.4105660
   126   6 C      129   6 C                                       1.4137997
   128   6 C      129   6 C                                       1.4234195
   129   6 C      130   6 C                                       1.4103580
   127   6 C      132   6 C                                       1.4236066
   131   6 C      132   6 C                                       1.4110030
   130   6 C      133   6 C                                       1.4204360
   132   6 C      133   6 C                                       1.4207482
   133   6 C      134   6 C                                       1.4142343
   131   6 C      135   6 C                                       1.3992547
   134   6 C      136   6 C                                       1.3969888
   135   6 C      136   6 C                                       1.3693328
   137   6 C      138   6 C                                       1.3952761
   138   6 C      139   6 C                                       1.3893408
   139   6 C      140   6 C                                       1.3710623
   110   6 C      141   6 C                                       1.4209324
   137   6 C      142   6 C                                       1.4131330
   141   6 C      142   6 C                                       1.4189795
   140   6 C      143   6 C                                       1.4088777
   142   6 C      143   6 C                                       1.4256011
   143   6 C      144   6 C                                       1.3959243
   114   6 C      145   6 C                                       1.4183654
   141   6 C      146   6 C                                       1.4068855
   145   6 C      146   6 C                                       1.4125803
   144   6 C      147   6 C                                       1.3951532
   146   6 C      147   6 C                                       1.4321350
   147   6 C      148   6 C                                       1.3971386
   118   6 C      149   6 C                                       1.4210728
   145   6 C      150   6 C                                       1.4111179
   149   6 C      150   6 C                                       1.4090436
   148   6 C      151   6 C                                       1.3962579
   150   6 C      151   6 C                                       1.4318480
   151   6 C      152   6 C                                       1.3961302
   122   6 C      153   6 C                                       1.4210740
   149   6 C      154   6 C                                       1.4107533
   153   6 C      154   6 C                                       1.4107553
   152   6 C      155   6 C                                       1.3967382
   154   6 C      155   6 C                                       1.4308126
   155   6 C      156   6 C                                       1.3967398
   126   6 C      157   6 C                                       1.4183679
   153   6 C      158   6 C                                       1.4090451
   157   6 C      158   6 C                                       1.4111221
   156   6 C      159   6 C                                       1.3961337
   158   6 C      159   6 C                                       1.4318500
   159   6 C      160   6 C                                       1.3962639
   130   6 C      161   6 C                                       1.4209341
   157   6 C      162   6 C                                       1.4125841
   161   6 C      162   6 C                                       1.4068890
   160   6 C      163   6 C                                       1.3971448
   162   6 C      163   6 C                                       1.4321378
   163   6 C      164   6 C                                       1.3951592
   161   6 C      166   6 C                                       1.4189833
   165   6 C      166   6 C                                       1.4131347
   164   6 C      167   6 C                                       1.3959294
   166   6 C      167   6 C                                       1.4256028
   167   6 C      168   6 C                                       1.4088805
   165   6 C      169   6 C                                       1.3952794
   168   6 C      170   6 C                                       1.3710643
   169   6 C      170   6 C                                       1.3893423
     1   6 C      171   1 H                                       1.0800832
     2   6 C      172   1 H                                       1.0804335
     3   6 C      173   1 H                                       1.0774947
     5   6 C      174   1 H                                       1.0807174
     9   6 C      175   1 H                                       1.0805934
    13   6 C      176   1 H                                       1.0805890
    17   6 C      177   1 H                                       1.0805887
    21   6 C      178   1 H                                       1.0805928
    25   6 C      179   1 H                                       1.0807169
    29   6 C      180   1 H                                       1.0800830
    36   6 C      181   1 H                                       1.0775624
    37   6 C      182   1 H                                       1.0772328
    70   6 C      183   1 H                                       1.0771496 (min)
    71   6 C      184   1 H                                       1.0771500
   104   6 C      185   1 H                                       1.0772330
   105   6 C      186   1 H                                       1.0775623
   138   6 C      187   1 H                                       1.0774949
   139   6 C      188   1 H                                       1.0804337
   140   6 C      189   1 H                                       1.0800832
   144   6 C      190   1 H                                       1.0807176
   148   6 C      191   1 H                                       1.0805936
   152   6 C      192   1 H                                       1.0805892
   156   6 C      193   1 H                                       1.0805889
   160   6 C      194   1 H                                       1.0805929
   164   6 C      195   1 H                                       1.0807170
   168   6 C      196   1 H                                       1.0800830
   170   6 C      197   1 H                                       1.0804331
    33   6 C      198   1 H                                       1.0804330
    34   6 C      199   1 H                                       1.0774940
    67   6 C      200   1 H                                       1.0775624
    68   6 C      201   1 H                                       1.0772327
   101   6 C      202   1 H                                       1.0771496
   102   6 C      203   1 H                                       1.0771501
   135   6 C      204   1 H                                       1.0772330
   136   6 C      205   1 H                                       1.0775624
   169   6 C      206   1 H                                       1.0774940

 * 2 distinct bonds (by element types)

   Z      Z             #   av. dist./Å        max./Å        min./Å
   1 H    6 C          36     1.0790950     1.0807176     1.0771496
   6 C    6 C         229     1.4105459     1.4321384     1.3670275


optimized geometry written to: xtbopt.xyz


           -------------------------------------------------
          | TOTAL ENERGY             -383.874603194179 Eh   |
          | GRADIENT NORM               0.000452598474 Eh/α |
          | HOMO-LUMO GAP               0.000090819412 eV   |
           -------------------------------------------------

------------------------------------------------------------------------
 * finished run on 2025/12/08 at 00:35:42.723     
------------------------------------------------------------------------
 total:
 * wall-time:     0 d,  0 h,  0 min, 23.852 sec
 *  cpu-time:     0 d,  0 h,  1 min, 32.688 sec
 * ratio c/w:     3.886 speedup
 SCF:
 * wall-time:     0 d,  0 h,  0 min,  4.170 sec
 *  cpu-time:     0 d,  0 h,  0 min, 16.156 sec
 * ratio c/w:     3.874 speedup
 ANC optimizer:
 * wall-time:     0 d,  0 h,  0 min, 19.497 sec
 *  cpu-time:     0 d,  0 h,  1 min, 15.844 sec
 * ratio c/w:     3.890 speedup

normal termination of xtb
