      -----------------------------------------------------------      
     |                   =====================                   |     
     |                           x T B                           |     
     |                   =====================                   |     
     |                         S. Grimme                         |     
     |          Mulliken Center for Theoretical Chemistry        |     
     |                    University of Bonn                     |     
      -----------------------------------------------------------      

   * xtb version 6.7.1pre (5071a88) compiled by 'Marcel@Raven' on 2024-07-23

   xtb is free software: you can redistribute it and/or modify it under
   the terms of the GNU Lesser General Public License as published by
   the Free Software Foundation, either version 3 of the License, or
   (at your option) any later version.
   
   xtb is distributed in the hope that it will be useful,
   but WITHOUT ANY WARRANTY; without even the implied warranty of
   MERCHANTABILITY or FITNESS FOR A PARTICULAR PURPOSE.  See the
   GNU Lesser General Public License for more details.
   
   Cite this work as:
   * C. Bannwarth, E. Caldeweyher, S. Ehlert, A. Hansen, P. Pracht,
     J. Seibert, S. Spicher, S. Grimme, WIREs Comput. Mol. Sci., 2020, 11,
     e01493. DOI: 10.1002/wcms.1493
   
   for GFN2-xTB:
   * C. Bannwarth, S. Ehlert and S. Grimme., J. Chem. Theory Comput., 2019,
     15, 1652-1671. DOI: 10.1021/acs.jctc.8b01176
   for GFN1-xTB:
   * S. Grimme, C. Bannwarth, P. Shushkov, J. Chem. Theory Comput., 2017,
     13, 1989-2009. DOI: 10.1021/acs.jctc.7b00118
   for GFN0-xTB:
   * P. Pracht, E. Caldeweyher, S. Ehlert, S. Grimme, ChemRxiv, 2019, preprint.
     DOI: 10.26434/chemrxiv.8326202.v1
   for GFN-FF:
   * S. Spicher and S. Grimme, Angew. Chem. Int. Ed., 2020, 59, 15665-15673.
     DOI: 10.1002/anie.202004239
   
   for ALPB and GBSA implicit solvation:
   * S. Ehlert, M. Stahn, S. Spicher, S. Grimme, J. Chem. Theory Comput.,
     2021, 17, 4250-4261. DOI: 10.1021/acs.jctc.1c00471
   
   for ddCOSMO and CPCM-X implicit solvation:
   * M. Stahn, S. Ehlert, S. Grimme, J. Phys. Chem. A,
     2023, XX, XXXX-XXXX. DOI: 10.1021/acs.jpca.3c04382
   
   for DFT-D4:
   * E. Caldeweyher, C. Bannwarth and S. Grimme, J. Chem. Phys., 2017,
     147, 034112. DOI: 10.1063/1.4993215
   * E. Caldeweyher, S. Ehlert, A. Hansen, H. Neugebauer, S. Spicher,
     C. Bannwarth and S. Grimme, J. Chem. Phys., 2019, 150, 154122.
     DOI: 10.1063/1.5090222
   * E. Caldeweyher, J.-M. Mewes, S. Ehlert and S. Grimme, Phys. Chem. Chem. Phys.
     2020, 22, 8499-8512. DOI: 10.1039/D0CP00502A
   
   for sTDA-xTB:
   * S. Grimme and C. Bannwarth, J. Chem. Phys., 2016, 145, 054103.
     DOI: 10.1063/1.4959605
   
   in the mass-spec context:
   * V. Asgeirsson, C. Bauer and S. Grimme, Chem. Sci., 2017, 8, 4879.
     DOI: 10.1039/c7sc00601b
   * J. Koopman and S. Grimme, ACS Omega 2019, 4, 12, 15120-15133.
     DOI: 10.1021/acsomega.9b02011
   
   for metadynamics refer to:
   * S. Grimme, J. Chem. Theory Comput., 2019, 155, 2847-2862
     DOI: 10.1021/acs.jctc.9b00143
   
   for SPH calculations refer to:
   * S. Spicher and S. Grimme, J. Chem. Theory Comput., 2021, 17, 1701-1714
     DOI: 10.1021/acs.jctc.0c01306
   
   for ONIOM refer to:
   * C. Plett, A. Katbashev, S. Ehlert, S. Grimme, M. Bursch,
     Phys. Chem. Chem. Phys., 2023, 25, 17860-17868. DOI: 10.1039/D3CP02178E
   
   for DIPRO refer to:
   * J. Kohn, N. Gildemeister, S. Grimme, D. Fazzi, A. Hansen,
     J. Chem. Phys., 2023, just accepted.
   
   for PTB refer to:
   * S. Grimme, M. Mueller, A. Hansen, J. Chem. Phys., 2023, 158, 124111.
     DOI: 10.1063/5.0137838
   
   with help from (in alphabetical order)
   P. Atkinson, C. Bannwarth, F. Bohle, G. Brandenburg, E. Caldeweyher
   M. Checinski, S. Dohm, S. Ehlert, S. Ehrlich, I. Gerasimov, C. Hölzer
   A. Katbashev, J. Kohn, J. Koopman, C. Lavigne, S. Lehtola, F. März, M. Müller,
   F. Musil, H. Neugebauer, J. Pisarek, C. Plett, P. Pracht, F. Pultar,
   J. Seibert, P. Shushkov, S. Spicher, M. Stahn, M. Steiner, T. Strunk,
   J. Stückrath, T. Rose, and J. Unsleber
   
 * started run on 2025/12/08 at 00:35:42.757     
   ID    Z sym.   atoms
    1    6 C      1-170
    2    1 H      171-206

           -------------------------------------------------
          |                Calculation Setup                |
           -------------------------------------------------

          program call               : xtb "C:\Users\LENOVO GAMING\Documents\GitHub\molecular-conductivity-sim\results\2nm-0pure-0percent\xtbopt.xyz" --sp
          coordinate file            : C:\Users\LENOVO GAMING\Documents\GitHub\molecular-conductivity-sim\results\2nm-0pure-0percent\xtbopt.xyz
          omp threads                :                    16


           -------------------------------------------------
          |                 G F N 2 - x T B                 |
           -------------------------------------------------

        Reference                      10.1021/acs.jctc.8b01176
      * Hamiltonian:
        H0-scaling (s, p, d)           1.850000    2.230000    2.230000
        zeta-weighting                 0.500000
      * Dispersion:
        s8                             2.700000
        a1                             0.520000
        a2                             5.000000
        s9                             5.000000
      * Repulsion:
        kExp                           1.500000    1.000000
        rExp                           1.000000
      * Coulomb:
        alpha                          2.000000
        third order                    shell-resolved
        anisotropic                    true
        a3                             3.000000
        a5                             4.000000
        cn-shift                       1.200000
        cn-exp                         4.000000
        max-rad                        5.000000

q/qsh data taken from xtbrestart
CAMM data taken from xtbrestart

          ...................................................
          :                      SETUP                      :
          :.................................................:
          :  # basis functions                 716          :
          :  # atomic orbitals                 716          :
          :  # shells                          376          :
          :  # electrons                       716          :
          :  max. iterations                   250          :
          :  Hamiltonian                  GFN2-xTB          :
          :  restarted?                       true          :
          :  GBSA solvation                  false          :
          :  PC potential                    false          :
          :  electronic temp.          300.0000000     K    :
          :  accuracy                    1.0000000          :
          :  -> integral cutoff          0.2500000E+02      :
          :  -> integral neglect         0.1000000E-07      :
          :  -> SCF convergence          0.1000000E-05 Eh   :
          :  -> wf. convergence          0.1000000E-03 e    :
          :  Broyden damping             0.4000000          :
          :  net charge                          0          :
          :  unpaired electrons                  0          :
          ...................................................

 iter      E             dE          RMSdq      gap      omega  full diag
   1   -391.4781654 -0.391478E+03  0.564E-05    0.00       0.0  T
   2   -391.4781624  0.296873E-05  0.231E-03    0.00       3.0  T
   3   -391.4781654 -0.295841E-05  0.180E-04    0.00      38.6  T
   4   -391.4781654 -0.101232E-07  0.740E-05    0.00      94.2  T
   5   -391.4781654 -0.174464E-08  0.180E-05    0.00     386.9  T

   *** convergence criteria satisfied after 5 iterations ***

         #    Occupation            Energy/Eh            Energy/eV
      -------------------------------------------------------------
         1        2.0000           -0.6634542             -18.0535
       ...           ...                  ...                  ...
       352        2.0000           -0.3751431             -10.2082
       353        2.0000           -0.3624990              -9.8641
       354        2.0000           -0.3613790              -9.8336
       355        2.0000           -0.3576235              -9.7314
       356        2.0000           -0.3380731              -9.1994
       357        1.3833           -0.3254705              -8.8565
       358        1.0599           -0.3248171              -8.8387 (HOMO)
       359        1.0582           -0.3248138              -8.8386 (LUMO)
       360        0.4986           -0.3236558              -8.8071
       361        0.0000           -0.3104409              -8.4475
       362                         -0.2889607              -7.8630
       363                         -0.2849581              -7.7541
       ...                                ...                  ...
       716                          0.7922883              21.5593
      -------------------------------------------------------------
                  HL-Gap            0.0000033 Eh            0.0001 eV
             Fermi-level           -0.3247031 Eh           -8.8356 eV

 SCC (total)                   0 d,  0 h,  0 min,  0.947 sec
 SCC setup                      ...        0 min,  0.004 sec (  0.422%)
 Dispersion                     ...        0 min,  0.022 sec (  2.323%)
 classical contributions        ...        0 min,  0.000 sec (  0.000%)
 integral evaluation            ...        0 min,  0.057 sec (  6.019%)
 iterations                     ...        0 min,  0.675 sec ( 71.278%)
 molecular gradient             ...        0 min,  0.177 sec ( 18.691%)
 printout                       ...        0 min,  0.012 sec (  1.267%)

         :::::::::::::::::::::::::::::::::::::::::::::::::::::
         ::                     SUMMARY                     ::
         :::::::::::::::::::::::::::::::::::::::::::::::::::::
         :: total energy            -383.874603201319 Eh    ::
         :: gradient norm              0.000452581014 Eh/a0 ::
         :: HOMO-LUMO gap              0.000089637220 eV    ::
         ::.................................................::
         :: SCC energy              -391.495518241518 Eh    ::
         :: -> isotropic ES            0.002253286284 Eh    ::
         :: -> anisotropic ES          0.016726290002 Eh    ::
         :: -> anisotropic XC          0.133209736556 Eh    ::
         :: -> dispersion             -0.497220346902 Eh    ::
         :: repulsion energy           7.620915040198 Eh    ::
         :: add. restraining           0.000000000000 Eh    ::
         :: total charge               0.000000000082 e     ::
         :::::::::::::::::::::::::::::::::::::::::::::::::::::

           -------------------------------------------------
          |                Property Printout                |
           -------------------------------------------------

    * Orbital Energies and Occupations

         #    Occupation            Energy/Eh            Energy/eV
      -------------------------------------------------------------
         1        2.0000           -0.6634542             -18.0535
       ...           ...                  ...                  ...
       346        2.0000           -0.3837951             -10.4436
       347        2.0000           -0.3817877             -10.3890
       348        2.0000           -0.3814346             -10.3794
       349        2.0000           -0.3807368             -10.3604
       350        2.0000           -0.3771341             -10.2623
       351        2.0000           -0.3770184             -10.2592
       352        2.0000           -0.3751431             -10.2082
       353        2.0000           -0.3624990              -9.8641
       354        2.0000           -0.3613790              -9.8336
       355        2.0000           -0.3576235              -9.7314
       356        2.0000           -0.3380731              -9.1994
       357        1.3833           -0.3254705              -8.8565
       358        1.0599           -0.3248171              -8.8387 (HOMO)
       359        1.0582           -0.3248138              -8.8386 (LUMO)
       360        0.4986           -0.3236558              -8.8071
       361        0.0000           -0.3104409              -8.4475
       362                         -0.2889607              -7.8630
       363                         -0.2849581              -7.7541
       364                         -0.2831854              -7.7059
       365                         -0.2683005              -7.3008
       366                         -0.2660594              -7.2398
       367                         -0.2651486              -7.2151
       368                         -0.2614395              -7.1141
       369                         -0.2572306              -6.9996
       ...                                ...                  ...
       716                          0.7922883              21.5593
      -------------------------------------------------------------
                  HL-Gap            0.0000033 Eh            0.0001 eV
             Fermi-level           -0.3247031 Eh           -8.8356 eV

     #   Z          covCN         q      C6AA      α(0)
     1   6 C        2.922    -0.037    28.918     8.819
     2   6 C        2.912    -0.030    28.742     8.791
     3   6 C        2.922    -0.036    28.903     8.816
     4   6 C        2.976     0.006    27.873     8.660
     5   6 C        2.925    -0.045    29.108     8.848
     6   6 C        2.980     0.013    27.728     8.638
     7   6 C        2.994     0.002    27.980     8.677
     8   6 C        2.986     0.001    28.001     8.680
     9   6 C        2.925    -0.045    29.126     8.850
    10   6 C        2.974     0.012    27.745     8.640
    11   6 C        2.993    -0.000    28.023     8.684
    12   6 C        2.988     0.001    28.002     8.680
    13   6 C        2.925    -0.046    29.146     8.853
    14   6 C        2.974     0.012    27.737     8.639
    15   6 C        2.993     0.001    28.006     8.681
    16   6 C        2.988     0.001    27.998     8.680
    17   6 C        2.925    -0.046    29.146     8.853
    18   6 C        2.974     0.012    27.739     8.639
    19   6 C        2.994     0.001    27.999     8.680
    20   6 C        2.988     0.001    27.998     8.680
    21   6 C        2.925    -0.045    29.126     8.850
    22   6 C        2.974     0.012    27.737     8.639
    23   6 C        2.993     0.001    28.006     8.681
    24   6 C        2.988     0.001    28.002     8.680
    25   6 C        2.925    -0.045    29.108     8.848
    26   6 C        2.974     0.012    27.745     8.640
    27   6 C        2.993    -0.000    28.023     8.684
    28   6 C        2.986     0.001    28.001     8.680
    29   6 C        2.922    -0.037    28.918     8.819
    30   6 C        2.980     0.013    27.728     8.638
    31   6 C        2.994     0.002    27.980     8.677
    32   6 C        2.976     0.006    27.873     8.660
    33   6 C        2.912    -0.030    28.742     8.791
    34   6 C        2.922    -0.036    28.903     8.816
    35   6 C        2.979     0.004    27.927     8.669
    36   6 C        2.919    -0.037    28.915     8.818
    37   6 C        2.919    -0.037    28.926     8.820
    38   6 C        2.981     0.005    27.916     8.667
    39   6 C        2.987    -0.000    28.029     8.685
    40   6 C        2.989     0.001    27.987     8.678
    41   6 C        2.990     0.001    27.996     8.679
    42   6 C        2.986    -0.000    28.031     8.685
    43   6 C        2.989    -0.001    28.039     8.686
    44   6 C        2.987    -0.001    28.033     8.685
    45   6 C        2.988    -0.001    28.033     8.685
    46   6 C        2.988    -0.001    28.034     8.685
    47   6 C        2.990    -0.001    28.043     8.687
    48   6 C        2.989    -0.000    28.029     8.684
    49   6 C        2.989    -0.000    28.028     8.684
    50   6 C        2.989    -0.000    28.030     8.685
    51   6 C        2.990    -0.001    28.043     8.687
    52   6 C        2.989    -0.000    28.029     8.685
    53   6 C        2.989    -0.000    28.029     8.685
    54   6 C        2.989    -0.000    28.030     8.685
    55   6 C        2.989    -0.001    28.039     8.686
    56   6 C        2.989    -0.000    28.029     8.684
    57   6 C        2.989    -0.000    28.028     8.684
    58   6 C        2.988    -0.001    28.034     8.685
    59   6 C        2.987    -0.000    28.029     8.685
    60   6 C        2.987    -0.001    28.033     8.685
    61   6 C        2.988    -0.001    28.033     8.685
    62   6 C        2.986    -0.000    28.031     8.685
    63   6 C        2.979     0.004    27.927     8.669
    64   6 C        2.989     0.001    27.987     8.678
    65   6 C        2.990     0.001    27.996     8.679
    66   6 C        2.981     0.005    27.916     8.667
    67   6 C        2.919    -0.037    28.915     8.818
    68   6 C        2.919    -0.037    28.926     8.820
    69   6 C        2.981     0.004    27.919     8.667
    70   6 C        2.920    -0.037    28.923     8.819
    71   6 C        2.920    -0.037    28.923     8.819
    72   6 C        2.981     0.004    27.919     8.667
    73   6 C        2.986    -0.000    28.029     8.684
    74   6 C        2.990     0.001    27.992     8.679
    75   6 C        2.990     0.001    27.992     8.679
    76   6 C        2.986    -0.000    28.029     8.684
    77   6 C        2.988    -0.001    28.033     8.685
    78   6 C        2.987    -0.000    28.032     8.685
    79   6 C        2.987    -0.000    28.032     8.685
    80   6 C        2.988    -0.001    28.033     8.685
    81   6 C        2.989    -0.000    28.030     8.685
    82   6 C        2.988    -0.000    28.029     8.684
    83   6 C        2.988    -0.000    28.029     8.684
    84   6 C        2.989    -0.000    28.030     8.685
    85   6 C        2.989    -0.000    28.030     8.685
    86   6 C        2.989    -0.000    28.030     8.685
    87   6 C        2.989    -0.000    28.030     8.685
    88   6 C        2.989    -0.000    28.030     8.685
    89   6 C        2.988    -0.001    28.033     8.685
    90   6 C        2.988    -0.000    28.029     8.684
    91   6 C        2.988    -0.000    28.029     8.684
    92   6 C        2.988    -0.001    28.033     8.685
    93   6 C        2.986    -0.000    28.029     8.684
    94   6 C        2.987    -0.000    28.032     8.685
    95   6 C        2.987    -0.000    28.032     8.685
    96   6 C        2.986    -0.000    28.029     8.684
    97   6 C        2.981     0.004    27.919     8.667
    98   6 C        2.990     0.001    27.992     8.679
    99   6 C        2.990     0.001    27.992     8.679
   100   6 C        2.981     0.004    27.919     8.667
   101   6 C        2.920    -0.037    28.923     8.819
   102   6 C        2.920    -0.037    28.923     8.819
   103   6 C        2.981     0.005    27.916     8.667
   104   6 C        2.919    -0.037    28.926     8.820
   105   6 C        2.919    -0.037    28.915     8.818
   106   6 C        2.979     0.004    27.927     8.669
   107   6 C        2.986    -0.000    28.031     8.685
   108   6 C        2.990     0.001    27.996     8.679
   109   6 C        2.989     0.001    27.987     8.678
   110   6 C        2.987    -0.000    28.029     8.685
   111   6 C        2.988    -0.001    28.034     8.685
   112   6 C        2.988    -0.001    28.033     8.685
   113   6 C        2.987    -0.001    28.033     8.685
   114   6 C        2.989    -0.001    28.039     8.686
   115   6 C        2.989    -0.000    28.030     8.685
   116   6 C        2.989    -0.000    28.028     8.684
   117   6 C        2.989    -0.000    28.029     8.684
   118   6 C        2.990    -0.001    28.043     8.687
   119   6 C        2.989    -0.000    28.030     8.685
   120   6 C        2.989    -0.000    28.029     8.685
   121   6 C        2.989    -0.000    28.029     8.685
   122   6 C        2.990    -0.001    28.043     8.687
   123   6 C        2.988    -0.001    28.034     8.685
   124   6 C        2.989    -0.000    28.028     8.684
   125   6 C        2.989    -0.000    28.029     8.684
   126   6 C        2.989    -0.001    28.039     8.686
   127   6 C        2.986    -0.000    28.031     8.685
   128   6 C        2.988    -0.001    28.033     8.685
   129   6 C        2.987    -0.001    28.033     8.685
   130   6 C        2.987    -0.000    28.029     8.685
   131   6 C        2.981     0.005    27.916     8.667
   132   6 C        2.990     0.001    27.996     8.679
   133   6 C        2.989     0.001    27.987     8.678
   134   6 C        2.979     0.004    27.927     8.669
   135   6 C        2.919    -0.037    28.926     8.820
   136   6 C        2.919    -0.037    28.915     8.818
   137   6 C        2.976     0.006    27.873     8.660
   138   6 C        2.922    -0.036    28.903     8.816
   139   6 C        2.912    -0.030    28.742     8.791
   140   6 C        2.922    -0.037    28.918     8.819
   141   6 C        2.986     0.001    28.001     8.680
   142   6 C        2.994     0.002    27.980     8.677
   143   6 C        2.980     0.013    27.728     8.638
   144   6 C        2.925    -0.045    29.108     8.848
   145   6 C        2.988     0.001    28.002     8.680
   146   6 C        2.993    -0.000    28.023     8.684
   147   6 C        2.974     0.012    27.745     8.640
   148   6 C        2.925    -0.045    29.126     8.850
   149   6 C        2.988     0.001    27.998     8.680
   150   6 C        2.993     0.001    28.006     8.681
   151   6 C        2.974     0.012    27.737     8.639
   152   6 C        2.925    -0.046    29.146     8.853
   153   6 C        2.988     0.001    27.998     8.680
   154   6 C        2.994     0.001    27.999     8.680
   155   6 C        2.974     0.012    27.739     8.639
   156   6 C        2.925    -0.046    29.146     8.853
   157   6 C        2.988     0.001    28.002     8.680
   158   6 C        2.993     0.001    28.006     8.681
   159   6 C        2.974     0.012    27.737     8.639
   160   6 C        2.925    -0.045    29.126     8.850
   161   6 C        2.986     0.001    28.001     8.680
   162   6 C        2.993    -0.000    28.023     8.684
   163   6 C        2.974     0.012    27.745     8.640
   164   6 C        2.925    -0.045    29.108     8.848
   165   6 C        2.976     0.006    27.873     8.660
   166   6 C        2.994     0.002    27.980     8.677
   167   6 C        2.980     0.013    27.728     8.638
   168   6 C        2.922    -0.037    28.918     8.819
   169   6 C        2.922    -0.036    28.903     8.816
   170   6 C        2.912    -0.030    28.742     8.791
   171   1 H        0.926     0.031     2.569     2.506
   172   1 H        0.926     0.030     2.591     2.517
   173   1 H        0.926     0.033     2.549     2.497
   174   1 H        0.926     0.032     2.561     2.502
   175   1 H        0.926     0.031     2.566     2.505
   176   1 H        0.926     0.031     2.569     2.507
   177   1 H        0.926     0.031     2.569     2.507
   178   1 H        0.926     0.031     2.566     2.505
   179   1 H        0.926     0.032     2.561     2.502
   180   1 H        0.926     0.031     2.569     2.506
   181   1 H        0.926     0.033     2.545     2.495
   182   1 H        0.926     0.033     2.541     2.493
   183   1 H        0.926     0.033     2.541     2.493
   184   1 H        0.926     0.033     2.541     2.493
   185   1 H        0.926     0.033     2.541     2.493
   186   1 H        0.926     0.033     2.545     2.495
   187   1 H        0.926     0.033     2.549     2.497
   188   1 H        0.926     0.030     2.591     2.517
   189   1 H        0.926     0.031     2.569     2.506
   190   1 H        0.926     0.032     2.561     2.502
   191   1 H        0.926     0.031     2.566     2.505
   192   1 H        0.926     0.031     2.569     2.507
   193   1 H        0.926     0.031     2.569     2.507
   194   1 H        0.926     0.031     2.566     2.505
   195   1 H        0.926     0.032     2.561     2.502
   196   1 H        0.926     0.031     2.569     2.506
   197   1 H        0.926     0.030     2.591     2.517
   198   1 H        0.926     0.030     2.591     2.517
   199   1 H        0.926     0.033     2.549     2.497
   200   1 H        0.926     0.033     2.545     2.495
   201   1 H        0.926     0.033     2.541     2.493
   202   1 H        0.926     0.033     2.541     2.493
   203   1 H        0.926     0.033     2.541     2.493
   204   1 H        0.926     0.033     2.541     2.493
   205   1 H        0.926     0.033     2.545     2.495
   206   1 H        0.926     0.033     2.549     2.497

 Mol. C6AA /au·bohr⁶  :     921681.754302
 Mol. C8AA /au·bohr⁸  :   25539429.328844
 Mol. α(0) /au        :       1570.430014


Wiberg/Mayer (AO) data.
largest (>0.10) Wiberg bond orders for each atom

 ---------------------------------------------------------------------------
     #   Z sym  total        # sym  WBO       # sym  WBO       # sym  WBO
 ---------------------------------------------------------------------------
     1   6 C    3.892 --     2 C    1.498     6 C    1.275   171 H    0.969
     2   6 C    3.983 --     1 C    1.498     3 C    1.392   172 H    0.970
     3   6 C    3.886 --     2 C    1.392     4 C    1.377   173 H    0.962
     4   6 C    3.979 --     3 C    1.377     7 C    1.274    35 C    1.137
     5   6 C    3.782 --    10 C    1.333     6 C    1.331   174 H    0.966
     6   6 C    3.985 --     5 C    1.331     1 C    1.275     7 C    1.217
     7   6 C    3.944 --     4 C    1.274     8 C    1.238     6 C    1.217
     8   6 C    3.974 --    11 C    1.292     7 C    1.238    39 C    1.226
     9   6 C    3.751 --    14 C    1.327    10 C    1.322   175 H    0.966
    10   6 C    3.985 --     5 C    1.333     9 C    1.322    11 C    1.175
    11   6 C    3.944 --     8 C    1.292    12 C    1.260    10 C    1.175
    12   6 C    3.972 --    15 C    1.266    11 C    1.260    43 C    1.232
    13   6 C    3.760 --    14 C    1.328    18 C    1.325   176 H    0.966
    14   6 C    3.980 --    13 C    1.328     9 C    1.327    15 C    1.175
    15   6 C    3.921 --    16 C    1.275    12 C    1.266    14 C    1.175
    16   6 C    3.971 --    15 C    1.275    19 C    1.266    47 C    1.218
    17   6 C    3.760 --    22 C    1.328    18 C    1.325   177 H    0.966
    18   6 C    3.980 --    13 C    1.325    17 C    1.325    19 C    1.179
    19   6 C    3.912 --    16 C    1.266    20 C    1.266    18 C    1.179
    20   6 C    3.971 --    23 C    1.275    19 C    1.266    51 C    1.218
    21   6 C    3.751 --    22 C    1.327    26 C    1.322   178 H    0.966
    22   6 C    3.980 --    17 C    1.328    21 C    1.327    23 C    1.175
    23   6 C    3.921 --    20 C    1.275    24 C    1.266    22 C    1.175
    24   6 C    3.972 --    23 C    1.266    27 C    1.260    55 C    1.232
    25   6 C    3.782 --    26 C    1.333    30 C    1.331   179 H    0.966
    26   6 C    3.985 --    25 C    1.333    21 C    1.322    27 C    1.175
    27   6 C    3.944 --    28 C    1.292    24 C    1.260    26 C    1.175
    28   6 C    3.974 --    27 C    1.292    31 C    1.238    59 C    1.226
    29   6 C    3.892 --    33 C    1.498    30 C    1.275   180 H    0.969
    30   6 C    3.985 --    25 C    1.331    29 C    1.275    31 C    1.217
    31   6 C    3.944 --    32 C    1.274    28 C    1.238    30 C    1.217
    32   6 C    3.979 --    34 C    1.377    31 C    1.274    63 C    1.137
    33   6 C    3.983 --    29 C    1.498    34 C    1.392   198 H    0.970
    34   6 C    3.886 --    33 C    1.392    32 C    1.377   199 H    0.962
    35   6 C    3.947 --    36 C    1.339    40 C    1.280     4 C    1.137
    36   6 C    3.969 --    37 C    1.496    35 C    1.339   181 H    0.961
    37   6 C    3.952 --    36 C    1.496    38 C    1.329   182 H    0.960
    38   6 C    3.964 --    37 C    1.329    41 C    1.282    69 C    1.155
    39   6 C    3.935 --    44 C    1.279     8 C    1.226    40 C    1.226
    40   6 C    3.981 --    35 C    1.280    41 C    1.250    39 C    1.226
    41   6 C    3.976 --    38 C    1.282    40 C    1.250    42 C    1.220
    42   6 C    3.961 --    45 C    1.274    73 C    1.248    41 C    1.220
    43   6 C    3.946 --    44 C    1.256    48 C    1.249    12 C    1.232
    44   6 C    3.969 --    39 C    1.279    43 C    1.256    45 C    1.214
    45   6 C    3.958 --    42 C    1.274    46 C    1.255    44 C    1.214
    46   6 C    3.964 --    45 C    1.255    77 C    1.248    49 C    1.244
    47   6 C    3.950 --    48 C    1.268    52 C    1.253    16 C    1.218
    48   6 C    3.966 --    47 C    1.268    43 C    1.249    49 C    1.232
    49   6 C    3.952 --    50 C    1.265    46 C    1.244    48 C    1.232
    50   6 C    3.961 --    49 C    1.265    53 C    1.250    81 C    1.231
    51   6 C    3.950 --    56 C    1.268    52 C    1.253    20 C    1.218
    52   6 C    3.967 --    47 C    1.253    51 C    1.253    53 C    1.242
    53   6 C    3.953 --    54 C    1.250    50 C    1.250    52 C    1.242
    54   6 C    3.961 --    57 C    1.265    53 C    1.250    85 C    1.231
    55   6 C    3.946 --    60 C    1.256    56 C    1.249    24 C    1.232
    56   6 C    3.966 --    51 C    1.268    55 C    1.249    57 C    1.232
    57   6 C    3.952 --    54 C    1.265    58 C    1.244    56 C    1.232
    58   6 C    3.964 --    61 C    1.255    89 C    1.248    57 C    1.244
    59   6 C    3.935 --    60 C    1.279    28 C    1.226    64 C    1.226
    60   6 C    3.969 --    59 C    1.279    55 C    1.256    61 C    1.214
    61   6 C    3.958 --    62 C    1.274    58 C    1.255    60 C    1.214
    62   6 C    3.961 --    61 C    1.274    93 C    1.248    65 C    1.220
    63   6 C    3.947 --    67 C    1.339    64 C    1.280    32 C    1.137
    64   6 C    3.981 --    63 C    1.280    65 C    1.250    59 C    1.226
    65   6 C    3.976 --    66 C    1.282    64 C    1.250    62 C    1.220
    66   6 C    3.964 --    68 C    1.329    65 C    1.282    97 C    1.155
    67   6 C    3.969 --    68 C    1.496    63 C    1.339   200 H    0.961
    68   6 C    3.952 --    67 C    1.496    66 C    1.329   201 H    0.960
    69   6 C    3.957 --    70 C    1.324    74 C    1.283    38 C    1.155
    70   6 C    3.961 --    71 C    1.507    69 C    1.324   183 H    0.960
    71   6 C    3.961 --    70 C    1.507    72 C    1.324   184 H    0.960
    72   6 C    3.957 --    71 C    1.324    75 C    1.283   103 C    1.155
    73   6 C    3.955 --    78 C    1.271    42 C    1.248    74 C    1.221
    74   6 C    3.978 --    69 C    1.283    75 C    1.251    73 C    1.221
    75   6 C    3.978 --    72 C    1.283    74 C    1.251    76 C    1.221
    76   6 C    3.955 --    79 C    1.271   107 C    1.248    75 C    1.221
    77   6 C    3.960 --    78 C    1.256    46 C    1.248    82 C    1.241
    78   6 C    3.961 --    73 C    1.271    77 C    1.256    79 C    1.217
    79   6 C    3.961 --    76 C    1.271    80 C    1.256    78 C    1.217
    80   6 C    3.960 --    79 C    1.256   111 C    1.248    83 C    1.241
    81   6 C    3.957 --    82 C    1.265    86 C    1.248    50 C    1.231
    82   6 C    3.958 --    81 C    1.265    77 C    1.241    83 C    1.238
    83   6 C    3.958 --    84 C    1.265    80 C    1.241    82 C    1.238
    84   6 C    3.957 --    83 C    1.265    87 C    1.248   115 C    1.231
    85   6 C    3.957 --    90 C    1.265    86 C    1.248    54 C    1.231
    86   6 C    3.960 --    85 C    1.248    81 C    1.248    87 C    1.248
    87   6 C    3.960 --    88 C    1.248    84 C    1.248    86 C    1.248
    88   6 C    3.957 --    91 C    1.265    87 C    1.248   119 C    1.231
    89   6 C    3.960 --    94 C    1.256    58 C    1.248    90 C    1.241
    90   6 C    3.958 --    85 C    1.265    89 C    1.241    91 C    1.238
    91   6 C    3.958 --    88 C    1.265    92 C    1.241    90 C    1.238
    92   6 C    3.960 --    95 C    1.256   123 C    1.248    91 C    1.241
    93   6 C    3.955 --    94 C    1.271    62 C    1.248    98 C    1.221
    94   6 C    3.961 --    93 C    1.271    89 C    1.256    95 C    1.217
    95   6 C    3.961 --    96 C    1.271    92 C    1.256    94 C    1.217
    96   6 C    3.955 --    95 C    1.271   127 C    1.248    99 C    1.221
    97   6 C    3.957 --   101 C    1.324    98 C    1.283    66 C    1.155
    98   6 C    3.978 --    97 C    1.283    99 C    1.251    93 C    1.221
    99   6 C    3.978 --   100 C    1.283    98 C    1.251    96 C    1.221
   100   6 C    3.957 --   102 C    1.324    99 C    1.283   131 C    1.155
   101   6 C    3.961 --   102 C    1.507    97 C    1.324   202 H    0.960
   102   6 C    3.961 --   101 C    1.507   100 C    1.324   203 H    0.960
   103   6 C    3.964 --   104 C    1.329   108 C    1.282    72 C    1.155
   104   6 C    3.952 --   105 C    1.496   103 C    1.329   185 H    0.960
   105   6 C    3.969 --   104 C    1.496   106 C    1.339   186 H    0.961
   106   6 C    3.947 --   105 C    1.339   109 C    1.280   137 C    1.137
   107   6 C    3.961 --   112 C    1.274    76 C    1.248   108 C    1.220
   108   6 C    3.976 --   103 C    1.282   109 C    1.250   107 C    1.220
   109   6 C    3.981 --   106 C    1.280   108 C    1.250   110 C    1.226
   110   6 C    3.935 --   113 C    1.279   141 C    1.226   109 C    1.226
   111   6 C    3.964 --   112 C    1.255    80 C    1.248   116 C    1.244
   112   6 C    3.958 --   107 C    1.274   111 C    1.255   113 C    1.214
   113   6 C    3.969 --   110 C    1.279   114 C    1.256   112 C    1.214
   114   6 C    3.946 --   113 C    1.256   117 C    1.249   145 C    1.232
   115   6 C    3.961 --   116 C    1.265   120 C    1.250    84 C    1.231
   116   6 C    3.952 --   115 C    1.265   111 C    1.244   117 C    1.232
   117   6 C    3.966 --   118 C    1.268   114 C    1.249   116 C    1.232
   118   6 C    3.950 --   117 C    1.268   121 C    1.253   149 C    1.218
   119   6 C    3.961 --   124 C    1.265   120 C    1.250    88 C    1.231
   120   6 C    3.953 --   119 C    1.250   115 C    1.250   121 C    1.242
   121   6 C    3.967 --   118 C    1.253   122 C    1.253   120 C    1.242
   122   6 C    3.950 --   125 C    1.268   121 C    1.253   153 C    1.218
   123   6 C    3.964 --   128 C    1.255    92 C    1.248   124 C    1.244
   124   6 C    3.952 --   119 C    1.265   123 C    1.244   125 C    1.232
   125   6 C    3.966 --   122 C    1.268   126 C    1.249   124 C    1.232
   126   6 C    3.946 --   129 C    1.256   125 C    1.249   157 C    1.232
   127   6 C    3.961 --   128 C    1.274    96 C    1.248   132 C    1.220
   128   6 C    3.958 --   127 C    1.274   123 C    1.255   129 C    1.214
   129   6 C    3.969 --   130 C    1.279   126 C    1.256   128 C    1.214
   130   6 C    3.935 --   129 C    1.279   161 C    1.226   133 C    1.226
   131   6 C    3.964 --   135 C    1.329   132 C    1.282   100 C    1.155
   132   6 C    3.976 --   131 C    1.282   133 C    1.250   127 C    1.220
   133   6 C    3.981 --   134 C    1.280   132 C    1.250   130 C    1.226
   134   6 C    3.947 --   136 C    1.339   133 C    1.280   165 C    1.137
   135   6 C    3.952 --   136 C    1.496   131 C    1.329   204 H    0.960
   136   6 C    3.969 --   135 C    1.496   134 C    1.339   205 H    0.961
   137   6 C    3.979 --   138 C    1.377   142 C    1.274   106 C    1.137
   138   6 C    3.886 --   139 C    1.392   137 C    1.377   187 H    0.962
   139   6 C    3.983 --   140 C    1.498   138 C    1.392   188 H    0.970
   140   6 C    3.892 --   139 C    1.498   143 C    1.275   189 H    0.969
   141   6 C    3.974 --   146 C    1.292   142 C    1.238   110 C    1.226
   142   6 C    3.944 --   137 C    1.274   141 C    1.238   143 C    1.217
   143   6 C    3.985 --   144 C    1.331   140 C    1.275   142 C    1.217
   144   6 C    3.782 --   147 C    1.333   143 C    1.331   190 H    0.966
   145   6 C    3.972 --   150 C    1.266   146 C    1.260   114 C    1.232
   146   6 C    3.944 --   141 C    1.292   145 C    1.260   147 C    1.175
   147   6 C    3.985 --   144 C    1.333   148 C    1.322   146 C    1.175
   148   6 C    3.751 --   151 C    1.327   147 C    1.322   191 H    0.966
   149   6 C    3.971 --   150 C    1.275   154 C    1.266   118 C    1.218
   150   6 C    3.921 --   149 C    1.275   145 C    1.266   151 C    1.175
   151   6 C    3.980 --   152 C    1.328   148 C    1.327   150 C    1.175
   152   6 C    3.760 --   151 C    1.328   155 C    1.325   192 H    0.966
   153   6 C    3.971 --   158 C    1.275   154 C    1.266   122 C    1.218
   154   6 C    3.912 --   149 C    1.266   153 C    1.266   155 C    1.179
   155   6 C    3.980 --   152 C    1.325   156 C    1.325   154 C    1.179
   156   6 C    3.760 --   159 C    1.328   155 C    1.325   193 H    0.966
   157   6 C    3.972 --   158 C    1.266   162 C    1.260   126 C    1.232
   158   6 C    3.921 --   153 C    1.275   157 C    1.266   159 C    1.175
   159   6 C    3.980 --   156 C    1.328   160 C    1.327   158 C    1.175
   160   6 C    3.751 --   159 C    1.327   163 C    1.322   194 H    0.966
   161   6 C    3.974 --   162 C    1.292   166 C    1.238   130 C    1.226
   162   6 C    3.944 --   161 C    1.292   157 C    1.260   163 C    1.175
   163   6 C    3.985 --   164 C    1.333   160 C    1.322   162 C    1.175
   164   6 C    3.782 --   163 C    1.333   167 C    1.331   195 H    0.966
   165   6 C    3.979 --   169 C    1.377   166 C    1.274   134 C    1.137
   166   6 C    3.944 --   165 C    1.274   161 C    1.238   167 C    1.217
   167   6 C    3.985 --   164 C    1.331   168 C    1.275   166 C    1.217
   168   6 C    3.892 --   170 C    1.498   167 C    1.275   196 H    0.969
   169   6 C    3.886 --   170 C    1.392   165 C    1.377   206 H    0.962
   170   6 C    3.983 --   168 C    1.498   169 C    1.392   197 H    0.970
   171   1 H    0.998 --     1 C    0.969
   172   1 H    0.998 --     2 C    0.970
   173   1 H    0.998 --     3 C    0.962
   174   1 H    0.998 --     5 C    0.966
   175   1 H    0.998 --     9 C    0.966
   176   1 H    0.998 --    13 C    0.966
   177   1 H    0.998 --    17 C    0.966
   178   1 H    0.998 --    21 C    0.966
   179   1 H    0.998 --    25 C    0.966
   180   1 H    0.998 --    29 C    0.969
   181   1 H    0.998 --    36 C    0.961
   182   1 H    0.998 --    37 C    0.960
   183   1 H    0.998 --    70 C    0.960
   184   1 H    0.998 --    71 C    0.960
   185   1 H    0.998 --   104 C    0.960
   186   1 H    0.998 --   105 C    0.961
   187   1 H    0.998 --   138 C    0.962
   188   1 H    0.998 --   139 C    0.970
   189   1 H    0.998 --   140 C    0.969
   190   1 H    0.998 --   144 C    0.966
   191   1 H    0.998 --   148 C    0.966
   192   1 H    0.998 --   152 C    0.966
   193   1 H    0.998 --   156 C    0.966
   194   1 H    0.998 --   160 C    0.966
   195   1 H    0.998 --   164 C    0.966
   196   1 H    0.998 --   168 C    0.969
   197   1 H    0.998 --   170 C    0.970
   198   1 H    0.998 --    33 C    0.970
   199   1 H    0.998 --    34 C    0.962
   200   1 H    0.998 --    67 C    0.961
   201   1 H    0.998 --    68 C    0.960
   202   1 H    0.998 --   101 C    0.960
   203   1 H    0.998 --   102 C    0.960
   204   1 H    0.998 --   135 C    0.960
   205   1 H    0.998 --   136 C    0.961
   206   1 H    0.998 --   169 C    0.962
 ---------------------------------------------------------------------------

Topologies differ in total number of bonds
Writing topology from bond orders to xtbtopo.mol

molecular dipole:
                 x           y           z       tot (Debye)
 q only:        0.000      -0.000       0.001
   full:        0.000      -0.000       0.000       0.000
molecular quadrupole (traceless):
                xx          xy          yy          xz          yz          zz
 q only:       10.218      -0.000      29.305       0.010       0.000     -39.523
  q+dip:       54.442      -0.000      74.775       0.007      -0.000    -129.217
   full:       22.626      -0.000      40.594       0.024       0.000     -63.220


           -------------------------------------------------
          | TOTAL ENERGY             -383.874603201319 Eh   |
          | GRADIENT NORM               0.000452581014 Eh/α |
          | HOMO-LUMO GAP               0.000089637220 eV   |
           -------------------------------------------------

------------------------------------------------------------------------
 * finished run on 2025/12/08 at 00:35:43.844     
------------------------------------------------------------------------
 total:
 * wall-time:     0 d,  0 h,  0 min,  1.084 sec
 *  cpu-time:     0 d,  0 h,  0 min, 15.078 sec
 * ratio c/w:    13.910 speedup
 SCF:
 * wall-time:     0 d,  0 h,  0 min,  0.954 sec
 *  cpu-time:     0 d,  0 h,  0 min, 13.609 sec
 * ratio c/w:    14.266 speedup

normal termination of xtb
