206
 energy: -383.849523266392 gnorm: 0.051690590675 xtb: 6.7.1pre (5071a88)
C          -10.02034300000000       -8.59744100000000       -0.01742100000000
C           -9.34024800000000       -9.80072500000000       -0.01606300000000
C           -7.94000000000000       -9.82458500000000       -0.00936100000000
C           -7.18560000000000       -8.63898500000000       -0.00375000000000
C           -9.97954800000000       -6.13888000000000       -0.01526500000000
C           -9.30719000000000       -7.37190700000000       -0.01326100000000
C           -7.87011900000000       -7.39477600000000       -0.00682200000000
C           -7.14873100000000       -6.15944300000000       -0.00466100000000
C           -9.97065000000000       -3.68881100000000       -0.01407800000000
C           -9.29219400000000       -4.91553500000000       -0.01235400000000
C           -7.84652600000000       -4.93089900000000       -0.00746700000000
C           -7.13698800000000       -3.69814100000000       -0.00559400000000
C           -9.97137200000000       -1.23154600000000       -0.01350400000000
C           -9.29449100000000       -2.45530900000000       -0.01197700000000
C           -7.84689800000000       -2.46397900000000       -0.00832100000000
C           -7.13764000000000       -1.23425800000000       -0.00573400000000
C           -9.97137200000000        1.23154500000000       -0.01349800000000
C           -9.29686100000000        0.00000000000000       -0.01178400000000
C           -7.85109200000000        0.00000000000000       -0.00863100000000
C           -7.13764000000000        1.23425800000000       -0.00573000000000
C           -9.97065000000000        3.68881000000000       -0.01406000000000
C           -9.29449100000000        2.45530900000000       -0.01196600000000
C           -7.84689800000000        2.46397900000000       -0.00831100000000
C           -7.13698800000000        3.69814100000000       -0.00558100000000
C           -9.97954900000000        6.13888000000000       -0.01523500000000
C           -9.29219400000000        4.91553500000000       -0.01233200000000
C           -7.84652600000000        4.93089900000000       -0.00744800000000
C           -7.14873100000000        6.15944300000000       -0.00463800000000
C          -10.02034300000000        8.59744100000000       -0.01738000000000
C           -9.30719000000000        7.37190700000000       -0.01322800000000
C           -7.87011900000000        7.39477600000000       -0.00679300000000
C           -7.18560000000000        8.63898500000000       -0.00371800000000
C           -9.34024900000000        9.80072500000000       -0.01601900000000
C           -7.94000000000000        9.82458500000000       -0.00932100000000
C           -5.72725100000000       -8.63957700000000        0.00490700000000
C           -4.99058100000000       -9.83704000000000        0.01397400000000
C           -3.61360400000000       -9.83654000000000        0.01967300000000
C           -2.87359200000000       -8.63814400000000        0.01640400000000
C           -5.71798200000000       -6.16218100000000       -0.00008100000000
C           -5.01137000000000       -7.40897800000000        0.00453300000000
C           -3.58014700000000       -7.40763500000000        0.00989400000000
C           -2.85913500000000       -6.16618000000000        0.00865400000000
C           -5.70932700000000       -3.69917100000000       -0.00302500000000
C           -5.00275300000000       -4.93626500000000        0.00113200000000
C           -3.56672100000000       -4.93698500000000        0.00313100000000
C           -2.85399800000000       -3.70397400000000        0.00559500000000
C           -5.70406700000000       -1.23395400000000       -0.00479400000000
C           -4.99507000000000       -2.46377200000000        0.00037300000000
C           -3.56540700000000       -2.46541500000000       -0.00130800000000
C           -2.85481600000000       -1.23598000000000        0.00485100000000
C           -5.70406700000000        1.23395300000000       -0.00479000000000
C           -4.99231300000000        0.00000000000000        0.00032400000000
C           -3.56656400000000        0.00000000000000       -0.00278600000000
C           -2.85481600000000        1.23598000000000        0.00485300000000
C           -5.70932700000000        3.69917100000000       -0.00301400000000
C           -4.99507000000000        2.46377100000000        0.00037900000000
C           -3.56540700000000        2.46541500000000       -0.00130300000000
C           -2.85399800000000        3.70397400000000        0.00560100000000
C           -5.71798200000000        6.16218000000000       -0.00006200000000
C           -5.00275300000000        4.93626400000000        0.00114500000000
C           -3.56672100000000        4.93698500000000        0.00314100000000
C           -2.85913500000000        6.16618000000000        0.00866400000000
C           -5.72725200000000        8.63957700000000        0.00493400000000
C           -5.01137100000000        7.40897800000000        0.00455300000000
C           -3.58014800000000        7.40763400000000        0.00990900000000
C           -2.87359200000000        8.63814300000000        0.01641800000000
C           -4.99058200000000        9.83704000000000        0.01400200000000
C           -3.61360400000000        9.83654000000000        0.01969400000000
C           -1.42427700000000       -8.63797200000000        0.01982500000000
C           -0.68719200000000       -9.83858400000000        0.02558400000000
C            0.68720300000000       -9.83857900000000        0.02687000000000
C            1.42428700000000       -8.63796200000000        0.02204400000000
C           -1.43186000000000       -6.16603400000000        0.01029900000000
C           -0.71522200000000       -7.40822400000000        0.01591500000000
C            0.71522900000000       -7.40822000000000        0.01678700000000
C            1.43186500000000       -6.16602500000000        0.01243600000000
C           -1.42828700000000       -3.70418400000000        0.00283400000000
C           -0.71824900000000       -4.93829300000000        0.00981100000000
C            0.71824600000000       -4.93830000000000        0.00704000000000
C            1.42828600000000       -3.70417400000000        0.00747400000000
C           -1.42390000000000       -1.23602400000000       -0.00117400000000
C           -0.71435500000000       -2.46619400000000        0.00730700000000
C            0.71434300000000       -2.46620200000000        0.00023800000000
C            1.42389500000000       -1.23601900000000        0.00561600000000
C           -1.42390000000000        1.23602400000000       -0.00117300000000
C           -0.71226800000000        0.00000000000000        0.00653800000000
C            0.71225400000000        0.00000000000000       -0.00198800000000
C            1.42389500000000        1.23601900000000        0.00561500000000
C           -1.42828700000000        3.70418400000000        0.00283700000000
C           -0.71435500000000        2.46619400000000        0.00730800000000
C            0.71434300000000        2.46620200000000        0.00023700000000
C            1.42828600000000        3.70417400000000        0.00747100000000
C           -1.43186100000000        6.16603400000000        0.01030400000000
C           -0.71824900000000        4.93829300000000        0.00981300000000
C            0.71824600000000        4.93830000000000        0.00703800000000
C            1.43186500000000        6.16602500000000        0.01243100000000
C           -1.42427700000000        8.63797200000000        0.01983200000000
C           -0.71522200000000        7.40822400000000        0.01591800000000
C            0.71522900000000        7.40822000000000        0.01678400000000
C            1.42428700000000        8.63796200000000        0.02203700000000
C           -0.68719200000000        9.83858400000000        0.02558700000000
C            0.68720300000000        9.83857900000000        0.02686600000000
C            2.87360600000000       -8.63812000000000        0.02144400000000
C            3.61362500000000       -9.83650100000000        0.02762500000000
C            4.99060700000000       -9.83699700000000        0.02325400000000
C            5.72727400000000       -8.63954900000000        0.01205000000000
C            2.85913800000000       -6.16617300000000        0.00966200000000
C            3.58015800000000       -7.40761800000000        0.01343500000000
C            5.01138500000000       -7.40895800000000        0.00925700000000
C            5.71798800000000       -6.16216900000000        0.00195800000000
C            2.85398600000000       -3.70397800000000        0.00110900000000
C            3.56672500000000       -4.93697400000000        0.00549700000000
C            5.00275000000000       -4.93625900000000        0.00031100000000
C            5.70932400000000       -3.69916500000000       -0.00376800000000
C            2.85479500000000       -1.23598300000000       -0.00359500000000
C            3.56540800000000       -2.46540800000000        0.00191600000000
C            4.99505200000000       -2.46377300000000       -0.00587000000000
C            5.70406100000000       -1.23395100000000       -0.00635700000000
C            2.85479500000000        1.23598300000000       -0.00359700000000
C            3.56656400000000        0.00000000000000        0.00081600000000
C            4.99228800000000        0.00000000000000       -0.00817700000000
C            5.70406100000000        1.23395200000000       -0.00636100000000
C            2.85398600000000        3.70397800000000        0.00110400000000
C            3.56540800000000        2.46540800000000        0.00191100000000
C            4.99505200000000        2.46377300000000       -0.00587700000000
C            5.70932400000000        3.69916500000000       -0.00377900000000
C            2.85913800000000        6.16617300000000        0.00965200000000
C            3.56672500000000        4.93697400000000        0.00548700000000
C            5.00275000000000        4.93625900000000        0.00029700000000
C            5.71798800000000        6.16216900000000        0.00194000000000
C            2.87360500000000        8.63812000000000        0.02143000000000
C            3.58015800000000        7.40761800000000        0.01342100000000
C            5.01138500000000        7.40895800000000        0.00923700000000
C            5.72727400000000        8.63955000000000        0.01202400000000
C            3.61362500000000        9.83650100000000        0.02760400000000
C            4.99060700000000        9.83699700000000        0.02322700000000
C            7.18562700000000       -8.63896300000000        0.00407900000000
C            7.94004100000000       -9.82456500000000        0.00213100000000
C            9.34028600000000       -9.80071200000000       -0.00526700000000
C           10.02036300000000       -8.59743100000000       -0.01116900000000
C            7.14873600000000       -6.15943200000000       -0.00337300000000
C            7.87013000000000       -7.39476200000000       -0.00321300000000
C            9.30719800000000       -7.37189800000000       -0.01041300000000
C            9.97954000000000       -6.13887800000000       -0.01687000000000
C            7.13697400000000       -3.69813900000000       -0.00991500000000
C            7.84651800000000       -4.93089400000000       -0.00991000000000
C            9.29218000000000       -4.91553300000000       -0.01632600000000
C            9.97062200000000       -3.68881300000000       -0.02224900000000
C            7.13761500000000       -1.23425800000000       -0.01368700000000
C            7.84687900000000       -2.46397800000000       -0.01447400000000
C            9.29446300000000       -2.45531000000000       -0.02097100000000
C            9.97133300000000       -1.23154700000000       -0.02554200000000
C            7.13761500000000        1.23425800000000       -0.01369200000000
C            7.85107000000000        0.00000000000000       -0.01602400000000
C            9.29682700000000        0.00000000000000       -0.02274500000000
C            9.97133300000000        1.23154800000000       -0.02554800000000
C            7.13697400000000        3.69813900000000       -0.00992900000000
C            7.84687900000000        2.46397800000000       -0.01448300000000
C            9.29446300000000        2.45531000000000       -0.02098200000000
C            9.97062100000000        3.68881300000000       -0.02226600000000
C            7.14873600000000        6.15943200000000       -0.00339600000000
C            7.84651800000000        4.93089400000000       -0.00992900000000
C            9.29218000000000        4.91553300000000       -0.01634800000000
C            9.97954000000000        6.13887800000000       -0.01690000000000
C            7.18562700000000        8.63896300000000        0.00404700000000
C            7.87013000000000        7.39476200000000       -0.00324200000000
C            9.30719800000000        7.37189800000000       -0.01044600000000
C           10.02036200000000        8.59743200000000       -0.01121000000000
C            7.94004100000000        9.82456500000000        0.00209100000000
C            9.34028600000000        9.80071200000000       -0.00531200000000
H          -11.10654900000000       -8.57360500000000       -0.02227400000000
H           -9.88865800000000      -10.73804200000000       -0.02020400000000
H           -7.44752300000000      -10.78913400000000       -0.00963100000000
H          -11.06668300000000       -6.13209400000000       -0.01953100000000
H          -11.05777100000000       -3.69063100000000       -0.01760200000000
H          -11.05855700000000       -1.23301400000000       -0.01678900000000
H          -11.05855700000000        1.23301400000000       -0.01678300000000
H          -11.05777100000000        3.69063100000000       -0.01758300000000
H          -11.06668300000000        6.13209400000000       -0.01949900000000
H          -11.10654900000000        8.57360500000000       -0.02223000000000
H           -5.49874800000000      -10.79326100000000        0.01773200000000
H           -3.10827400000000      -10.79373600000000        0.02639200000000
H           -1.19398200000000      -10.79496200000000        0.02898800000000
H            1.19399500000000      -10.79495500000000        0.03046700000000
H            3.10829800000000      -10.79368500000000        0.03623600000000
H            5.49877500000000      -10.79321000000000        0.02870300000000
H            7.44757900000000      -10.78911500000000        0.00566100000000
H            9.88870600000000      -10.73803200000000       -0.00647500000000
H           11.10656500000000       -8.57360000000000       -0.01673000000000
H           11.06667000000000       -6.13209700000000       -0.02216600000000
H           11.05773800000000       -3.69063800000000       -0.02710800000000
H           11.05851500000000       -1.23301700000000       -0.02994900000000
H           11.05851500000000        1.23301700000000       -0.02995500000000
H           11.05773800000000        3.69063800000000       -0.02712700000000
H           11.06667000000000        6.13209700000000       -0.02219800000000
H           11.10656500000000        8.57360000000000       -0.01677500000000
H            9.88870600000000       10.73803200000000       -0.00652700000000
H           -9.88865900000000       10.73804200000000       -0.02015400000000
H           -7.44752300000000       10.78913300000000       -0.00958800000000
H           -5.49874800000000       10.79326100000000        0.01776400000000
H           -3.10827400000000       10.79373600000000        0.02641400000000
H           -1.19398300000000       10.79496200000000        0.02899300000000
H            1.19399400000000       10.79495500000000        0.03046000000000
H            3.10829800000000       10.79368500000000        0.03621500000000
H            5.49877500000000       10.79321000000000        0.02867200000000
H            7.44757900000000       10.78911500000000        0.00561700000000
206
 energy: -383.863899015592 gnorm: 0.024226253765 xtb: 6.7.1pre (5071a88)
C           -9.99817329164975       -8.57943725039847       -0.01730240735037
C           -9.32242991089903       -9.77568326441307       -0.01599473969363
C           -7.93021092876140       -9.79975045071697       -0.00931040845305
C           -7.17453895046819       -8.62091094102601       -0.00364143159666
C           -9.95729131909620       -6.12870545435532       -0.01519264130158
C           -9.28739183336892       -7.35796243197331       -0.01315966162712
C           -7.85631750075420       -7.37951955126538       -0.00685952655354
C           -7.13562285998191       -6.14893807829880       -0.00455442421953
C           -9.94537171928787       -3.68171010804224       -0.01408852081362
C           -9.27013844563433       -4.90845981472910       -0.01221879035910
C           -7.83085110118851       -4.92112284753154       -0.00746748665268
C           -7.12246251459486       -3.69116720098755       -0.00573833161817
C           -9.94292156487906       -1.22861174515506       -0.01362979603698
C           -9.26669592177219       -2.45342463707988       -0.01190328793116
C           -7.82668474742012       -2.45921546402820       -0.00812647432775
C           -7.12136622141162       -1.23144267556811       -0.00621386720744
C           -9.94291884923662        1.22861978883229       -0.01362402328558
C           -9.26628988368192        0.00000406181936       -0.01178081193016
C           -7.82793214538113        0.00000405299525       -0.00830457698116
C           -7.12136437108861        1.23144810310791       -0.00620955731001
C           -9.94536572122580        3.68171271386955       -0.01407101094107
C           -9.26669142609304        2.45343050007815       -0.01189236866771
C           -7.82668126111078        2.45922122837181       -0.00811690474168
C           -7.12245841740451        3.69116994700643       -0.00572523474667
C           -9.95728732536898        6.12870094381917       -0.01516339322468
C           -9.27013296787439        4.90845970981689       -0.01219685376003
C           -7.83084720876608        4.92112327470760       -0.00744841573682
C           -7.13562010447252        6.14893713789609       -0.00453212914522
C           -9.99817442691450        8.57942867233473       -0.01726198982485
C           -9.28739050933874        7.35795673554111       -0.01312680210092
C           -7.85631733295066        7.37951463391430       -0.00683056769223
C           -7.17453995453907        8.62090583565070       -0.00360948233705
C           -9.32243427662732        9.77567515552306       -0.01595102597311
C           -7.93021598608197        9.79974028538042       -0.00927090311713
C           -5.72095042867112       -8.61955958820789        0.00480132977878
C           -4.98469317127378       -9.81116633181101        0.01393444384984
C           -3.61210202447205       -9.81143625033032        0.01956915566132
C           -2.87024948650747       -8.61954907211516        0.01637253535105
C           -5.70835623170360       -6.15189292543621       -0.00006742532389
C           -5.00458953676855       -7.39410861210158        0.00463114072884
C           -3.57671835213470       -7.39302814567869        0.00975450802554
C           -2.85552595549829       -6.15670988947574        0.00838463443919
C           -5.69797537625902       -3.69391827899274       -0.00241801633846
C           -4.99434330340323       -4.92871044982666        0.00078311940398
C           -3.56206590517715       -4.92932074836198        0.00380927648456
C           -2.84978702819632       -3.69860269659608        0.00406210597040
C           -5.69233363172521       -1.23222952333242       -0.00363383390816
C           -4.98587503315497       -2.46142771370984       -0.00087002727796
C           -3.55917371281370       -2.46262080964617        0.00056092138358
C           -2.84983209278062       -1.23404266175741        0.00231577701723
C           -5.69233227274876        1.23223125330828       -0.00363020435792
C           -4.98294365118435        0.00000071108962       -0.00135304143788
C           -3.55947274667630        0.00000041770308       -0.00044046670964
C           -2.84983151351424        1.23404316809487        0.00231771539412
C           -5.69797249187466        3.69392014607452       -0.00240713856827
C           -4.98587314774166        2.46142879914324       -0.00086375482466
C           -3.55917235226071        2.46262167745219        0.00056570938553
C           -2.84978571760759        3.69860337414060        0.00406791394024
C           -5.70835431364663        6.15189368301206       -0.00004882374973
C           -4.99434104586787        4.92871154814814        0.00079613975966
C           -3.56206417246565        4.92932153834002        0.00381888231859
C           -2.85552476683562        6.15671065647818        0.00839430403304
C           -5.72095136657334        8.61955949361591        0.00482781726692
C           -5.00458894819341        7.39410962243344        0.00465117595088
C           -3.57671802123453        7.39302832526036        0.00976909807679
C           -2.87024920649209        8.61954916978581        0.01638657942973
C           -4.98469423707669        9.81116620393235        0.01396149230182
C           -3.61210261952071        9.81143603937692        0.01958998004890
C           -1.42383497047361       -8.61866736669207        0.01958971606135
C           -0.68515251875069       -9.81262300667740        0.02543299512215
C            0.68516490919611       -9.81261524638093        0.02659111044692
C            1.42384517370343       -8.61865416700602        0.02191774840006
C           -1.43021330029908       -6.15622444147747        0.01058851762855
C           -0.71381691682260       -7.39343319735534        0.01578214068798
C            0.71382308163186       -7.39342792148936        0.01662089927903
C            1.43021730186252       -6.15621739017974        0.01200516570190
C           -1.42592269699486       -3.69892095368832        0.00463754467248
C           -0.71665459689738       -4.93091580349752        0.00863862450014
C            0.71665316789030       -4.93091715892010        0.00807540393339
C            1.42591876306763       -3.69891762414678        0.00564833561959
C           -1.42177143743893       -1.23420593691512        0.00165959861918
C           -0.71323126124483       -2.46364756277612        0.00475132406035
C            0.71322315103351       -2.46364931668444        0.00274785302622
C            1.42176378127735       -1.23420467536342        0.00278158277064
C           -1.42177096013766        1.23420612232400        0.00166057334070
C           -0.71150067167903        0.00000000703813        0.00351165008508
C            0.71149113574446       -0.00000001687245        0.00101753999223
C            1.42176418083731        1.23420449544525        0.00278063010981
C           -1.42592161599314        3.69892121973026        0.00464047921325
C           -0.71323055662386        2.46364764747754        0.00475228611632
C            0.71322382044677        2.46364925981759        0.00274689182394
C            1.42591965626042        3.69891746483640        0.00564534275436
C           -1.43021277303426        6.15622475930840        0.01059348843184
C           -0.71665363089207        4.93091603754711        0.00864057902041
C            0.71665405972529        4.93091708033244        0.00807337213139
C            1.43021815371066        6.15621726022349        0.01200011750570
C           -1.42383463343256        8.61866765526505        0.01959640585455
C           -0.71381626503136        7.39343349980708        0.01578506050771
C            0.71382367099034        7.39342777487837        0.01661767646409
C            1.42384560568385        8.61865404955261        0.02191043009339
C           -0.68515211502356        9.81262319417146        0.02543572780695
C            0.68516529626732        9.81261522374805        0.02658685503899
C            2.87026283551738       -8.61952508870068        0.02113357556154
C            3.61212217295434       -9.81139577230102        0.02746857034006
C            4.98471784808923       -9.81112360276334        0.02303458987987
C            5.72097360582540       -8.61953166308224        0.01193050338113
C            2.85552968947291       -6.15670082881746        0.00977032855017
C            3.57672937467444       -7.39301013737911        0.01337668783506
C            5.00460295848402       -7.39408980881374        0.00903202938999
C            5.70836054494449       -6.15188094671418        0.00194416851236
C            2.84977994875780       -3.69860101899612        0.00255978092966
C            3.56206596096621       -4.92931238413051        0.00481131063037
C            4.99434028415498       -4.92870356501410        0.00057707735353
C            5.69796618549109       -3.69391425120455       -0.00422990898064
C            2.84981944917447       -1.23404314778312       -0.00110912768878
C            3.55916662535220       -2.46261773386400        0.00012668706431
C            4.98586053188495       -2.46142699694128       -0.00466705135995
C            5.69231913060642       -1.23222950887001       -0.00736117454988
C            2.84981991599583        1.23404274322929       -0.00111125031988
C            3.55946413891166       -0.00000034119049       -0.00144299459639
C            4.98292596208888       -0.00000058621573       -0.00652544483955
C            5.69232012176406        1.23222830517315       -0.00736749399217
C            2.84978100534132        3.69860052738783        0.00255355206832
C            3.55916766108062        2.46261708488789        0.00012095837707
C            4.98586193863195        2.46142583541941       -0.00467746422394
C            5.69796832839041        3.69391291762440       -0.00424837085824
C            2.85553068314734        6.15670035858061        0.00976061677262
C            3.56206730132576        4.92931179457949        0.00480127507182
C            4.99434199146239        4.92870246869679        0.00056238332126
C            5.70836198715125        6.15188015833950        0.00192671931383
C            2.87026274551629        8.61952479817327        0.02111918243925
C            3.57673011485744        7.39300981182314        0.01336197708056
C            5.00460374900318        7.39408909346175        0.00901218894158
C            5.72097333458172        8.61953216333686        0.01190461787734
C            3.61212181921049        9.81139584925447        0.02744771877025
C            4.98471733477276        9.81112362705175        0.02300779532661
C            7.17456539498033       -8.62088451708777        0.00396381329188
C            7.93025687256848       -9.79972114692712        0.00207614571020
C            9.32247150725963       -9.77566226087809       -0.00527045753999
C            9.99819420113010       -8.57941914938571       -0.01110217451593
C            7.13562381894636       -6.14892598978151       -0.00347829264879
C            7.85632825222516       -7.37950087540354       -0.00316236581532
C            9.28739772165915       -7.35794806294099       -0.01039195513711
C            9.95727873021900       -6.12869853232160       -0.01677597100663
C            7.12244561723493       -3.69116636183488       -0.00972543119176
C            7.83083932878064       -4.92111760640203       -0.00978774044782
C            9.27011830806750       -4.90845712076412       -0.01628875324917
C            9.94533808625400       -3.68171417040631       -0.02200510425438
C            7.12134180224511       -1.23144687851014       -0.01312872976328
C            7.82666074133486       -2.45921927976080       -0.01447449217359
C            9.26666251925617       -2.45343040754877       -0.02080105984266
C            9.94288059734198       -1.22862016713297       -0.02511381855414
C            7.12134314778134        1.23144284261815       -0.01313684833114
C            7.82790707279848       -0.00000299100195       -0.01613455292255
C            9.26625513399024       -0.00000301320604       -0.02246957638524
C            9.94288258492669        1.22861428132563       -0.02511986522351
C            7.12244860766821        3.69116433156590       -0.00975419875634
C            7.82666322743526        2.45921499846177       -0.01449131346910
C            9.26666583023684        2.45342606366971       -0.02081322574511
C            9.94534203770933        3.68171195954921       -0.02202161937836
C            7.13562591302950        6.14892665264671       -0.00349335320821
C            7.83084230439394        4.92111723609743       -0.00979173497039
C            9.27012238091805        4.90845721530500       -0.01630373314036
C            9.95728208123725        6.12870175576690       -0.01680191881876
C            7.17456484997506        8.62088825957656        0.00393248067841
C            7.85632855645961        7.37950435722750       -0.00318771074067
C            9.28739879793597        7.35795202530115       -0.01042256992557
C            9.99819309423761        8.57942574268927       -0.01114314132758
C            7.93025325095612        9.79972862782846        0.00203573075530
C            9.32246879478306        9.77566826135199       -0.00531568134427
H          -11.08074250517194       -8.55909036473052       -0.02208865035559
H           -9.87001253391877      -10.71033204477726       -0.02007198766793
H           -7.44575419875730      -10.76454317708708       -0.00933786010276
H          -11.04108035921016       -6.12376824696372       -0.01944035928748
H          -11.02945194458569       -3.68293099810399       -0.01748027072704
H          -11.02738742162513       -1.22941074597907       -0.01659836802695