206
 energy: -383.874603194179 gnorm: 0.000452598474 xtb: 6.7.1pre (5071a88)
C           -9.95332011868774       -8.53205160699261       -0.01692053048126
C           -9.27920290329086       -9.72594305495534       -0.01524839970740
C           -7.89011353000636       -9.75153100888192       -0.00851471148226
C           -7.13723673238401       -8.57681861225065       -0.00342059627512
C           -9.91283369648222       -6.09101666731425       -0.01507543011637
C           -9.24266015861467       -7.31554589592404       -0.01296207755202
C           -7.81724961735269       -7.33806265567456       -0.00681525818818
C           -7.09712870778810       -6.11539049130824       -0.00458243341519
C           -9.89796864192599       -3.65570696137054       -0.01404714181342
C           -9.22242555167807       -4.87866945641348       -0.01215141650160
C           -7.79035163000972       -4.89115103450797       -0.00746765635485
C           -7.08136225593124       -3.66938265663922       -0.00584517545609
C           -9.89188798028819       -1.21899749173020       -0.01363422283835
C           -9.21305239420948       -2.43898025960851       -0.01188487736693
C           -7.78121807557539       -2.44404481763642       -0.00803618090306
C           -7.07702691403194       -1.22358681489203       -0.00640775476217
C           -9.89189306818316        1.21898261952900       -0.01362843571930
C           -9.21002708092705       -0.00000676112110       -0.01180556223461
C           -7.77921895386721       -0.00000634658410       -0.00819249193989
C           -7.07703088548703        1.22357829019403       -0.00640342413882
C           -9.89797957402767        3.65570243979704       -0.01402982255155
C           -9.21306153214401        2.43897099892466       -0.01187401054883
C           -7.78122553449685        2.44403572870527       -0.00802674733378
C           -7.08137071931611        3.66937807225194       -0.00583210467093
C           -9.91284094748201        6.09102534368387       -0.01504666718312
C           -9.22243600765311        4.87867050971018       -0.01212969757726
C           -7.79035975080482        4.89115028018263       -0.00744872759538
C           -7.09713424392952        6.11539161708851       -0.00456041523299
C           -9.95331605879029        8.53206837318736       -0.01688038084130
C           -9.24266219097333        7.31555643202181       -0.01292943005724
C           -7.81725023105783        7.33807036341023       -0.00678661383293
C           -7.13723424751082        8.57682628516649       -0.00338906634100
C           -9.27919358817984        9.72595873218604       -0.01520472653469
C           -7.89010287422228        9.75154718077209       -0.00847530607129
C           -5.69165513054496       -8.57795663157855        0.00463082859439
C           -4.96101547483759       -9.76861438757766        0.01335551414232
C           -3.59169718581542       -9.77119164054108        0.01916073041523
C           -2.85435513993066       -8.58197702865776        0.01614406612778
C           -5.67621277052451       -6.12075652963923       -0.00007086250539
C           -4.97735460102576       -7.35736960627395        0.00453940125735
C           -3.55661583743765       -7.35816482423289        0.00956262889740
C           -2.83902693779942       -6.12864442471528        0.00802548963474
C           -5.66300931497163       -3.67432336569495       -0.00222497712320
C           -4.96418335289285       -4.90333184320882        0.00058033918173
C           -3.54077003370948       -4.90502825259967        0.00394937555937
C           -2.83203041228313       -3.68032363921282        0.00348442804505
C           -5.65595859321872       -1.22540968114955       -0.00322356966230
C           -4.95405421931580       -2.44957597555795       -0.00132280169113
C           -3.53572027626214       -2.45098639293796        0.00117797065960
C           -2.83061379462470       -1.22749887228545        0.00151875717929
C           -5.65596155943871        1.22540559787001       -0.00322000135637
C           -4.95070543663279       -0.00000133573285       -0.00192937332459
C           -3.53477023169789       -0.00000092827145        0.00034231842004
C           -2.83061483269694        1.22749748164688        0.00152063460909
C           -5.66301563445152        3.67431965910574       -0.00221418429519
C           -4.95405824650088        2.44957291167550       -0.00131645473061
C           -3.53572325094334        2.45098419778139        0.00118264608173
C           -2.83203265867695        3.68032134081953        0.00349009061277
C           -5.67621687248085        6.12075385667712       -0.00005250908557
C           -4.96418805355887        4.90332831891439        0.00059324572209
C           -3.54077346254568        4.90502542730315        0.00395877797570
C           -2.83902859082197        6.12864122456232        0.00803503495994
C           -5.69165338578569        8.57795584264490        0.00465716514641
C           -4.97735613290591        7.35736668415965        0.00455930962573
C           -3.55661690719290        7.35816193460303        0.00957711088042
C           -2.85435486003897        8.58197383725528        0.01615820484897
C           -4.96101288260531        9.76861311608416        0.01338267376562
C           -3.59169496798156        9.77118966942753        0.01918182322063
C           -1.41648278274770       -8.58188724056594        0.01928469758921
C           -0.68350677370351       -9.77400142471639        0.02522841916630
C            0.68352016925204       -9.77398992475846        0.02639950498868
C            1.41649322460679       -8.58187089010493        0.02153523621735
C           -1.42127239666088       -6.12865360779112        0.01048227351505
C           -0.70986566482436       -7.36007599173266        0.01537069826063
C            0.70987127059543       -7.36006836455267        0.01620598661617
C            1.42127552163225       -6.12864559218395        0.01139338559437
C           -1.41597791737373       -3.68104288886835        0.00511011385912
C           -0.71174092539740       -4.90789713089647        0.00802337525185
C            0.71173970755834       -4.90789418215760        0.00815806860817
C            1.41597400532889       -3.68103986256331        0.00494516093176
C           -1.41216077711462       -1.22783232751485        0.00265770023798
C           -0.70869393648595       -2.45265327062150        0.00390774776684
C            0.70868738585010       -2.45265238608143        0.00359919811623
C            1.41215294807495       -1.22783162009566        0.00197712299689
C           -1.41216138387789        1.22783133313700        0.00265862703955
C           -0.70741677674570       -0.00000033985871        0.00261435701561
C            0.70740845445952       -0.00000033066983        0.00216945682027
C            1.41215386647830        1.22783055780384        0.00197614567652
C           -1.41597923599035        3.68104094907159        0.00511294912437
C           -0.70869401168645        2.45265198392035        0.00390864310101
C            0.70868796611635        2.45265108724960        0.00359821482626
C            1.41597602314614        3.68103784118592        0.00494220733299
C           -1.42127336404692        6.12865059216106        0.01048720098720
C           -0.71174101683001        4.90789456833025        0.00802528530711
C            0.71174046343099        4.90789154719155        0.00815601063089
C            1.42127709645428        6.12864249198852        0.01138827424701
C           -1.41648254108105        8.58188389498970        0.01929144998782
C           -0.70986562690272        7.36007257804704        0.01537363878674
C            0.70987167614517        7.36006485325981        0.01620273258506
C            1.41649327235767        8.58186747150014        0.02152799237780
C           -0.68350659976480        9.77399829428701        0.02523129608759
C            0.68352032037803        9.77398676672395        0.02639539106019
C            2.85436849113021       -8.58195165855202        0.02063297423164
C            3.59171771885048       -9.77114871691747        0.02695339968790
C            4.96104096343665       -9.76856944160040        0.02242150244308
C            5.69167741070180       -8.57792756542669        0.01149419381937
C            2.83903069893734       -6.12863369334583        0.00943276076281
C            3.55662643821268       -7.35814587646321        0.01283061249959
C            4.97736731564375       -7.35734978056729        0.00853209134349
C            5.67621694067346       -6.12074367601031        0.00152854850541
C            2.83202569840795       -3.68031940145467        0.00290088829889
C            3.54076952019373       -4.90502030804613        0.00422500503969
C            4.96418124737981       -4.90332354456595        0.00041020763837
C            5.66300043671535       -3.67431837626478       -0.00447754959921
C            2.83060454922179       -1.22749778561720       -0.00013977725010
C            3.53571250605166       -2.45098370383355       -0.00043253013697
C            4.95404320759897       -2.44957304238087       -0.00415798819306
C            5.65594415389181       -1.22540862193118       -0.00748604807701
C            2.83060594391634        1.22749628565976       -0.00014173643479
C            3.53476035690949       -0.00000104938574       -0.00193921514578
C            4.95069194205260       -0.00000149799949       -0.00568509680372
C            5.65594779633579        1.22540395784518       -0.00748969833324
C            2.83202874143151        3.68031690425418        0.00289507626751
C            3.53571627688829        2.45098125194419       -0.00043735224218
C            4.95404821661022        2.44956961928461       -0.00416446799084
C            5.66300820447297        3.67431418497628       -0.00448837138609
C            2.83903303650821        6.12863023787646        0.00942302010334
C            3.54077391598193        4.90501723261710        0.00421542386255
C            4.96418711144148        4.90331962204072        0.00039718298676
C            5.67622200942791        6.12074080457267        0.00151018196037
C            2.85436839766035        8.58194831762507        0.02061877649774
C            3.55662793876353        7.35814286009553        0.01281605681270
C            4.97736928798366        7.35734661936668        0.00851221091289
C            5.69167532577155        8.57792703273081        0.01146799846794
C            3.59171520078340        9.77114689818872        0.02693291125158
C            4.96103791560637        9.76856839255099        0.02239499775768
C            7.13726112320233       -8.57679233577749        0.00377658023554
C            7.89015550093878       -9.75150215767083        0.00234906641577
C            9.27924140063300       -9.72592109144710       -0.00495582588080
C            9.95333976478353       -8.53203388616256       -0.01097446036205
C            7.09712931820715       -6.11537757735931       -0.00374396987217
C            7.81725944642191       -7.33804470551652       -0.00336796236853
C            9.24266525162570       -7.31553176524302       -0.01041433024912
C            9.91282230388975       -6.09100940324377       -0.01665057428365
C            7.08134792781803       -3.66937841409241       -0.00956957724204
C            7.79034078109776       -4.89114424339380       -0.00983062769248
C            9.22240745360510       -4.87866495698441       -0.01611850056777
C            9.89793898493496       -3.65570801523892       -0.02154439391006
C            7.07700653113377       -1.22358655526184       -0.01258715206938
C            7.78119656976734       -2.44404431855001       -0.01423072070937
C            9.21302269622205       -2.43898137279080       -0.02027544043949
C            9.89185126389165       -1.21900028657738       -0.02441871770799
C            7.07701137236969        1.22357655347428       -0.01259151367410
C            7.77919514730342       -0.00000753542866       -0.01575066753099
C            9.20999493672032       -0.00000796943351       -0.02178204470872
C            9.89185741352540        1.21898271901668       -0.02442442095217
C            7.08135825196729        3.66937321495328       -0.00958241860618
C            7.78120562441001        2.44403363863867       -0.01424002839138
C            9.21303376244746        2.43897056190632       -0.02028615791888
C            9.89795220547896        3.65570291045304       -0.02156152092050
C            7.09713607627020        6.11537930519549       -0.00376593710241
C            7.79035066022619        4.89114368318975       -0.00984953160908
C            9.22242013517480        4.87866661459310       -0.01614008312974
C            9.91283104218800        6.09102029313511       -0.01667915069579
C            7.13725806033134        8.57680202322246        0.00374477139430
C            7.81726015474009        7.33805443090607       -0.00339660244154
C            9.24266762474612        7.31554491225678       -0.01044683169851
C            9.95333457947634        8.53205468058512       -0.01101476448504
C            7.89014230548308        9.75152223049335        0.00230927314197
C            9.27922973485590        9.72594050220550       -0.00500001432268
H          -11.03304094664136       -8.50448780635949       -0.02167885481875
H           -9.82495253495738      -10.65840171925721       -0.01907045132715
H           -7.40550264290672      -10.71389604649672       -0.00781563601397
H          -10.99349994534249       -6.08136341629489       -0.01922946783228
H          -10.97854993575229       -3.65181916984722       -0.01733490190756
H          -10.97247235923399       -1.21776356053863       -0.01650101573727
H          -10.97247719438738        1.21774652796646       -0.01649470854341
H          -10.97856028686458        3.65181470883133       -0.01731601345914
H          -10.99350669456931        6.08137473252172       -0.01919829159112
H          -11.03303681943994        8.50450744540108       -0.02163574048176
H           -5.46856345233350      -10.71915525904349        0.01609725069830
H           -3.09119813530988      -10.72507054485556        0.02594205286105
H           -1.18742806971466      -10.72600050568338        0.02869877578097
H            1.18744806422428      -10.72598307844196        0.03060116432509
H            3.09122045209421      -10.72501463687675        0.03550170600425
H            5.46859293729523      -10.71909757349539        0.02767074381672
H            7.40556037878495      -10.71386662157260        0.00650665516716
H            9.82500163093119      -10.65838115098089       -0.00584348416004
H           11.03305747411274       -8.50447339052263       -0.01641937503246
H           10.99348440633079       -6.08136051688149       -0.02182027571007
H           10.97851472857040       -3.65182412413842       -0.02637966537830
H           10.97242921352698       -1.21776821968243       -0.02917323352645
H           10.97243505132616        1.21774804335092       -0.02917939106795
H           10.97852723256217        3.65181907907650       -0.02639819267094
H           10.99349250918517        6.08137463090096       -0.02185134219200
H           11.03305217472792        8.50449773025905       -0.01646276861316
H            9.82498942965881       10.65840019582976       -0.00589395354447
H           -9.82494283385578       10.65841706949477       -0.01902078864244
H           -7.40548875539053       10.71390979755851       -0.00777319490531
H           -5.46856076777040       10.71915411606929        0.01612953212748
H           -3.09119522032588       10.72506814598439        0.02596412234742
H           -1.18742795301177       10.72599742189973        0.02870371628413
H            1.18744828251827       10.72597997707468        0.03059431367778
H            3.09121708056042       10.72501229925884        0.03548075105164
H            5.46858979107023       10.71909670226458        0.02763955242880
H            7.40554318767678       10.71388370312545        0.00646357050145
