      -----------------------------------------------------------      
     |                   =====================                   |     
     |                           x T B                           |     
     |                   =====================                   |     
     |                         S. Grimme                         |     
     |          Mulliken Center for Theoretical Chemistry        |     
     |                    University of Bonn                     |     
      -----------------------------------------------------------      

   * xtb version 6.7.1pre (5071a88) compiled by 'Marcel@Raven' on 2024-07-23

   xtb is free software: you can redistribute it and/or modify it under
   the terms of the GNU Lesser General Public License as published by
   the Free Software Foundation, either version 3 of the License, or
   (at your option) any later version.
   
   xtb is distributed in the hope that it will be useful,
   but WITHOUT ANY WARRANTY; without even the implied warranty of
   MERCHANTABILITY or FITNESS FOR A PARTICULAR PURPOSE.  See the
   GNU Lesser General Public License for more details.
   
   Cite this work as:
   * C. Bannwarth, E. Caldeweyher, S. Ehlert, A. Hansen, P. Pracht,
     J. Seibert, S. Spicher, S. Grimme, WIREs Comput. Mol. Sci., 2020, 11,
     e01493. DOI: 10.1002/wcms.1493
   
   for GFN2-xTB:
   * C. Bannwarth, S. Ehlert and S. Grimme., J. Chem. Theory Comput., 2019,
     15, 1652-1671. DOI: 10.1021/acs.jctc.8b01176
   for GFN1-xTB:
   * S. Grimme, C. Bannwarth, P. Shushkov, J. Chem. Theory Comput., 2017,
     13, 1989-2009. DOI: 10.1021/acs.jctc.7b00118
   for GFN0-xTB:
   * P. Pracht, E. Caldeweyher, S. Ehlert, S. Grimme, ChemRxiv, 2019, preprint.
     DOI: 10.26434/chemrxiv.8326202.v1
   for GFN-FF:
   * S. Spicher and S. Grimme, Angew. Chem. Int. Ed., 2020, 59, 15665-15673.
     DOI: 10.1002/anie.202004239
   
   for ALPB and GBSA implicit solvation:
   * S. Ehlert, M. Stahn, S. Spicher, S. Grimme, J. Chem. Theory Comput.,
     2021, 17, 4250-4261. DOI: 10.1021/acs.jctc.1c00471
   
   for ddCOSMO and CPCM-X implicit solvation:
   * M. Stahn, S. Ehlert, S. Grimme, J. Phys. Chem. A,
     2023, XX, XXXX-XXXX. DOI: 10.1021/acs.jpca.3c04382
   
   for DFT-D4:
   * E. Caldeweyher, C. Bannwarth and S. Grimme, J. Chem. Phys., 2017,
     147, 034112. DOI: 10.1063/1.4993215
   * E. Caldeweyher, S. Ehlert, A. Hansen, H. Neugebauer, S. Spicher,
     C. Bannwarth and S. Grimme, J. Chem. Phys., 2019, 150, 154122.
     DOI: 10.1063/1.5090222
   * E. Caldeweyher, J.-M. Mewes, S. Ehlert and S. Grimme, Phys. Chem. Chem. Phys.
     2020, 22, 8499-8512. DOI: 10.1039/D0CP00502A
   
   for sTDA-xTB:
   * S. Grimme and C. Bannwarth, J. Chem. Phys., 2016, 145, 054103.
     DOI: 10.1063/1.4959605
   
   in the mass-spec context:
   * V. Asgeirsson, C. Bauer and S. Grimme, Chem. Sci., 2017, 8, 4879.
     DOI: 10.1039/c7sc00601b
   * J. Koopman and S. Grimme, ACS Omega 2019, 4, 12, 15120-15133.
     DOI: 10.1021/acsomega.9b02011
   
   for metadynamics refer to:
   * S. Grimme, J. Chem. Theory Comput., 2019, 155, 2847-2862
     DOI: 10.1021/acs.jctc.9b00143
   
   for SPH calculations refer to:
   * S. Spicher and S. Grimme, J. Chem. Theory Comput., 2021, 17, 1701-1714
     DOI: 10.1021/acs.jctc.0c01306
   
   for ONIOM refer to:
   * C. Plett, A. Katbashev, S. Ehlert, S. Grimme, M. Bursch,
     Phys. Chem. Chem. Phys., 2023, 25, 17860-17868. DOI: 10.1039/D3CP02178E
   
   for DIPRO refer to:
   * J. Kohn, N. Gildemeister, S. Grimme, D. Fazzi, A. Hansen,
     J. Chem. Phys., 2023, just accepted.
   
   for PTB refer to:
   * S. Grimme, M. Mueller, A. Hansen, J. Chem. Phys., 2023, 158, 124111.
     DOI: 10.1063/5.0137838
   
   with help from (in alphabetical order)
   P. Atkinson, C. Bannwarth, F. Bohle, G. Brandenburg, E. Caldeweyher
   M. Checinski, S. Dohm, S. Ehlert, S. Ehrlich, I. Gerasimov, C. Hölzer
   A. Katbashev, J. Kohn, J. Koopman, C. Lavigne, S. Lehtola, F. März, M. Müller,
   F. Musil, H. Neugebauer, J. Pisarek, C. Plett, P. Pracht, F. Pultar,
   J. Seibert, P. Shushkov, S. Spicher, M. Stahn, M. Steiner, T. Strunk,
   J. Stückrath, T. Rose, and J. Unsleber
   
 * started run on 2025/12/08 at 00:30:40.614     
   ID    Z sym.   atoms
    1    6 C      1-3, 5-29, 31-38, 40-44, 46, 48-85, 87-94, 96, 97, 99, 100,
                  121, 122
    2    8 O      4, 30, 39, 45, 47, 86, 95, 98, 120, 123
    3    1 H      101-119, 124-128

           -------------------------------------------------
          |                Calculation Setup                |
           -------------------------------------------------

          program call               : xtb "C:\Users\LENOVO GAMING\Documents\GitHub\molecular-conductivity-sim\dataset\1.5nm-10Odoped-7percent.xyz" --opt --parallel 4
          coordinate file            : C:\Users\LENOVO GAMING\Documents\GitHub\molecular-conductivity-sim\dataset\1.5nm-10Odoped-7percent.xyz
          omp threads                :                     4


           -------------------------------------------------
          |                 G F N 2 - x T B                 |
           -------------------------------------------------

        Reference                      10.1021/acs.jctc.8b01176
      * Hamiltonian:
        H0-scaling (s, p, d)           1.850000    2.230000    2.230000
        zeta-weighting                 0.500000
      * Dispersion:
        s8                             2.700000
        a1                             0.520000
        a2                             5.000000
        s9                             5.000000
      * Repulsion:
        kExp                           1.500000    1.000000
        rExp                           1.000000
      * Coulomb:
        alpha                          2.000000
        third order                    shell-resolved
        anisotropic                    true
        a3                             3.000000
        a5                             4.000000
        cn-shift                       1.200000
        cn-exp                         4.000000
        max-rad                        5.000000


          ...................................................
          :                      SETUP                      :
          :.................................................:
          :  # basis functions                 440          :
          :  # atomic orbitals                 440          :
          :  # shells                          232          :
          :  # electrons                       460          :
          :  max. iterations                   250          :
          :  Hamiltonian                  GFN2-xTB          :
          :  restarted?                      false          :
          :  GBSA solvation                  false          :
          :  PC potential                    false          :
          :  electronic temp.          300.0000000     K    :
          :  accuracy                    1.0000000          :
          :  -> integral cutoff          0.2500000E+02      :
          :  -> integral neglect         0.1000000E-07      :
          :  -> SCF convergence          0.1000000E-05 Eh   :
          :  -> wf. convergence          0.1000000E-03 e    :
          :  Broyden damping             0.4000000          :
          :  net charge                          0          :
          :  unpaired electrons                  0          :
          ...................................................

 iter      E             dE          RMSdq      gap      omega  full diag
   1   -258.2605004 -0.258261E+03  0.498E+00    0.70       0.0  T
   2   -257.6276671  0.632833E+00  0.373E+00    0.49       1.0  T
   3   -257.1462037  0.481463E+00  0.274E+00    0.28       1.0  T
   4   -258.4651596 -0.131896E+01  0.111E+00    0.29       1.0  T
   5   -258.5692104 -0.104051E+00  0.565E-01    0.35       1.0  T
   6   -258.6126832 -0.434728E-01  0.262E-01    0.17       1.0  T
   7   -258.5840125  0.286707E-01  0.396E-01    0.33       1.0  T
   8   -258.5881577 -0.414523E-02  0.305E-01    0.13       1.0  T
   9   -258.5945692 -0.641143E-02  0.312E-01    0.30       1.0  T
  10   -258.6127318 -0.181627E-01  0.170E-01    0.20       1.0  T
  11   -258.6214965 -0.876464E-02  0.220E-02    0.15       1.0  T
  12   -258.6215217 -0.252479E-04  0.155E-02    0.15       1.0  T
  13   -258.6215685 -0.468390E-04  0.534E-03    0.16       1.7  T
  14   -258.6215649  0.365634E-05  0.472E-03    0.15       1.9  T
  15   -258.6215707 -0.580405E-05  0.151E-03    0.15       5.9  T
  16   -258.6215709 -0.170555E-06  0.110E-03    0.16       8.0  T
  17   -258.6215711 -0.210068E-06  0.475E-04    0.16      18.6  T
  18   -258.6215711  0.160218E-07  0.524E-04    0.16      16.9  T

   *** convergence criteria satisfied after 18 iterations ***

         #    Occupation            Energy/Eh            Energy/eV
      -------------------------------------------------------------
         1        2.0000           -0.7623647             -20.7450
       ...           ...                  ...                  ...
       224        2.0000           -0.3630310              -9.8786
       225        2.0000           -0.3594172              -9.7802
       226        2.0000           -0.3507314              -9.5439
       227        2.0000           -0.3394348              -9.2365
       228        2.0000           -0.3340535              -9.0901
       229        2.0000           -0.3295825              -8.9684
       230        1.9052           -0.3116762              -8.4811 (HOMO)
       231        0.0948           -0.3059758              -8.3260 (LUMO)
       232                         -0.2901766              -7.8961
       233                         -0.2857426              -7.7755
       234                         -0.2801603              -7.6236
       235                         -0.2785155              -7.5788
       ...                                ...                  ...
       440                          0.7448294              20.2678
      -------------------------------------------------------------
                  HL-Gap            0.0057004 Eh            0.1551 eV
             Fermi-level           -0.3088260 Eh           -8.4036 eV

 SCC (total)                   0 d,  0 h,  0 min,  0.972 sec
 SCC setup                      ...        0 min,  0.002 sec (  0.206%)
 Dispersion                     ...        0 min,  0.006 sec (  0.617%)
 classical contributions        ...        0 min,  0.000 sec (  0.000%)
 integral evaluation            ...        0 min,  0.031 sec (  3.189%)
 iterations                     ...        0 min,  0.797 sec ( 81.996%)
 molecular gradient             ...        0 min,  0.132 sec ( 13.580%)
 printout                       ...        0 min,  0.004 sec (  0.412%)

         :::::::::::::::::::::::::::::::::::::::::::::::::::::
         ::                     SUMMARY                     ::
         :::::::::::::::::::::::::::::::::::::::::::::::::::::
         :: total energy            -254.622618065639 Eh    ::
         :: gradient norm              0.072979218422 Eh/a0 ::
         :: HOMO-LUMO gap              0.155115528269 eV    ::
         ::.................................................::
         :: SCC energy              -258.627545325580 Eh    ::
         :: -> isotropic ES            0.116098687385 Eh    ::
         :: -> anisotropic ES          0.009691267337 Eh    ::
         :: -> anisotropic XC          0.058206494665 Eh    ::
         :: -> dispersion             -0.272309544833 Eh    ::
         :: repulsion energy           4.004927259942 Eh    ::
         :: add. restraining           0.000000000000 Eh    ::
         :: total charge              -0.000000000000 e     ::
         :::::::::::::::::::::::::::::::::::::::::::::::::::::

      ----------------------------------------------------------- 
     |                   =====================                   |
     |                        A N C O P T                        |
     |                   =====================                   |
     |               Approximate Normal Coordinate               |
     |                Rational Function Optimizer                |
      ----------------------------------------------------------- 
      ----------------------------------------------------------- 
     |                   =====================                   |
     |                        A N C O P T                        |
     |                   =====================                   |
     |               Approximate Normal Coordinate               |
     |                Rational Function Optimizer                |
      ----------------------------------------------------------- 

          ...................................................
          :                      SETUP                      :
          :.................................................:
          :   optimization level            normal          :
          :   max. optcycles                   384          :
          :   ANC micro-cycles                  20          :
          :   degrees of freedom               378          :
          :.................................................:
          :   RF solver                   davidson          :
          :   write xtbopt.log                true          :
          :   linear?                        false          :
          :   energy convergence         0.5000000E-05 Eh   :
          :   grad. convergence          0.1000000E-02 Eh/α :
          :   maxmium RF displ.          1.0000000          :
          :   Hlow (freq-cutoff)         0.1000000E-01      :
          :   Hmax (freq-cutoff)         5.0000000          :
          :   S6 in model hess.         20.0000000          :
          ...................................................

generating ANC from exact Hessian ...
Using Lindh-Hessian (1995)
 Shifting diagonal of input Hessian by   9.849016312117924E-003
 Lowest  eigenvalues of input Hessian
    0.000000    0.000000    0.000000    0.000000    0.000000    0.000000
    0.010000    0.010112    0.010250    0.010476    0.010654    0.011309
    0.011533    0.011721    0.012153    0.012709    0.013263    0.014018
 Highest eigenvalues
    2.127889    2.143855    2.147927    2.162727    2.199566    2.209619
 

........................................................................
.............................. CYCLE    1 ..............................
........................................................................

 iter      E             dE          RMSdq      gap      omega  full diag
   1   -258.6215711 -0.258622E+03  0.858E-05    0.16       0.0  T
   2   -258.6215711  0.584902E-07  0.446E-04    0.16      19.8  T
   3   -258.6215711 -0.560780E-07  0.103E-04    0.16      85.7  T
     SCC iter.                  ...        0 min,  0.137 sec
     gradient                   ...        0 min,  0.131 sec
 * total energy  :  -254.6226181 Eh     change       -0.7099555E-07 Eh
   gradient norm :     0.0730005 Eh/α   predicted     0.0000000E+00 (-100.00%)
   displ. norm   :     0.4762076 α      lambda       -0.1749693E-01
   maximum displ.:     0.1990019 α      in ANC's #41, #43, #46, ...

........................................................................
.............................. CYCLE    2 ..............................
........................................................................

 iter      E             dE          RMSdq      gap      omega  full diag
   1   -258.7171027 -0.258717E+03  0.233E-01    0.13       0.0  T
   2   -258.6386094  0.784933E-01  0.559E-01    0.69       1.0  T
   3   -258.7149111 -0.763018E-01  0.241E-01    0.23       1.0  T
   4   -258.7282664 -0.133553E-01  0.733E-02    0.15       1.0  T
   5   -258.7067308  0.215356E-01  0.264E-01    0.13       1.0  T
   6   -258.7261240 -0.193932E-01  0.939E-02    0.17       1.0  T
   7   -258.7288023 -0.267830E-02  0.140E-02    0.16       1.0  T
   8   -258.7286778  0.124469E-03  0.231E-02    0.16       1.0  T
   9   -258.7288044 -0.126585E-03  0.106E-02    0.16       1.0  T
  10   -258.7288325 -0.280735E-04  0.437E-03    0.16       2.0  T
  11   -258.7288365 -0.401860E-05  0.158E-03    0.15       5.6  T
  12   -258.7288372 -0.674662E-06  0.292E-04    0.15      30.3  T
  13   -258.7288372 -0.450376E-08  0.237E-04    0.15      37.2  T
     SCC iter.                  ...        0 min,  0.573 sec
     gradient                   ...        0 min,  0.138 sec
 * total energy  :  -254.6358312 Eh     change       -0.1321311E-01 Eh
   gradient norm :     0.0395140 Eh/α   predicted    -0.1073623E-01 ( -18.75%)
   displ. norm   :     0.5109726 α      lambda       -0.9310937E-02
   maximum displ.:     0.2010125 α      in ANC's #41, #37, #44, ...

........................................................................
.............................. CYCLE    3 ..............................
........................................................................

 iter      E             dE          RMSdq      gap      omega  full diag
   1   -258.8079148 -0.258808E+03  0.239E-01    0.13       0.0  T
   2   -258.7222688  0.856460E-01  0.581E-01    0.71       1.0  T
   3   -258.8042185 -0.819497E-01  0.257E-01    0.24       1.0  T
   4   -258.8198252 -0.156067E-01  0.766E-02    0.15       1.0  T
   5   -258.7929142  0.269110E-01  0.295E-01    0.13       1.0  T
   6   -258.8182706 -0.253564E-01  0.862E-02    0.17       1.0  T
   7   -258.8204876 -0.221705E-02  0.150E-02    0.16       1.0  T
   8   -258.8203177  0.169902E-03  0.265E-02    0.16       1.0  T
   9   -258.8204889 -0.171226E-03  0.119E-02    0.15       1.0  T
  10   -258.8205245 -0.355982E-04  0.487E-03    0.15       1.8  T
  11   -258.8205295 -0.501213E-05  0.181E-03    0.15       4.9  T
  12   -258.8205304 -0.824600E-06  0.548E-04    0.15      16.1  T
  13   -258.8205304 -0.669365E-07  0.274E-04    0.15      32.3  T
     SCC iter.                  ...        0 min,  0.577 sec
     gradient                   ...        0 min,  0.134 sec
 * total energy  :  -254.6417646 Eh     change       -0.5933333E-02 Eh
   gradient norm :     0.0131670 Eh/α   predicted    -0.5871862E-02 (  -1.04%)
   displ. norm   :     0.2833213 α      lambda       -0.1733816E-02
   maximum displ.:     0.1136388 α      in ANC's #41, #12, #43, ...

........................................................................
.............................. CYCLE    4 ..............................
........................................................................

 iter      E             dE          RMSdq      gap      omega  full diag
   1   -258.8555792 -0.258856E+03  0.835E-02    0.14       0.0  T
   2   -258.8190326  0.365466E-01  0.348E-01    0.32       1.0  T
   3   -258.8566164 -0.375838E-01  0.392E-02    0.16       1.0  T
   4   -258.8560761  0.540230E-03  0.480E-02    0.15       1.0  T
   5   -258.8563336 -0.257466E-03  0.357E-02    0.15       1.0  T
   6   -258.8567163 -0.382741E-03  0.598E-03    0.15       1.5  T
   7   -258.8567187 -0.232388E-05  0.420E-03    0.15       2.1  T
   8   -258.8567218 -0.312419E-05  0.202E-03    0.15       4.4  T
   9   -258.8567228 -0.100579E-05  0.778E-04    0.15      11.4  T
  10   -258.8567229 -0.134243E-06  0.357E-04    0.15      24.7  T
  11   -258.8567230 -0.267410E-07  0.966E-05    0.15      91.5  T
     SCC iter.                  ...        0 min,  0.494 sec
     gradient                   ...        0 min,  0.137 sec
 * total energy  :  -254.6428074 Eh     change       -0.1042809E-02 Eh
   gradient norm :     0.0066482 Eh/α   predicted    -0.9365134E-03 ( -10.19%)
   displ. norm   :     0.1775646 α      lambda       -0.4291502E-03
   maximum displ.:     0.0851793 α      in ANC's #12, #26, #20, ...

........................................................................
.............................. CYCLE    5 ..............................
........................................................................

 iter      E             dE          RMSdq      gap      omega  full diag
   1   -258.8651809 -0.258865E+03  0.362E-02    0.15       0.0  T
   2   -258.8631710  0.200993E-02  0.829E-02    0.17       1.0  T
   3   -258.8640760 -0.905087E-03  0.620E-02    0.15       1.0  T
   4   -258.8651566 -0.108055E-02  0.167E-02    0.15       1.0  T
   5   -258.8651885 -0.318798E-04  0.721E-03    0.15       1.2  T
   6   -258.8652024 -0.139724E-04  0.228E-03    0.15       3.9  T
   7   -258.8652033 -0.898121E-06  0.127E-03    0.15       7.0  T
   8   -258.8652037 -0.398411E-06  0.382E-04    0.15      23.1  T
   9   -258.8652037 -0.673140E-09  0.246E-04    0.15      36.0  T
     SCC iter.                  ...        0 min,  0.395 sec
     gradient                   ...        0 min,  0.136 sec
 * total energy  :  -254.6430519 Eh     change       -0.2445317E-03 Eh
   gradient norm :     0.0043287 Eh/α   predicted    -0.2213804E-03 (  -9.47%)
   displ. norm   :     0.1103456 α      lambda       -0.1537961E-03
   maximum displ.:     0.0597131 α      in ANC's #12, #6, #25, ...

........................................................................
.............................. CYCLE    6 ..............................
........................................................................

 iter      E             dE          RMSdq      gap      omega  full diag
   1   -258.8643840 -0.258864E+03  0.236E-02    0.15       0.0  T
   2   -258.8633585  0.102552E-02  0.584E-02    0.15       1.0  T
   3   -258.8637616 -0.403111E-03  0.464E-02    0.16       1.0  T
   4   -258.8643658 -0.604213E-03  0.136E-02    0.15       1.0  T
   5   -258.8643906 -0.247621E-04  0.366E-03    0.15       2.4  T
   6   -258.8643913 -0.657278E-06  0.292E-03    0.15       3.0  T
   7   -258.8643941 -0.288495E-05  0.634E-04    0.15      13.9  T
   8   -258.8643942 -0.508909E-07  0.322E-04    0.15      27.4  T
   9   -258.8643942 -0.893090E-08  0.216E-04    0.15      40.9  T
     SCC iter.                  ...        0 min,  0.400 sec
     gradient                   ...        0 min,  0.137 sec
 * total energy  :  -254.6431503 Eh     change       -0.9841437E-04 Eh
   gradient norm :     0.0025455 Eh/α   predicted    -0.7783701E-04 ( -20.91%)
   displ. norm   :     0.0910147 α      lambda       -0.6405685E-04
   maximum displ.:     0.0513770 α      in ANC's #12, #6, #11, ...

........................................................................
.............................. CYCLE    7 ..............................
........................................................................

 iter      E             dE          RMSdq      gap      omega  full diag
   1   -258.8613181 -0.258861E+03  0.174E-02    0.15       0.0  T
   2   -258.8609053  0.412816E-03  0.375E-02    0.15       1.0  T
   3   -258.8608876  0.177598E-04  0.381E-02    0.16       1.0  T
   4   -258.8613029 -0.415331E-03  0.110E-02    0.15       1.0  T
   5   -258.8613193 -0.163937E-04  0.335E-03    0.15       2.6  T
   6   -258.8613218 -0.253696E-05  0.189E-03    0.15       4.7  T
   7   -258.8613230 -0.120073E-05  0.450E-04    0.15      19.6  T
   8   -258.8613231 -0.334101E-07  0.180E-04    0.15      49.0  T
   9   -258.8613231  0.371017E-09  0.148E-04    0.15      59.8  T
     SCC iter.                  ...        0 min,  0.403 sec
     gradient                   ...        0 min,  0.130 sec
 * total energy  :  -254.6431936 Eh     change       -0.4324708E-04 Eh
   gradient norm :     0.0017980 Eh/α   predicted    -0.3230412E-04 ( -25.30%)
   displ. norm   :     0.1195351 α      lambda       -0.3187095E-04
   maximum displ.:     0.0602212 α      in ANC's #12, #6, #4, ...

........................................................................
.............................. CYCLE    8 ..............................
........................................................................

 iter      E             dE          RMSdq      gap      omega  full diag
   1   -258.8594251 -0.258859E+03  0.215E-02    0.15       0.0  T
   2   -258.8588233  0.601869E-03  0.460E-02    0.16       1.0  T
   3   -258.8587161  0.107104E-03  0.485E-02    0.15       1.0  T
   4   -258.8593294 -0.613243E-03  0.195E-02    0.16       1.0  T
   5   -258.8594301 -0.100715E-03  0.303E-03    0.15       2.9  T
   6   -258.8594314 -0.128217E-05  0.204E-03    0.15       4.3  T
   7   -258.8594327 -0.127189E-05  0.580E-04    0.15      15.2  T
   8   -258.8594327 -0.665762E-07  0.206E-04    0.15      43.0  T
   9   -258.8594327 -0.955310E-09  0.141E-04    0.15      62.8  T
     SCC iter.                  ...        0 min,  0.394 sec
     gradient                   ...        0 min,  0.132 sec
 * total energy  :  -254.6432169 Eh     change       -0.2333325E-04 Eh
   gradient norm :     0.0016378 Eh/α   predicted    -0.1604308E-04 ( -31.24%)
   displ. norm   :     0.0462745 α      lambda       -0.1271029E-04
   maximum displ.:     0.0261829 α      in ANC's #6, #3, #4, ...

........................................................................
.............................. CYCLE    9 ..............................
........................................................................

 iter      E             dE          RMSdq      gap      omega  full diag
   1   -258.8607133 -0.258861E+03  0.969E-03    0.15       0.0  T
   2   -258.8600219  0.691365E-03  0.471E-02    0.16       1.0  T
   3   -258.8607040 -0.682140E-03  0.835E-03    0.15       1.1  T
   4   -258.8607143 -0.102453E-04  0.426E-03    0.15       2.1  T
   5   -258.8607187 -0.444741E-05  0.139E-03    0.15       6.4  T
   6   -258.8607191 -0.355364E-06  0.535E-04    0.15      16.5  T
   7   -258.8607192 -0.666087E-07  0.221E-04    0.15      40.1  T
     SCC iter.                  ...        0 min,  0.302 sec
     gradient                   ...        0 min,  0.137 sec
 * total energy  :  -254.6432273 Eh     change       -0.1038738E-04 Eh
   gradient norm :     0.0010424 Eh/α   predicted    -0.6362888E-05 ( -38.74%)
   displ. norm   :     0.0518578 α      lambda       -0.1032424E-04
   maximum displ.:     0.0265623 α      in ANC's #6, #4, #3, ...

........................................................................
.............................. CYCLE   10 ..............................
........................................................................

 iter      E             dE          RMSdq      gap      omega  full diag
   1   -258.8621995 -0.258862E+03  0.951E-03    0.15       0.0  T
   2   -258.8615893  0.610211E-03  0.443E-02    0.16       1.0  T
   3   -258.8621763 -0.586977E-03  0.105E-02    0.15       1.0  T
   4   -258.8621933 -0.170620E-04  0.621E-03    0.15       1.4  T
   5   -258.8622045 -0.111252E-04  0.126E-03    0.15       7.0  T
   6   -258.8622047 -0.269552E-06  0.420E-04    0.15      21.1  T
   7   -258.8622047 -0.179460E-07  0.230E-04    0.15      38.4  T
     SCC iter.                  ...        0 min,  0.313 sec
     gradient                   ...        0 min,  0.132 sec
 * total energy  :  -254.6432356 Eh     change       -0.8308800E-05 Eh
   gradient norm :     0.0010362 Eh/α   predicted    -0.5172669E-05 ( -37.74%)
   displ. norm   :     0.0460215 α      lambda       -0.4678836E-05
   maximum displ.:     0.0253396 α      in ANC's #6, #3, #4, ...

........................................................................
.............................. CYCLE   11 ..............................
........................................................................

 iter      E             dE          RMSdq      gap      omega  full diag
   1   -258.8616117 -0.258862E+03  0.600E-03    0.15       0.0  T
   2   -258.8615720  0.397258E-04  0.117E-02    0.15       1.0  T
   3   -258.8615552  0.168223E-04  0.137E-02    0.16       1.0  T
   4   -258.8616112 -0.559996E-04  0.220E-03    0.15       4.0  T
   5   -258.8616120 -0.825948E-06  0.581E-04    0.15      15.2  T
   6   -258.8616121 -0.609672E-07  0.230E-04    0.15      38.4  T
     SCC iter.                  ...        0 min,  0.267 sec
     gradient                   ...        0 min,  0.134 sec
 * total energy  :  -254.6432414 Eh     change       -0.5753169E-05 Eh
   gradient norm :     0.0007042 Eh/α   predicted    -0.2342129E-05 ( -59.29%)
   displ. norm   :     0.0854333 α      lambda       -0.6864351E-05
   maximum displ.:     0.0434103 α      in ANC's #6, #3, #4, ...

........................................................................
.............................. CYCLE   12 ..............................
........................................................................

 iter      E             dE          RMSdq      gap      omega  full diag
   1   -258.8610065 -0.258861E+03  0.109E-02    0.15       0.0  T
   2   -258.8607135  0.293010E-03  0.310E-02    0.15       1.0  T
   3   -258.8609199 -0.206327E-03  0.177E-02    0.16       1.0  T
   4   -258.8610074 -0.875386E-04  0.286E-03    0.15       3.1  T
   5   -258.8610086 -0.120655E-05  0.779E-04    0.15      11.3  T
   6   -258.8610087 -0.561046E-07  0.482E-04    0.15      18.4  T
   7   -258.8610087 -0.652856E-07  0.141E-04    0.15      62.8  T
     SCC iter.                  ...        0 min,  0.314 sec
     gradient                   ...        0 min,  0.128 sec
 * total energy  :  -254.6432485 Eh     change       -0.7135124E-05 Eh
   gradient norm :     0.0004523 Eh/α   predicted    -0.3444675E-05 ( -51.72%)
   displ. norm   :     0.0704681 α      lambda       -0.3281575E-05
   maximum displ.:     0.0329452 α      in ANC's #6, #3, #4, ...

........................................................................
.............................. CYCLE   13 ..............................
........................................................................

 iter      E             dE          RMSdq      gap      omega  full diag
   1   -258.8608711 -0.258861E+03  0.839E-03    0.15       0.0  T
   2   -258.8608708  0.306908E-06  0.504E-03    0.15       1.8  T
   3   -258.8606712  0.199557E-03  0.251E-02    0.16       1.0  T
   4   -258.8608676 -0.196340E-03  0.347E-03    0.15       2.5  T
   5   -258.8608711 -0.355527E-05  0.446E-04    0.15      19.8  T
   6   -258.8608712 -0.357824E-07  0.224E-04    0.15      39.5  T
   7   -258.8608712 -0.104462E-07  0.109E-04    0.15      80.7  T
     SCC iter.                  ...        0 min,  0.314 sec
     gradient                   ...        0 min,  0.135 sec
 * total energy  :  -254.6432517 Eh     change       -0.3238697E-05 Eh
   gradient norm :     0.0004925 Eh/α   predicted    -0.1646092E-05 ( -49.17%)
   displ. norm   :     0.0563773 α      lambda       -0.2427721E-05
   maximum displ.:     0.0278140 α      in ANC's #3, #2, #4, ...

   *** GEOMETRY OPTIMIZATION CONVERGED AFTER 13 ITERATIONS ***

------------------------------------------------------------------------
 total energy gain   :        -0.0206337 Eh      -12.9478 kcal/mol
 total RMSD          :         0.1344675 a0        0.0712 Å
 total power (kW/mol):        -4.1672076 (step)   -7.4272 (real)
------------------------------------------------------------------------

 ANCopt (total)                0 d,  0 h,  0 min,  7.294 sec
 optimizer setup                ...        0 min,  0.002 sec (  0.027%)
 model hessian                  ...        0 min,  0.088 sec (  1.206%)
 ANC generation                 ...        0 min,  0.023 sec (  0.315%)
 coordinate transformation      ...        0 min,  0.004 sec (  0.055%)
 single point calculation       ...        0 min,  7.156 sec ( 98.108%)
 optimization log               ...        0 min,  0.013 sec (  0.178%)
 hessian update                 ...        0 min,  0.002 sec (  0.027%)
 rational function              ...        0 min,  0.002 sec (  0.027%)

================
 final structure:
================
128
 xtb: 6.7.1pre (5071a88)
C           -3.16440404677674       -7.01070415713617        0.24633069569072
C            1.14850692973158       -7.35830669121373        0.31350699189880
C           -0.93518782441176       -6.01905597476896        0.69571329169428
O            5.35619355323144       -7.45360511567367        0.08524916412799
C            3.29207404792154       -6.23500854950454        0.16002807043772
C            1.21489480546609       -4.93040379147873        0.31089002372045
C           -1.86791685184808       -7.12067833950594        0.63591458109059
C           -3.89590888255607       -5.86729077229931       -0.22107605772247
C            2.50287292477597       -7.41611440465282        0.20555680033845
C            0.45356795690660       -6.12486670333401        0.42482439384014
C           -1.46821349376953       -4.75421852394806        0.94060372534639
C            7.46742180661054       -6.33075340959181        0.05164075477423
C            5.42536131121497       -5.04926201889635        0.04659746898049
C            3.35211985755497       -3.77186398821492        0.06950402800835
C            5.51813289940094       -2.61655900110629        0.01433926848527
C            7.71172071413596       -1.58698037742636        0.09773830603631
C            6.69803958356210       -7.44545307400205        0.06417856608400
C            4.69117470730987       -6.25023694338026        0.09015833903535
C            2.61769088775084       -4.97901764001038        0.17909133147790
C            0.56195077769892       -3.66852671208207        0.26301039996719
C            6.82513437347992       -5.06493225201319        0.04417868469159
C            4.74529379291325       -3.80378667513047        0.02098986950266
C            2.70224547475809       -2.51340207890151       -0.03382190262925
C            6.92825886413099       -2.71717349718934        0.05706840925829
C            4.88036860011527       -1.34970398508916       -0.00247274939544
C            7.10499223036499       -0.32335028516957        0.20119611530892
C           -7.37899302720217       -6.82445439021763       -0.20058693262326
C           -5.26570186557578       -5.82910019817739       -0.29562823334710
C           -7.28720153291279       -4.45431519620705       -0.48704427297493
O           -3.18443006952126       -4.72602816767686       -0.59794944051965
C           -5.10809911537002       -3.39475259879587       -0.38522126448684
C           -7.18519872143978       -2.10678266080624       -0.42255906926936
C           -0.82845157678097       -3.59643934017418        0.49055534645009
C           -2.94575760911891       -2.34859736755337       -0.02728963850110
C           -5.01118946991913       -0.99458811480980       -0.19624848428031
C           -7.09261839982802        0.30199204886331       -0.32933790195997
C           -8.04629984866027       -5.67392571983467       -0.40020625833456
C           -5.92526101579161       -4.56962667397474       -0.46989072961741
O           -7.93321097051354       -3.26268526348863       -0.52595463654817
C           -3.73962825899369       -3.49639913440051       -0.31912807893477
C           -5.78461224964800       -2.16058629697776       -0.31210782616014
C           -7.83114572984808       -0.88340496972951       -0.41013914400132
C            1.28795465645162       -2.48131046610242        0.04080628123712
C           -6.90465003849119        2.71194772840073       -0.15189714734114
O            1.80332838750401        7.16260929640608       -0.14936026906488
C           -0.80878059895733       -1.18817321749809        0.10569682857262
O            7.93726715453279        3.22645172063012       -0.07512426551568
C           -2.87907072004605        0.13788389747952        0.04060286311965
C            5.88763425650777        4.51525376970115       -0.23248345449386
C           -4.91904684515499        1.43387496597266       -0.21204344584820
C            3.83616464676870        5.88253579304655       -0.25381189625822
C            3.45307998076395       -1.33503204280223       -0.19629012951084
C           -4.57791745450448        4.02072064377244        1.02997052095432
C            1.34552503172312       -0.07161325460406       -0.20991284468848
C           -6.71827877453668        5.14709891281045        0.50776287576629
C           -0.70342269708820        1.25249330171116       -0.05355231052323
C            8.08309642102855        5.55697260719280       -0.21508624424559
C           -2.72206623182949        2.59196599140198        0.25847649079143
C            5.71055325671094       -0.22440345297232        0.23344420271940
C           -2.53036468531926        5.06077657924141        0.32516707081035
C            3.37877666145846        1.02021071710550       -0.92208852159036
C           -4.57119557006096        6.35852775904353        0.45502565517680
C            1.47100631212326        2.35073781283363       -0.29856815580572
C           -6.55874198080898        7.55068679774185        0.45191638230239
C           -0.53839752791452        3.69805850979284        0.03482857647673
C            7.86718152277455        0.89169212916062        0.22929244719650
C           -0.35593786323379        6.15544837538132        0.00383453644508
C            5.79216913393898        2.14351420057369        0.14335477884554
C           -2.36173575221043        7.49396783681729        0.23092598774294
C            3.67840339726754        3.41639231157209       -0.39798889228778
C            1.64933977387214        4.77503017424844       -0.22279716996038
C           -1.54507028477316       -2.38498737721748        0.21903916600863
C            7.21940535291410        2.09031399634078        0.11920591363052
C           -1.01305033142910        7.41167481970951        0.07313218038456
C           -3.60790362560651       -1.07676066437829       -0.05927650456676
C            5.10487085292483        3.29741735983564       -0.19696265514795
C           -5.66727762175158        0.25227679124867       -0.25687686647133
C            3.07553154334676        4.65629426380283       -0.30210628557470
C           -7.68462176863793        1.58644204251027       -0.17435651295693
C            1.04347569267458        6.02854987326242       -0.13418989418618
C            0.60502019314626       -1.24576910726538        0.01846854311392
C           -1.46705737062698        0.06862338537322        0.03937623014616
C            7.28762754168483        4.42375643507457       -0.16761328540204
C           -3.53383304533088        1.41353774235819        0.05502900221093
C            5.28893477332157        5.79129375611128       -0.29231837276629
O           -5.57293789553710        2.61346366145685       -0.47484938681705
C            3.14221928256772        7.04980627672480       -0.19239678616285
C            2.73454295574594       -0.13424898439793       -0.47459859494727
C           -5.27961080156198        5.18322912774031        0.71891947416379
C            0.69298365710699        1.17815820283209       -0.21886656807358
C           -7.32608000085556        6.44997750608717        0.55010990820130
C           -1.33506626394038        2.51417783428751        0.07264365416064
C            7.48547377977682        6.80152318618561       -0.32436615978421
C           -3.27093104342710        3.87509307740753        0.56611885186364
O            5.14448268858943        0.99465789478550        0.53006328539567
C           -3.16094099130037        6.32917870618756        0.36228242038798
C            2.84857993637345        2.26230622937914       -0.57947818655124
O           -5.21955489429583        7.54714126858759        0.30299189913857
C            0.85235706764191        3.60921550961091       -0.14870770437488
C           -1.13621702727612        4.97420302364153        0.10575943219967
H           -3.77937471140653       -7.90079695337367        0.28372489728998
H            0.58475844610753       -8.27790651579923        0.34764656797785
H           -1.51274659418780       -8.11105662680953        0.88474297717203
H            3.01042479784145       -8.36767631199061        0.15740810600173
H            8.54083780655444       -6.39514194310791        0.04511854462163
H            8.78582565752430       -1.67193245152839        0.08577918638911
H            7.10369221181654       -8.44532817757102        0.06306006029871
H           -7.87005383570915       -7.77920805267751       -0.08728859919290
H           -9.11940359296930       -5.64866096287015       -0.45463012686036
H           -8.90757092206575       -0.84620559746933       -0.46508380261650
H            9.15436024398861        5.44564965432576       -0.17058529131743
H           -6.95495600613769        8.55505007621641        0.43308855123650
H            8.94273686183146        0.85129507104191        0.20996766110597
H           -2.85295941566996        8.45460598366144        0.26624746540158
H           -0.41407272186500        8.30569983106410       -0.01039016065377
H           -8.74509641388587        1.66551335621409        0.00049845672036
H            3.60273781382067        8.02525476464277       -0.17095221770575
H           -8.39832045564463        6.54628345977443        0.59933337354442
H            8.10223308948235        7.68550415072744       -0.37633825844429
O            7.55796695870488       -3.93977164964467        0.04934506885374
C           -7.41142271993665        4.01250380687809        0.16915563934156
C            6.11101933362558        6.91818812392028       -0.35373098162937
O           -6.04062478588293       -6.95564242095546       -0.10125624031361
H           -8.48749064701914        4.09867319946034        0.09592176651476
H            5.67229506546158        7.89962046524381       -0.42781330152769
H            4.29442940013558        0.94971241599326       -1.48800360791783
H           -2.40707203605604       -4.67611388833870        1.46731583030864
H           -5.06790557174180        3.22461596331087        1.56705948221534
 
 Bond Distances (Angstroems)
 ---------------------------
C1-C7=1.3582         C1-C8=1.4356         C1-H101=1.0825       C2-C9=1.3599         C2-C10=1.4201        C2-H102=1.0792       
C3-C7=1.4447         C3-C10=1.4189        C3-C11=1.3942        O4-C17=1.3420        O4-C18=1.3749        C5-C9=1.4212         
C5-C18=1.4009        C5-C19=1.4257        C6-C10=1.4210        C6-C19=1.4098        C6-C20=1.4216        C7-C1=1.3582         
C7-C3=1.4447         C7-H103=1.0812       C8-C1=1.4356         C8-C28=1.3724        C8-O30=1.3967        C9-C2=1.3599         
C9-C5=1.4212         C9-H104=1.0795       C10-C2=1.4201        C10-C3=1.4189        C10-C6=1.4210        C11-C3=1.3942        
C11-C33=1.3972       C11-H127=1.0793      C12-C17=1.3545       C12-C21=1.4195       C12-H105=1.0754      C13-C18=1.4083       
C13-C21=1.3999       C13-C22=1.4193       C14-C19=1.4173       C14-C22=1.3944       C14-C23=1.4201       C15-C22=1.4166       
C15-C24=1.4144       C15-C25=1.4184       C16-C24=1.3758       C16-C26=1.4056       C16-H106=1.0775      C17-O4=1.3420        
C17-C12=1.3545       C17-H107=1.0790      C18-O4=1.3749        C18-C5=1.4009        C18-C13=1.4083       C19-C5=1.4257        
C19-C6=1.4098        C19-C14=1.4173       C20-C6=1.4216        C20-C33=1.4107       C20-C43=1.4092       C21-C12=1.4195       
C21-C13=1.3999       C21-O120=1.3428      C22-C13=1.4193       C22-C14=1.3944       C22-C15=1.4166       C23-C14=1.4201       
C23-C43=1.4166       C23-C52=1.4067       C24-C15=1.4144       C24-C16=1.3758       C24-O120=1.3753      C25-C15=1.4184       
C25-C52=1.4405       C25-C59=1.4182       C26-C16=1.4056       C26-C59=1.3983       C26-C66=1.4346       C27-C37=1.3449       
C27-H108=1.0796      C27-O123=1.3484      C28-C8=1.3724        C28-C38=1.4324       C28-O123=1.3811      C29-C37=1.4392       
C29-C38=1.3669       C29-O39=1.3560       O30-C8=1.3967        O30-C40=1.3777       C31-C38=1.4336       C31-C40=1.3738       
C31-C41=1.4093       C32-O39=1.3807       C32-C41=1.4060       C32-C42=1.3835       C33-C11=1.3972       C33-C20=1.4107       
C33-C72=1.4335       C34-C40=1.4258       C34-C72=1.4226       C34-C75=1.4342       C35-C41=1.4040       C35-C75=1.4123       
C35-C77=1.4102       C36-C42=1.3990       C36-C77=1.4280       C36-C79=1.4228       C37-C27=1.3449       C37-C29=1.4392       
C37-H109=1.0748      C38-C28=1.4324       C38-C29=1.3669       C38-C31=1.4336       O39-C29=1.3560       O39-C32=1.3807       
C40-O30=1.3777       C40-C31=1.3738       C40-C34=1.4258       C41-C31=1.4093       C41-C32=1.4060       C41-C35=1.4040       
C42-C32=1.3835       C42-C36=1.3990       C42-H110=1.0785      C43-C20=1.4092       C43-C23=1.4166       C43-C81=1.4119       
C44-C79=1.3695       C44-O86=1.3738       C44-C121=1.4322      O45-C80=1.3652       O45-C87=1.3443       C46-C72=1.4097       
C46-C81=1.4177       C46-C82=1.4203       O47-C73=1.3579       O47-C83=1.3653       C48-C75=1.4200       C48-C82=1.4137       
C48-C84=1.4340       C49-C76=1.4481       C49-C83=1.4045       C49-C85=1.4108       C50-C77=1.3993       C50-C84=1.4109       
C50-O86=1.3741       C51-C78=1.4438       C51-C85=1.4561       C51-C87=1.3594       C52-C23=1.4067       C52-C25=1.4405       
C52-C88=1.4268       C53-C89=1.3930       C53-C94=1.3945       C53-H128=1.0781      C54-C81=1.4068       C54-C88=1.4154       
C54-C90=1.4099       C55-C89=1.4545       C55-C91=1.4383       C55-C121=1.3720      C56-C82=1.4119       C56-C90=1.4081       
C56-C92=1.4166       C57-C83=1.3854       C57-C93=1.3849       C57-H111=1.0780      C58-C84=1.4454       C58-C92=1.4016       
C58-C94=1.4291       C59-C25=1.4182       C59-C26=1.3983       C59-O95=1.3764       C60-C94=1.4186       C60-C96=1.4170       
C60-C100=1.4140      C61-C88=1.3957       C61-C97=1.3933       C61-H126=1.0787      C62-C89=1.3974       C62-C96=1.4136       
C62-O98=1.3625       C63-C90=1.4095       C63-C97=1.4087       C63-C99=1.4103       C64-C91=1.3454       C64-O98=1.3474       
C64-H112=1.0799      C65-C92=1.4275       C65-C99=1.4056       C65-C100=1.4110      C66-C26=1.4346       C66-C73=1.3669       
C66-H113=1.0765      C67-C74=1.4194       C67-C80=1.4119       C67-C100=1.4194      C68-C73=1.4284       C68-C76=1.3855       
C68-O95=1.3744       C69-C74=1.3604       C69-C96=1.4187       C69-H114=1.0795      C70-C76=1.4455       C70-C78=1.3820       
C70-C97=1.4330       C71-C78=1.4333       C71-C80=1.3951       C71-C99=1.4141       C72-C33=1.4335       C72-C34=1.4226       
C72-C46=1.4097       C73-O47=1.3579       C73-C66=1.3669       C73-C68=1.4284       C74-C67=1.4194       C74-C69=1.3604       
C74-H115=1.0794      C75-C34=1.4342       C75-C35=1.4123       C75-C48=1.4200       C76-C49=1.4481       C76-C68=1.3855       
C76-C70=1.4455       C77-C35=1.4102       C77-C36=1.4280       C77-C50=1.3993       C78-C51=1.4438       C78-C70=1.3820       
C78-C71=1.4333       C79-C36=1.4228       C79-C44=1.3695       C79-H116=1.0777      C80-O45=1.3652       C80-C67=1.4119       
C80-C71=1.3951       C81-C43=1.4119       C81-C46=1.4177       C81-C54=1.4068       C82-C46=1.4203       C82-C48=1.4137       
C82-C56=1.4119       C83-O47=1.3653       C83-C49=1.4045       C83-C57=1.3854       C84-C48=1.4340       C84-C50=1.4109       
C84-C58=1.4454       C85-C49=1.4108       C85-C51=1.4561       C85-C122=1.3962      O86-C44=1.3738       O86-C50=1.3741       
C87-O45=1.3443       C87-C51=1.3594       C87-H117=1.0789      C88-C52=1.4268       C88-C54=1.4154       C88-C61=1.3957       
C89-C53=1.3930       C89-C55=1.4545       C89-C62=1.3974       C90-C54=1.4099       C90-C56=1.4081       C90-C63=1.4095       
C91-C55=1.4383       C91-C64=1.3454       C91-H118=1.0777      C92-C56=1.4166       C92-C58=1.4016       C92-C65=1.4275       
C93-C57=1.3849       C93-H119=1.0791      C93-C122=1.3797      C94-C53=1.3945       C94-C58=1.4291       C94-C60=1.4186       
O95-C59=1.3764       O95-C68=1.3744       C96-C60=1.4170       C96-C62=1.4136       C96-C69=1.4187       C97-C61=1.3933       
C97-C63=1.4087       C97-C70=1.4330       O98-C62=1.3625       O98-C64=1.3474       C99-C63=1.4103       C99-C65=1.4056       
C99-C71=1.4141       C100-C60=1.4140      C100-C65=1.4110      C100-C67=1.4194      H101-C1=1.0825       H102-C2=1.0792       
H103-C7=1.0812       H104-C9=1.0795       H105-C12=1.0754      H106-C16=1.0775      H107-C17=1.0790      H108-C27=1.0796      
H109-C37=1.0748      H110-C42=1.0785      H111-C57=1.0780      H112-C64=1.0799      H113-C66=1.0765      H114-C69=1.0795      
H115-C74=1.0794      H116-C79=1.0777      H117-C87=1.0789      H118-C91=1.0777      H119-C93=1.0791      O120-C21=1.3428      
O120-C24=1.3753      C121-C44=1.4322      C121-C55=1.3720      C121-H124=1.0820     C122-C85=1.3962      C122-C93=1.3797      
C122-H125=1.0776     O123-C27=1.3484      O123-C28=1.3811      H124-C121=1.0820     H125-C122=1.0776     H126-C61=1.0787      
H127-C11=1.0793      H128-C53=1.0781      
 C  H  Rav=1.0787 sigma=0.0017  Rmin=1.0748  Rmax=1.0825    24
 C  C  Rav=1.4092 sigma=0.0229  Rmin=1.3449  Rmax=1.4561   119
 O  C  Rav=1.3658 sigma=0.0148  Rmin=1.3420  Rmax=1.3967    20
 
 selected bond angles (degree)
 --------------------
C8-C1-C7=130.11                H101-C1-C7=117.76              H101-C1-C8=112.13              C10-C2-C9=122.04               
H102-C2-C9=119.11              H102-C2-C10=118.82             C10-C3-C7=124.55               C11-C3-C7=116.89               
C11-C3-C10=118.38              C18-O4-C17=118.58              C18-C5-C9=123.17               C19-C5-C9=117.97               
C19-C5-C18=118.86              C19-C6-C10=120.77              C20-C6-C10=120.18              C20-C6-C19=118.98              
C3-C7-C1=124.50                H103-C7-C1=116.99              H103-C7-C3=118.48              C28-C8-C1=123.26               
O30-C8-C1=118.63               O30-C8-C28=118.10              C5-C9-C2=121.35                H104-C9-C2=120.61              
H104-C9-C5=118.04              C3-C10-C2=123.97               C6-C10-C2=117.49               C6-C10-C3=118.49               
 
 selected dihedral angles (degree)
 ---------------------------------
C3-C7-C1-C8=  2.26            C3-C7-C1-H101=182.62          H103-C7-C1-C8=184.35          H103-C7-C1-H101=  4.71        
C1-C7-C3-C10=213.76           C1-C7-C3-C11= 28.80           H103-C7-C3-C10= 31.63         H103-C7-C3-C11=206.67         
C28-C8-C1-C7=195.16           C28-C8-C1-H101= 14.81         O30-C8-C1-C7= 14.00           O30-C8-C1-H101=193.66         
C5-C9-C2-C10=358.16           C5-C9-C2-H102=180.16          H104-C9-C2-C10=177.82         H104-C9-C2-H102=359.82        
C2-C9-C5-C18=178.00           C2-C9-C5-C19=357.63           H104-C9-C5-C18=358.34         H104-C9-C5-C19=177.97         
C3-C10-C2-C9=187.69           C3-C10-C2-H102=  5.69         C6-C10-C2-C9=  5.00           C6-C10-C2-H102=183.00         
C2-C10-C3-C7=347.34           C2-C10-C3-C11=172.37          C6-C10-C3-C7=170.05           C6-C10-C3-C11=355.08          
C2-C10-C6-C19=356.01          C2-C10-C6-C20=172.94          C3-C10-C6-C19=173.48          C3-C10-C6-C20=350.40          
           -------------------------------------------------
          |                Final Singlepoint                |
           -------------------------------------------------

          ...................................................
          :                      SETUP                      :
          :.................................................:
          :  # basis functions                 440          :
          :  # atomic orbitals                 440          :
          :  # shells                          232          :
          :  # electrons                       460          :
          :  max. iterations                   250          :
          :  Hamiltonian                  GFN2-xTB          :
          :  restarted?                      false          :
          :  GBSA solvation                  false          :
          :  PC potential                    false          :
          :  electronic temp.          300.0000000     K    :
          :  accuracy                    1.0000000          :
          :  -> integral cutoff          0.2500000E+02      :
          :  -> integral neglect         0.1000000E-07      :
          :  -> SCF convergence          0.1000000E-05 Eh   :
          :  -> wf. convergence          0.1000000E-03 e    :
          :  Broyden damping             0.4000000          :
          :  net charge                          0          :
          :  unpaired electrons                  0          :
          ...................................................

 iter      E             dE          RMSdq      gap      omega  full diag
   1   -258.8608712 -0.258861E+03  0.556E-05    0.15       0.0  T
   2   -258.8608712  0.154017E-08  0.868E-05    0.15     101.8  T
   3   -258.8608712  0.575545E-08  0.155E-04    0.15      57.0  T

   *** convergence criteria satisfied after 3 iterations ***

         #    Occupation            Energy/Eh            Energy/eV
      -------------------------------------------------------------
         1        2.0000           -0.7590205             -20.6540
       ...           ...                  ...                  ...
       224        2.0000           -0.3607124              -9.8155
       225        2.0000           -0.3573844              -9.7249
       226        2.0000           -0.3493547              -9.5064
       227        2.0000           -0.3389496              -9.2233
       228        2.0000           -0.3325011              -9.0478
       229        2.0000           -0.3288917              -8.9496
       230        1.9033           -0.3101294              -8.4391 (HOMO)
       231        0.0967           -0.3044667              -8.2850 (LUMO)
       232                         -0.2883402              -7.8461
       233                         -0.2837245              -7.7205
       234                         -0.2783654              -7.5747
       235                         -0.2764707              -7.5231
       ...                                ...                  ...
       440                          0.7772046              21.1488
      -------------------------------------------------------------
                  HL-Gap            0.0056627 Eh            0.1541 eV
             Fermi-level           -0.3072981 Eh           -8.3620 eV

 SCC (total)                   0 d,  0 h,  0 min,  0.382 sec
 SCC setup                      ...        0 min,  0.001 sec (  0.262%)
 Dispersion                     ...        0 min,  0.003 sec (  0.785%)
 classical contributions        ...        0 min,  0.000 sec (  0.000%)
 integral evaluation            ...        0 min,  0.034 sec (  8.901%)
 iterations                     ...        0 min,  0.132 sec ( 34.555%)
 molecular gradient             ...        0 min,  0.131 sec ( 34.293%)
 printout                       ...        0 min,  0.081 sec ( 21.204%)

         :::::::::::::::::::::::::::::::::::::::::::::::::::::
         ::                     SUMMARY                     ::
         :::::::::::::::::::::::::::::::::::::::::::::::::::::
         :: total energy            -254.643251731693 Eh    ::
         :: gradient norm              0.000490903198 Eh/a0 ::
         :: HOMO-LUMO gap              0.154090833351 eV    ::
         ::.................................................::
         :: SCC energy              -258.866905982490 Eh    ::
         :: -> isotropic ES            0.106927166934 Eh    ::
         :: -> anisotropic ES          0.011850901011 Eh    ::
         :: -> anisotropic XC          0.051869410872 Eh    ::
         :: -> dispersion             -0.276212293332 Eh    ::
         :: repulsion energy           4.223654250797 Eh    ::
         :: add. restraining           0.000000000000 Eh    ::
         :: total charge              -0.000000000000 e     ::
         :::::::::::::::::::::::::::::::::::::::::::::::::::::

           -------------------------------------------------
          |                Property Printout                |
           -------------------------------------------------

    * Orbital Energies and Occupations

         #    Occupation            Energy/Eh            Energy/eV
      -------------------------------------------------------------
         1        2.0000           -0.7590205             -20.6540
       ...           ...                  ...                  ...
       218        2.0000           -0.3853566             -10.4861
       219        2.0000           -0.3832790             -10.4296
       220        2.0000           -0.3820503             -10.3961
       221        2.0000           -0.3778738             -10.2825
       222        2.0000           -0.3743720             -10.1872
       223        2.0000           -0.3683297             -10.0228
       224        2.0000           -0.3607124              -9.8155
       225        2.0000           -0.3573844              -9.7249
       226        2.0000           -0.3493547              -9.5064
       227        2.0000           -0.3389496              -9.2233
       228        2.0000           -0.3325011              -9.0478
       229        2.0000           -0.3288917              -8.9496
       230        1.9033           -0.3101294              -8.4391 (HOMO)
       231        0.0967           -0.3044667              -8.2850 (LUMO)
       232                         -0.2883402              -7.8461
       233                         -0.2837245              -7.7205
       234                         -0.2783654              -7.5747
       235                         -0.2764707              -7.5231
       236                         -0.2665966              -7.2545
       237                         -0.2633184              -7.1653
       238                         -0.2553845              -6.9494
       239                         -0.2505551              -6.8180
       240                         -0.2496700              -6.7939
       241                         -0.2415391              -6.5726
       ...                                ...                  ...
       440                          0.7772046              21.1488
      -------------------------------------------------------------
                  HL-Gap            0.0056627 Eh            0.1541 eV
             Fermi-level           -0.3072981 Eh           -8.3620 eV

     #   Z          covCN         q      C6AA      α(0)
     1   6 C        2.897    -0.051    29.276     8.871
     2   6 C        2.913    -0.032    28.796     8.799
     3   6 C        2.968     0.008    27.839     8.655
     4   8 O        1.708    -0.188    17.141     5.590
     5   6 C        2.975    -0.012    28.300     8.726
     6   6 C        2.993     0.000    28.017     8.683
     7   6 C        2.903    -0.039    28.962     8.824
     8   6 C        2.848     0.096    25.868     8.336
     9   6 C        2.912    -0.037    28.927     8.819
    10   6 C        2.980     0.007    27.863     8.659
    11   6 C        2.938    -0.023    28.568     8.766
    12   6 C        2.902    -0.075    29.877     8.962
    13   6 C        2.985    -0.025    28.610     8.774
    14   6 C        2.992    -0.003    28.089     8.694
    15   6 C        2.994    -0.015    28.377     8.738
    16   6 C        2.916    -0.075    29.878     8.963
    17   6 C        2.817     0.098    25.816     8.325
    18   6 C        2.883     0.118    25.413     8.264
    19   6 C        2.992     0.002    27.966     8.675
    20   6 C        2.998    -0.000    28.026     8.684
    21   6 C        2.886     0.147    24.813     8.167
    22   6 C        3.000    -0.000    28.025     8.684
    23   6 C        2.994     0.001    27.989     8.678
    24   6 C        2.876     0.125    25.265     8.240
    25   6 C        2.971    -0.014    28.348     8.733
    26   6 C        2.977    -0.001    28.044     8.687
    27   6 C        2.815     0.102    25.733     8.311
    28   6 C        2.873     0.099    25.795     8.326
    29   6 C        2.883     0.142    24.902     8.181
    30   8 O        1.709    -0.254    18.200     5.760
    31   6 C        2.998    -0.022    28.538     8.763
    32   6 C        2.875     0.128    25.200     8.229
    33   6 C        2.982     0.007    27.848     8.656
    34   6 C        2.974    -0.017    28.431     8.746
    35   6 C        2.999    -0.009    28.232     8.716
    36   6 C        2.981     0.015    27.666     8.628
    37   6 C        2.905    -0.079    29.969     8.976
    38   6 C        2.994    -0.026    28.645     8.779
    39   8 O        1.708    -0.227    17.763     5.690
    40   6 C        2.866     0.122    25.309     8.246
    41   6 C        2.999    -0.018    28.447     8.749
    42   6 C        2.914    -0.071    29.772     8.947
    43   6 C        2.993    -0.006    28.155     8.704
    44   6 C        2.854     0.140    24.938     8.185
    45   8 O        1.709    -0.194    17.234     5.605
    46   6 C        2.991     0.001    28.003     8.680
    47   8 O        1.710    -0.228    17.774     5.692
    48   6 C        2.989     0.001    28.008     8.681
    49   6 C        2.993    -0.013    28.323     8.730
    50   6 C        2.872     0.122    25.319     8.248
    51   6 C        2.964    -0.016    28.409     8.743
    52   6 C        2.980     0.000    28.013     8.682
    53   6 C        2.934    -0.029    28.722     8.789
    54   6 C        3.002    -0.000    28.018     8.683
    55   6 C        2.968     0.025    27.440     8.592
    56   6 C        2.992    -0.003    28.082     8.693
    57   6 C        2.916    -0.055    29.378     8.888
    58   6 C        2.977    -0.003    28.085     8.693
    59   6 C        2.876     0.113    25.505     8.279
    60   6 C        3.002     0.002    27.965     8.675
    61   6 C        2.932    -0.030    28.738     8.792
    62   6 C        2.897     0.124    25.282     8.244
    63   6 C        3.003    -0.002    28.071     8.691
    64   6 C        2.820     0.093    25.933     8.344
    65   6 C        2.990    -0.006    28.168     8.706
    66   6 C        2.915    -0.082    30.053     8.990
    67   6 C        2.976    -0.012    28.306     8.727
    68   6 C        2.867     0.106    25.647     8.301
    69   6 C        2.912    -0.032    28.806     8.801
    70   6 C        2.976    -0.009    28.235     8.716
    71   6 C        2.985    -0.016    28.408     8.743
    72   6 C        2.978    -0.002    28.064     8.690
    73   6 C        2.865     0.127    25.210     8.230
    74   6 C        2.913    -0.035    28.876     8.812
    75   6 C        2.988    -0.005    28.134     8.701
    76   6 C        2.971    -0.018    28.446     8.749
    77   6 C        2.991    -0.019    28.473     8.753
    78   6 C        2.997     0.008    27.829     8.654
    79   6 C        2.911    -0.074    29.852     8.959
    80   6 C        2.885     0.123    25.289     8.244
    81   6 C        2.994    -0.001    28.037     8.686
    82   6 C        2.990    -0.001    28.043     8.687
    83   6 C        2.882     0.133    25.085     8.211
    84   6 C        2.968    -0.023    28.567     8.767
    85   6 C        2.977     0.003    27.954     8.673
    86   8 O        1.712    -0.234    17.874     5.708
    87   6 C        2.819     0.090    25.996     8.354
    88   6 C        2.990     0.007    27.861     8.658
    89   6 C        2.985    -0.012    28.301     8.726
    90   6 C        2.998    -0.003    28.093     8.694
    91   6 C        2.907    -0.066    29.654     8.929
    92   6 C        2.992     0.002    27.965     8.675
    93   6 C        2.918    -0.031    28.770     8.796
    94   6 C        2.987     0.000    28.014     8.682
    95   8 O        1.711    -0.231    17.829     5.701
    96   6 C        2.978    -0.012    28.299     8.726
    97   6 C        2.990     0.005    27.900     8.665
    98   8 O        1.709    -0.199    17.322     5.619
    99   6 C        2.997    -0.003    28.078     8.692
   100   6 C        2.995     0.003    27.958     8.674
   101   1 H        0.925     0.044     2.392     2.419
   102   1 H        0.926     0.037     2.486     2.466
   103   1 H        0.926     0.031     2.570     2.507
   104   1 H        0.926     0.038     2.474     2.460
   105   1 H        0.926     0.070     2.084     2.257
   106   1 H        0.926     0.055     2.255     2.348
   107   1 H        0.926     0.071     2.070     2.250
   108   1 H        0.926     0.067     2.115     2.274
   109   1 H        0.926     0.066     2.133     2.284
   110   1 H        0.926     0.047     2.363     2.404
   111   1 H        0.926     0.053     2.281     2.362
   112   1 H        0.926     0.051     2.311     2.377
   113   1 H        0.926     0.047     2.357     2.401
   114   1 H        0.926     0.042     2.426     2.436
   115   1 H        0.926     0.041     2.436     2.441
   116   1 H        0.926     0.039     2.458     2.451
   117   1 H        0.926     0.056     2.250     2.346
   118   1 H        0.926     0.043     2.410     2.428
   119   1 H        0.926     0.043     2.408     2.427
   120   8 O        1.709    -0.205    17.419     5.635
   121   6 C        2.903    -0.083    30.073     8.992
   122   6 C        2.920    -0.048    29.187     8.859
   123   8 O        1.707    -0.211    17.507     5.649
   124   1 H        0.925     0.037     2.493     2.469
   125   1 H        0.926     0.036     2.501     2.473
   126   1 H        0.926     0.028     2.614     2.529
   127   1 H        0.926     0.033     2.539     2.492
   128   1 H        0.926     0.041     2.440     2.443

 Mol. C6AA /au·bohr⁶  :     329204.176275
 Mol. C8AA /au·bohr⁸  :    8873550.689781
 Mol. α(0) /au        :        926.990815


Wiberg/Mayer (AO) data.
largest (>0.10) Wiberg bond orders for each atom

 ---------------------------------------------------------------------------
     #   Z sym  total        # sym  WBO       # sym  WBO       # sym  WBO
 ---------------------------------------------------------------------------
     1   6 C    3.951 --     7 C    1.662     8 C    1.174   101 H    0.962
     2   6 C    3.968 --     9 C    1.608    10 C    1.239   102 H    0.965
     3   6 C    3.939 --    11 C    1.367    10 C    1.257     7 C    1.137
     4   8 O    2.337 --    17 C    1.125    18 C    1.026
     5   6 C    3.963 --    18 C    1.313     9 C    1.223    19 C    1.216
     6   6 C    3.971 --    19 C    1.281    10 C    1.246    20 C    1.220
     7   6 C    3.933 --     1 C    1.662     3 C    1.137   103 H    0.961
     8   6 C    3.896 --    28 C    1.491     1 C    1.174    30 O    0.983
     9   6 C    3.951 --     2 C    1.608     5 C    1.223   104 H    0.968
    10   6 C    3.940 --     3 C    1.257     6 C    1.246     2 C    1.239
    11   6 C    3.918 --     3 C    1.367    33 C    1.317   127 H    0.965
    12   6 C    3.965 --    17 C    1.611    21 C    1.215   105 H    0.964
    13   6 C    3.975 --    21 C    1.289    18 C    1.262    22 C    1.188
    14   6 C    3.974 --    22 C    1.308    19 C    1.235    23 C    1.203
    15   6 C    3.963 --    25 C    1.259    24 C    1.242    22 C    1.224
    16   6 C    3.922 --    24 C    1.444    26 C    1.290   106 H    0.965
    17   6 C    3.810 --    12 C    1.611     4 O    1.125   107 H    0.958
    18   6 C    3.806 --     5 C    1.313    13 C    1.262     4 O    1.026
    19   6 C    3.945 --     6 C    1.281    14 C    1.235     5 C    1.216
    20   6 C    3.960 --    33 C    1.261    43 C    1.255     6 C    1.220
    21   6 C    3.754 --    13 C    1.289    12 C    1.215   120 O    1.108
    22   6 C    3.955 --    14 C    1.308    15 C    1.224    13 C    1.188
    23   6 C    3.971 --    52 C    1.312    43 C    1.232    14 C    1.203
    24   6 C    3.903 --    16 C    1.444    15 C    1.242   120 O    1.023
    25   6 C    3.955 --    59 C    1.270    15 C    1.259    52 C    1.186
    26   6 C    3.971 --    59 C    1.335    16 C    1.290    66 C    1.173
    27   6 C    3.907 --    37 C    1.693   123 O    1.108   108 H    0.957
    28   6 C    3.881 --     8 C    1.491    38 C    1.149   123 O    1.009
    29   6 C    3.876 --    38 C    1.461    37 C    1.137    39 O    1.076
    30   8 O    2.276 --    40 C    1.019     8 C    0.983
    31   6 C    3.943 --    40 C    1.408    41 C    1.204    38 C    1.116
    32   6 C    3.843 --    42 C    1.406    41 C    1.264    39 O    1.017
    33   6 C    3.960 --    11 C    1.317    20 C    1.261    72 C    1.177
    34   6 C    3.940 --    72 C    1.241    40 C    1.230    75 C    1.226
    35   6 C    3.974 --    75 C    1.260    41 C    1.257    77 C    1.232
    36   6 C    3.916 --    42 C    1.341    79 C    1.222    77 C    1.203
    37   6 C    3.965 --    27 C    1.693    29 C    1.137   109 H    0.965
    38   6 C    3.976 --    29 C    1.461    28 C    1.149    31 C    1.116
    39   8 O    2.318 --    29 C    1.076    32 C    1.017
    40   6 C    3.905 --    31 C    1.408    34 C    1.230    30 O    1.019
    41   6 C    3.962 --    32 C    1.264    35 C    1.257    31 C    1.204
    42   6 C    3.939 --    32 C    1.406    36 C    1.341   110 H    0.966
    43   6 C    3.953 --    20 C    1.255    81 C    1.244    23 C    1.232
    44   6 C    3.878 --    79 C    1.515   121 C    1.192    86 O    1.027
    45   8 O    2.362 --    87 C    1.114    80 C    1.045
    46   6 C    3.963 --    72 C    1.281    81 C    1.236    82 C    1.228
    47   8 O    2.345 --    73 C    1.055    83 C    1.041
    48   6 C    3.963 --    82 C    1.259    75 C    1.254    84 C    1.226
    49   6 C    3.980 --    85 C    1.307    83 C    1.300    76 C    1.131
    50   6 C    3.831 --    84 C    1.304    77 C    1.303    86 O    1.023
    51   6 C    3.973 --    87 C    1.566    78 C    1.130    85 C    1.099
    52   6 C    3.936 --    23 C    1.312    88 C    1.193    25 C    1.186
    53   6 C    3.888 --    89 C    1.336    94 C    1.331   128 H    0.965
    54   6 C    3.962 --    81 C    1.256    90 C    1.244    88 C    1.237
    55   6 C    3.931 --   121 C    1.529    91 C    1.157    89 C    1.091
    56   6 C    3.944 --    90 C    1.255    82 C    1.251    92 C    1.226
    57   6 C    3.969 --    93 C    1.415    83 C    1.389   111 H    0.967
    58   6 C    3.902 --    92 C    1.323    94 C    1.191    84 C    1.174
    59   6 C    3.869 --    26 C    1.335    25 C    1.270    95 O    1.019
    60   6 C    3.974 --    96 C    1.257   100 C    1.246    94 C    1.239
    61   6 C    3.891 --    97 C    1.339    88 C    1.329   126 H    0.966
    62   6 C    3.867 --    89 C    1.330    96 C    1.252    98 O    1.053
    63   6 C    3.950 --    97 C    1.258    90 C    1.244    99 C    1.231
    64   6 C    3.874 --    91 C    1.680    98 O    1.099   112 H    0.959
    65   6 C    3.966 --    99 C    1.278   100 C    1.258    92 C    1.202
    66   6 C    3.890 --    73 C    1.513    26 C    1.173   113 H    0.967
    67   6 C    3.953 --    80 C    1.263   100 C    1.244    74 C    1.237
    68   6 C    3.853 --    76 C    1.425    73 C    1.175    95 O    1.022
    69   6 C    3.959 --    74 C    1.600    96 C    1.239   114 H    0.968
    70   6 C    3.968 --    78 C    1.424    97 C    1.160    76 C    1.134
    71   6 C    3.964 --    80 C    1.328    99 C    1.233    78 C    1.177
    72   6 C    3.923 --    46 C    1.281    34 C    1.241    33 C    1.177
    73   6 C    3.913 --    66 C    1.513    68 C    1.175    47 O    1.055
    74   6 C    3.968 --    69 C    1.600    67 C    1.237   115 H    0.968
    75   6 C    3.974 --    35 C    1.260    48 C    1.254    34 C    1.226
    76   6 C    3.948 --    68 C    1.425    70 C    1.134    49 C    1.131
    77   6 C    3.968 --    50 C    1.303    35 C    1.232    36 C    1.203
    78   6 C    3.950 --    70 C    1.424    71 C    1.177    51 C    1.130
    79   6 C    3.917 --    44 C    1.515    36 C    1.222   116 H    0.966
    80   6 C    3.861 --    71 C    1.328    67 C    1.263    45 O    1.045
    81   6 C    3.956 --    54 C    1.256    43 C    1.244    46 C    1.236
    82   6 C    3.962 --    48 C    1.259    56 C    1.251    46 C    1.228
    83   6 C    3.919 --    57 C    1.389    49 C    1.300    47 O    1.041
    84   6 C    3.957 --    50 C    1.304    48 C    1.226    58 C    1.174
    85   6 C    3.968 --   122 C    1.368    49 C    1.307    51 C    1.099
    86   8 O    2.312 --    44 C    1.027    50 C    1.023
    87   6 C    3.834 --    51 C    1.566    45 O    1.114   117 H    0.953
    88   6 C    3.959 --    61 C    1.329    54 C    1.237    52 C    1.193
    89   6 C    3.976 --    53 C    1.336    62 C    1.330    55 C    1.091
    90   6 C    3.966 --    56 C    1.255    63 C    1.244    54 C    1.244
    91   6 C    3.969 --    64 C    1.680    55 C    1.157   118 H    0.964
    92   6 C    3.973 --    58 C    1.323    56 C    1.226    65 C    1.202
    93   6 C    3.974 --   122 C    1.457    57 C    1.415   119 H    0.970
    94   6 C    3.970 --    53 C    1.331    60 C    1.239    58 C    1.191
    95   8 O    2.315 --    68 C    1.022    59 C    1.019
    96   6 C    3.967 --    60 C    1.257    62 C    1.252    69 C    1.239
    97   6 C    3.953 --    61 C    1.339    63 C    1.258    70 C    1.160
    98   8 O    2.379 --    64 C    1.099    62 C    1.053
    99   6 C    3.965 --    65 C    1.278    71 C    1.233    63 C    1.231
   100   6 C    3.973 --    65 C    1.258    60 C    1.246    67 C    1.244
   101   1 H    0.996 --     1 C    0.962
   102   1 H    0.997 --     2 C    0.965
   103   1 H    0.996 --     7 C    0.961
   104   1 H    0.997 --     9 C    0.968
   105   1 H    0.995 --    12 C    0.964
   106   1 H    0.996 --    16 C    0.965
   107   1 H    0.994 --    17 C    0.958
   108   1 H    0.994 --    27 C    0.957
   109   1 H    0.995 --    37 C    0.965
   110   1 H    0.996 --    42 C    0.966
   111   1 H    0.996 --    57 C    0.967
   112   1 H    0.996 --    64 C    0.959
   113   1 H    0.997 --    66 C    0.967
   114   1 H    0.997 --    69 C    0.968
   115   1 H    0.997 --    74 C    0.968
   116   1 H    0.998 --    79 C    0.966
   117   1 H    0.996 --    87 C    0.953
   118   1 H    0.997 --    91 C    0.964
   119   1 H    0.997 --    93 C    0.970
   120   8 O    2.349 --    21 C    1.108    24 C    1.023
   121   6 C    3.950 --    55 C    1.529    44 C    1.192   124 H    0.961
   122   6 C    3.976 --    93 C    1.457    85 C    1.368   125 H    0.965
   123   8 O    2.372 --    27 C    1.108    28 C    1.009
   124   1 H    0.997 --   121 C    0.961
   125   1 H    0.998 --   122 C    0.965
   126   1 H    0.997 --    61 C    0.966
   127   1 H    0.997 --    11 C    0.965
   128   1 H    0.997 --    53 C    0.965
 ---------------------------------------------------------------------------

Topologies differ in total number of bonds
Writing topology from bond orders to xtbtopo.mol

molecular dipole:
                 x           y           z       tot (Debye)
 q only:        0.818      -0.774       0.350
   full:        0.751      -0.931       0.305       3.136
molecular quadrupole (traceless):
                xx          xy          yy          xz          yz          zz
 q only:       18.870     -15.267      26.357      -9.301      -1.175     -45.227
  q+dip:       46.002     -14.540      34.087     -10.380      -1.651     -80.089
   full:       29.654     -14.716      20.541      -8.977      -0.699     -50.195

           -------------------------------------------------
          |                Geometry Summary                 |
           -------------------------------------------------

      molecular mass/u    :     1313.1938018
   center of mass at/Å    :        0.0060206      -0.0020268      -0.0000559
  moments of inertia/u·Å² :        0.2782846E+05   0.3209140E+05   0.5960670E+05
rotational constants/cm⁻¹ :        0.6057696E-03   0.5253006E-03   0.2828144E-03

 * 151 selected distances

     #   Z          #   Z                                           value/Å
     1   6 C        7   6 C                                       1.3582155
     2   6 C        9   6 C                                       1.3598906
     5   6 C        9   6 C                                       1.4212398
     2   6 C       10   6 C                                       1.4201079
     3   6 C       10   6 C                                       1.4188797
     6   6 C       10   6 C                                       1.4210354
     3   6 C       11   6 C                                       1.3942388
     4   8 O       17   6 C                                       1.3420363
    12   6 C       17   6 C                                       1.3544969
     4   8 O       18   6 C                                       1.3749071
     5   6 C       18   6 C                                       1.4009271
    13   6 C       18   6 C                                       1.4082857
     5   6 C       19   6 C                                       1.4257172
     6   6 C       19   6 C                                       1.4098125
    14   6 C       19   6 C                                       1.4172564
     6   6 C       20   6 C                                       1.4216056
    12   6 C       21   6 C                                       1.4194691
    13   6 C       21   6 C                                       1.3998630
    13   6 C       22   6 C                                       1.4192804
    14   6 C       22   6 C                                       1.3943840
    15   6 C       22   6 C                                       1.4166278
    14   6 C       23   6 C                                       1.4201196
    15   6 C       24   6 C                                       1.4143566
    16   6 C       24   6 C                                       1.3757919
    15   6 C       25   6 C                                       1.4184315
    16   6 C       26   6 C                                       1.4055548
     8   6 C       28   6 C                                       1.3723519
     8   6 C       30   8 O                                       1.3966805
    11   6 C       33   6 C                                       1.3972444
    20   6 C       33   6 C                                       1.4107418
    27   6 C       37   6 C                                       1.3449397
    28   6 C       38   6 C                                       1.4323616
    29   6 C       38   6 C                                       1.3669211
    31   6 C       38   6 C                                       1.4336150
    29   6 C       39   8 O                                       1.3560326
    32   6 C       39   8 O                                       1.3806970
    30   8 O       40   6 C                                       1.3776699
    31   6 C       40   6 C                                       1.3738316
    34   6 C       40   6 C                                       1.4257803
    31   6 C       41   6 C                                       1.4093198
    32   6 C       41   6 C                                       1.4059648
    35   6 C       41   6 C                                       1.4039795
    32   6 C       42   6 C                                       1.3834938
    36   6 C       42   6 C                                       1.3989703
    20   6 C       43   6 C                                       1.4092335
    23   6 C       43   6 C                                       1.4166221
    23   6 C       52   6 C                                       1.4066644
    25   6 C       59   6 C                                       1.4181555
    26   6 C       59   6 C                                       1.3983171
    33   6 C       72   6 C                                       1.4334851
    34   6 C       72   6 C                                       1.4226480
    46   6 C       72   6 C                                       1.4097282
    47   8 O       73   6 C                                       1.3579024
    66   6 C       73   6 C                                       1.3669044
    68   6 C       73   6 C                                       1.4284317
    67   6 C       74   6 C                                       1.4194028
    69   6 C       74   6 C                                       1.3603763
    34   6 C       75   6 C                                       1.4342348 (max)
    35   6 C       75   6 C                                       1.4123474
    48   6 C       75   6 C                                       1.4200476
    68   6 C       76   6 C                                       1.3855280
    35   6 C       77   6 C                                       1.4102482
    36   6 C       77   6 C                                       1.4280472
    50   6 C       77   6 C                                       1.3992977
    70   6 C       78   6 C                                       1.3820294
    71   6 C       78   6 C                                       1.4333218
    36   6 C       79   6 C                                       1.4227788
    44   6 C       79   6 C                                       1.3695341
    45   8 O       80   6 C                                       1.3651730
    67   6 C       80   6 C                                       1.4119181
    71   6 C       80   6 C                                       1.3950751
    43   6 C       81   6 C                                       1.4118999
    46   6 C       81   6 C                                       1.4176597
    54   6 C       81   6 C                                       1.4068219
    46   6 C       82   6 C                                       1.4203045
    48   6 C       82   6 C                                       1.4137116
    56   6 C       82   6 C                                       1.4118506
    47   8 O       83   6 C                                       1.3653295
    49   6 C       83   6 C                                       1.4044791
    57   6 C       83   6 C                                       1.3853533
    48   6 C       84   6 C                                       1.4339508
    50   6 C       84   6 C                                       1.4108717
    49   6 C       85   6 C                                       1.4107798
    44   6 C       86   8 O                                       1.3738467
    50   6 C       86   8 O                                       1.3740707
    45   8 O       87   6 C                                       1.3443236
    51   6 C       87   6 C                                       1.3593575
    52   6 C       88   6 C                                       1.4267555
    54   6 C       88   6 C                                       1.4153985
    61   6 C       88   6 C                                       1.3957299
    53   6 C       89   6 C                                       1.3930372
    62   6 C       89   6 C                                       1.3974331
    54   6 C       90   6 C                                       1.4099005
    56   6 C       90   6 C                                       1.4081213
    63   6 C       90   6 C                                       1.4094733
    64   6 C       91   6 C                                       1.3453665
    56   6 C       92   6 C                                       1.4165971
    58   6 C       92   6 C                                       1.4015542
    65   6 C       92   6 C                                       1.4274750
    57   6 C       93   6 C                                       1.3849193
    53   6 C       94   6 C                                       1.3944818
    58   6 C       94   6 C                                       1.4290948
    60   6 C       94   6 C                                       1.4185704
    59   6 C       95   8 O                                       1.3764192
    68   6 C       95   8 O                                       1.3743771
    60   6 C       96   6 C                                       1.4169857
    62   6 C       96   6 C                                       1.4136057
    69   6 C       96   6 C                                       1.4187028
    61   6 C       97   6 C                                       1.3933026
    63   6 C       97   6 C                                       1.4087015
    70   6 C       97   6 C                                       1.4329900
    62   6 C       98   8 O                                       1.3624561
    64   6 C       98   8 O                                       1.3474470
    63   6 C       99   6 C                                       1.4103019
    65   6 C       99   6 C                                       1.4056235
    71   6 C       99   6 C                                       1.4141410
    60   6 C      100   6 C                                       1.4139600
    65   6 C      100   6 C                                       1.4110154
    67   6 C      100   6 C                                       1.4193538
     1   6 C      101   1 H                                       1.0825214
     2   6 C      102   1 H                                       1.0791858
     7   6 C      103   1 H                                       1.0811618
     9   6 C      104   1 H                                       1.0795358
    12   6 C      105   1 H                                       1.0753653
    16   6 C      106   1 H                                       1.0775256
    17   6 C      107   1 H                                       1.0790300
    27   6 C      108   1 H                                       1.0795981
    37   6 C      109   1 H                                       1.0747800 (min)
    42   6 C      110   1 H                                       1.0784684
    57   6 C      111   1 H                                       1.0779515
    64   6 C      112   1 H                                       1.0798546
    66   6 C      113   1 H                                       1.0764873
    69   6 C      114   1 H                                       1.0795250
    74   6 C      115   1 H                                       1.0793661
    79   6 C      116   1 H                                       1.0776981
    87   6 C      117   1 H                                       1.0789055
    91   6 C      118   1 H                                       1.0776816
    93   6 C      119   1 H                                       1.0791273
    21   6 C      120   8 O                                       1.3427796
    24   6 C      120   8 O                                       1.3752594
    44   6 C      121   6 C                                       1.4322500
    55   6 C      121   6 C                                       1.3720094
    85   6 C      122   6 C                                       1.3962399
    93   6 C      122   6 C                                       1.3797095
    27   6 C      123   8 O                                       1.3484461
    28   6 C      123   8 O                                       1.3810806
   121   6 C      124   1 H                                       1.0819939
   122   6 C      125   1 H                                       1.0775792
    61   6 C      126   1 H                                       1.0787261
    11   6 C      127   1 H                                       1.0793431
    53   6 C      128   1 H                                       1.0781168

 * 3 distinct bonds (by element types)

   Z      Z             #   av. dist./Å        max./Å        min./Å
   1 H    6 C          24     1.0787303     1.0825214     1.0747800
   6 C    6 C         107     1.4053208     1.4342348     1.3449397
   6 C    8 O          20     1.3658467     1.3966805     1.3420363


optimized geometry written to: xtbopt.xyz


           -------------------------------------------------
          | TOTAL ENERGY             -254.643251731693 Eh   |
          | GRADIENT NORM               0.000490903198 Eh/α |
          | HOMO-LUMO GAP               0.154090833351 eV   |
           -------------------------------------------------

------------------------------------------------------------------------
 * finished run on 2025/12/08 at 00:30:49.430     
------------------------------------------------------------------------
 total:
 * wall-time:     0 d,  0 h,  0 min,  8.813 sec
 *  cpu-time:     0 d,  0 h,  0 min, 34.016 sec
 * ratio c/w:     3.860 speedup
 SCF:
 * wall-time:     0 d,  0 h,  0 min,  0.974 sec
 *  cpu-time:     0 d,  0 h,  0 min,  3.922 sec
 * ratio c/w:     4.027 speedup
 ANC optimizer:
 * wall-time:     0 d,  0 h,  0 min,  7.683 sec
 *  cpu-time:     0 d,  0 h,  0 min, 29.672 sec
 * ratio c/w:     3.862 speedup

normal termination of xtb
