      -----------------------------------------------------------      
     |                   =====================                   |     
     |                           x T B                           |     
     |                   =====================                   |     
     |                         S. Grimme                         |     
     |          Mulliken Center for Theoretical Chemistry        |     
     |                    University of Bonn                     |     
      -----------------------------------------------------------      

   * xtb version 6.7.1pre (5071a88) compiled by 'Marcel@Raven' on 2024-07-23

   xtb is free software: you can redistribute it and/or modify it under
   the terms of the GNU Lesser General Public License as published by
   the Free Software Foundation, either version 3 of the License, or
   (at your option) any later version.
   
   xtb is distributed in the hope that it will be useful,
   but WITHOUT ANY WARRANTY; without even the implied warranty of
   MERCHANTABILITY or FITNESS FOR A PARTICULAR PURPOSE.  See the
   GNU Lesser General Public License for more details.
   
   Cite this work as:
   * C. Bannwarth, E. Caldeweyher, S. Ehlert, A. Hansen, P. Pracht,
     J. Seibert, S. Spicher, S. Grimme, WIREs Comput. Mol. Sci., 2020, 11,
     e01493. DOI: 10.1002/wcms.1493
   
   for GFN2-xTB:
   * C. Bannwarth, S. Ehlert and S. Grimme., J. Chem. Theory Comput., 2019,
     15, 1652-1671. DOI: 10.1021/acs.jctc.8b01176
   for GFN1-xTB:
   * S. Grimme, C. Bannwarth, P. Shushkov, J. Chem. Theory Comput., 2017,
     13, 1989-2009. DOI: 10.1021/acs.jctc.7b00118
   for GFN0-xTB:
   * P. Pracht, E. Caldeweyher, S. Ehlert, S. Grimme, ChemRxiv, 2019, preprint.
     DOI: 10.26434/chemrxiv.8326202.v1
   for GFN-FF:
   * S. Spicher and S. Grimme, Angew. Chem. Int. Ed., 2020, 59, 15665-15673.
     DOI: 10.1002/anie.202004239
   
   for ALPB and GBSA implicit solvation:
   * S. Ehlert, M. Stahn, S. Spicher, S. Grimme, J. Chem. Theory Comput.,
     2021, 17, 4250-4261. DOI: 10.1021/acs.jctc.1c00471
   
   for ddCOSMO and CPCM-X implicit solvation:
   * M. Stahn, S. Ehlert, S. Grimme, J. Phys. Chem. A,
     2023, XX, XXXX-XXXX. DOI: 10.1021/acs.jpca.3c04382
   
   for DFT-D4:
   * E. Caldeweyher, C. Bannwarth and S. Grimme, J. Chem. Phys., 2017,
     147, 034112. DOI: 10.1063/1.4993215
   * E. Caldeweyher, S. Ehlert, A. Hansen, H. Neugebauer, S. Spicher,
     C. Bannwarth and S. Grimme, J. Chem. Phys., 2019, 150, 154122.
     DOI: 10.1063/1.5090222
   * E. Caldeweyher, J.-M. Mewes, S. Ehlert and S. Grimme, Phys. Chem. Chem. Phys.
     2020, 22, 8499-8512. DOI: 10.1039/D0CP00502A
   
   for sTDA-xTB:
   * S. Grimme and C. Bannwarth, J. Chem. Phys., 2016, 145, 054103.
     DOI: 10.1063/1.4959605
   
   in the mass-spec context:
   * V. Asgeirsson, C. Bauer and S. Grimme, Chem. Sci., 2017, 8, 4879.
     DOI: 10.1039/c7sc00601b
   * J. Koopman and S. Grimme, ACS Omega 2019, 4, 12, 15120-15133.
     DOI: 10.1021/acsomega.9b02011
   
   for metadynamics refer to:
   * S. Grimme, J. Chem. Theory Comput., 2019, 155, 2847-2862
     DOI: 10.1021/acs.jctc.9b00143
   
   for SPH calculations refer to:
   * S. Spicher and S. Grimme, J. Chem. Theory Comput., 2021, 17, 1701-1714
     DOI: 10.1021/acs.jctc.0c01306
   
   for ONIOM refer to:
   * C. Plett, A. Katbashev, S. Ehlert, S. Grimme, M. Bursch,
     Phys. Chem. Chem. Phys., 2023, 25, 17860-17868. DOI: 10.1039/D3CP02178E
   
   for DIPRO refer to:
   * J. Kohn, N. Gildemeister, S. Grimme, D. Fazzi, A. Hansen,
     J. Chem. Phys., 2023, just accepted.
   
   for PTB refer to:
   * S. Grimme, M. Mueller, A. Hansen, J. Chem. Phys., 2023, 158, 124111.
     DOI: 10.1063/5.0137838
   
   with help from (in alphabetical order)
   P. Atkinson, C. Bannwarth, F. Bohle, G. Brandenburg, E. Caldeweyher
   M. Checinski, S. Dohm, S. Ehlert, S. Ehrlich, I. Gerasimov, C. Hölzer
   A. Katbashev, J. Kohn, J. Koopman, C. Lavigne, S. Lehtola, F. März, M. Müller,
   F. Musil, H. Neugebauer, J. Pisarek, C. Plett, P. Pracht, F. Pultar,
   J. Seibert, P. Shushkov, S. Spicher, M. Stahn, M. Steiner, T. Strunk,
   J. Stückrath, T. Rose, and J. Unsleber
   
 * started run on 2025/12/08 at 00:30:49.460     
   ID    Z sym.   atoms
    1    6 C      1-3, 5-29, 31-38, 40-44, 46, 48-85, 87-94, 96, 97, 99, 100,
                  121, 122
    2    8 O      4, 30, 39, 45, 47, 86, 95, 98, 120, 123
    3    1 H      101-119, 124-128

           -------------------------------------------------
          |                Calculation Setup                |
           -------------------------------------------------

          program call               : xtb "C:\Users\LENOVO GAMING\Documents\GitHub\molecular-conductivity-sim\results\1.5nm-10Odoped-7percent\xtbopt.xyz" --sp
          coordinate file            : C:\Users\LENOVO GAMING\Documents\GitHub\molecular-conductivity-sim\results\1.5nm-10Odoped-7percent\xtbopt.xyz
          omp threads                :                    16


           -------------------------------------------------
          |                 G F N 2 - x T B                 |
           -------------------------------------------------

        Reference                      10.1021/acs.jctc.8b01176
      * Hamiltonian:
        H0-scaling (s, p, d)           1.850000    2.230000    2.230000
        zeta-weighting                 0.500000
      * Dispersion:
        s8                             2.700000
        a1                             0.520000
        a2                             5.000000
        s9                             5.000000
      * Repulsion:
        kExp                           1.500000    1.000000
        rExp                           1.000000
      * Coulomb:
        alpha                          2.000000
        third order                    shell-resolved
        anisotropic                    true
        a3                             3.000000
        a5                             4.000000
        cn-shift                       1.200000
        cn-exp                         4.000000
        max-rad                        5.000000

q/qsh data taken from xtbrestart
CAMM data taken from xtbrestart

          ...................................................
          :                      SETUP                      :
          :.................................................:
          :  # basis functions                 440          :
          :  # atomic orbitals                 440          :
          :  # shells                          232          :
          :  # electrons                       460          :
          :  max. iterations                   250          :
          :  Hamiltonian                  GFN2-xTB          :
          :  restarted?                       true          :
          :  GBSA solvation                  false          :
          :  PC potential                    false          :
          :  electronic temp.          300.0000000     K    :
          :  accuracy                    1.0000000          :
          :  -> integral cutoff          0.2500000E+02      :
          :  -> integral neglect         0.1000000E-07      :
          :  -> SCF convergence          0.1000000E-05 Eh   :
          :  -> wf. convergence          0.1000000E-03 e    :
          :  Broyden damping             0.4000000          :
          :  net charge                          0          :
          :  unpaired electrons                  0          :
          ...................................................

 iter      E             dE          RMSdq      gap      omega  full diag
   1   -258.8608712 -0.258861E+03  0.301E-05    0.15       0.0  T
   2   -258.8608712  0.116767E-07  0.197E-04    0.15      44.8  T
   3   -258.8608712 -0.111641E-07  0.445E-05    0.15     198.7  T

   *** convergence criteria satisfied after 3 iterations ***

         #    Occupation            Energy/Eh            Energy/eV
      -------------------------------------------------------------
         1        2.0000           -0.7590221             -20.6540
       ...           ...                  ...                  ...
       224        2.0000           -0.3607126              -9.8155
       225        2.0000           -0.3573842              -9.7249
       226        2.0000           -0.3493545              -9.5064
       227        2.0000           -0.3389490              -9.2233
       228        2.0000           -0.3325010              -9.0478
       229        2.0000           -0.3288918              -8.9496
       230        1.9033           -0.3101293              -8.4390 (HOMO)
       231        0.0967           -0.3044676              -8.2850 (LUMO)
       232                         -0.2883404              -7.8461
       233                         -0.2837247              -7.7205
       234                         -0.2783653              -7.5747
       235                         -0.2764705              -7.5231
       ...                                ...                  ...
       440                          0.7772046              21.1488
      -------------------------------------------------------------
                  HL-Gap            0.0056617 Eh            0.1541 eV
             Fermi-level           -0.3072984 Eh           -8.3620 eV

 SCC (total)                   0 d,  0 h,  0 min,  0.276 sec
 SCC setup                      ...        0 min,  0.001 sec (  0.362%)
 Dispersion                     ...        0 min,  0.006 sec (  2.174%)
 classical contributions        ...        0 min,  0.001 sec (  0.362%)
 integral evaluation            ...        0 min,  0.027 sec (  9.783%)
 iterations                     ...        0 min,  0.181 sec ( 65.580%)
 molecular gradient             ...        0 min,  0.057 sec ( 20.652%)
 printout                       ...        0 min,  0.003 sec (  1.087%)

         :::::::::::::::::::::::::::::::::::::::::::::::::::::
         ::                     SUMMARY                     ::
         :::::::::::::::::::::::::::::::::::::::::::::::::::::
         :: total energy            -254.643251738681 Eh    ::
         :: gradient norm              0.000494318980 Eh/a0 ::
         :: HOMO-LUMO gap              0.154063008971 eV    ::
         ::.................................................::
         :: SCC energy              -258.866905989478 Eh    ::
         :: -> isotropic ES            0.106920707702 Eh    ::
         :: -> anisotropic ES          0.011848710546 Eh    ::
         :: -> anisotropic XC          0.051869394851 Eh    ::
         :: -> dispersion             -0.276212134407 Eh    ::
         :: repulsion energy           4.223654250797 Eh    ::
         :: add. restraining           0.000000000000 Eh    ::
         :: total charge              -0.000000000000 e     ::
         :::::::::::::::::::::::::::::::::::::::::::::::::::::

           -------------------------------------------------
          |                Property Printout                |
           -------------------------------------------------

    * Orbital Energies and Occupations

         #    Occupation            Energy/Eh            Energy/eV
      -------------------------------------------------------------
         1        2.0000           -0.7590221             -20.6540
       ...           ...                  ...                  ...
       218        2.0000           -0.3853566             -10.4861
       219        2.0000           -0.3832789             -10.4295
       220        2.0000           -0.3820502             -10.3961
       221        2.0000           -0.3778739             -10.2825
       222        2.0000           -0.3743718             -10.1872
       223        2.0000           -0.3683293             -10.0228
       224        2.0000           -0.3607126              -9.8155
       225        2.0000           -0.3573842              -9.7249
       226        2.0000           -0.3493545              -9.5064
       227        2.0000           -0.3389490              -9.2233
       228        2.0000           -0.3325010              -9.0478
       229        2.0000           -0.3288918              -8.9496
       230        1.9033           -0.3101293              -8.4390 (HOMO)
       231        0.0967           -0.3044676              -8.2850 (LUMO)
       232                         -0.2883404              -7.8461
       233                         -0.2837247              -7.7205
       234                         -0.2783653              -7.5747
       235                         -0.2764705              -7.5231
       236                         -0.2665966              -7.2545
       237                         -0.2633184              -7.1653
       238                         -0.2553844              -6.9494
       239                         -0.2505554              -6.8180
       240                         -0.2496696              -6.7939
       241                         -0.2415391              -6.5726
       ...                                ...                  ...
       440                          0.7772046              21.1488
      -------------------------------------------------------------
                  HL-Gap            0.0056617 Eh            0.1541 eV
             Fermi-level           -0.3072984 Eh           -8.3620 eV

     #   Z          covCN         q      C6AA      α(0)
     1   6 C        2.897    -0.051    29.276     8.871
     2   6 C        2.913    -0.032    28.796     8.799
     3   6 C        2.968     0.008    27.839     8.655
     4   8 O        1.708    -0.188    17.141     5.590
     5   6 C        2.975    -0.012    28.300     8.726
     6   6 C        2.993     0.000    28.017     8.683
     7   6 C        2.903    -0.039    28.962     8.824
     8   6 C        2.848     0.096    25.868     8.336
     9   6 C        2.912    -0.037    28.927     8.819
    10   6 C        2.980     0.007    27.863     8.659
    11   6 C        2.938    -0.023    28.568     8.766
    12   6 C        2.902    -0.075    29.877     8.962
    13   6 C        2.985    -0.025    28.610     8.774
    14   6 C        2.992    -0.003    28.089     8.694
    15   6 C        2.994    -0.015    28.377     8.738
    16   6 C        2.916    -0.075    29.878     8.963
    17   6 C        2.817     0.098    25.816     8.325
    18   6 C        2.883     0.118    25.413     8.264
    19   6 C        2.992     0.002    27.966     8.675
    20   6 C        2.998    -0.000    28.026     8.684
    21   6 C        2.886     0.147    24.813     8.167
    22   6 C        3.000    -0.000    28.025     8.684
    23   6 C        2.994     0.001    27.989     8.678
    24   6 C        2.876     0.125    25.265     8.240
    25   6 C        2.971    -0.014    28.348     8.733
    26   6 C        2.977    -0.001    28.044     8.687
    27   6 C        2.815     0.102    25.733     8.311
    28   6 C        2.873     0.099    25.795     8.326
    29   6 C        2.883     0.142    24.902     8.181
    30   8 O        1.709    -0.254    18.200     5.760
    31   6 C        2.998    -0.022    28.538     8.763
    32   6 C        2.875     0.128    25.200     8.229
    33   6 C        2.982     0.007    27.848     8.656
    34   6 C        2.974    -0.017    28.431     8.746
    35   6 C        2.999    -0.009    28.232     8.716
    36   6 C        2.981     0.015    27.666     8.628
    37   6 C        2.905    -0.079    29.969     8.976
    38   6 C        2.994    -0.026    28.645     8.779
    39   8 O        1.708    -0.227    17.763     5.690
    40   6 C        2.866     0.122    25.309     8.246
    41   6 C        2.999    -0.018    28.447     8.749
    42   6 C        2.914    -0.071    29.772     8.947
    43   6 C        2.993    -0.006    28.155     8.704
    44   6 C        2.854     0.140    24.938     8.185
    45   8 O        1.709    -0.194    17.234     5.605
    46   6 C        2.991     0.001    28.003     8.680
    47   8 O        1.710    -0.228    17.774     5.692
    48   6 C        2.989     0.001    28.008     8.681
    49   6 C        2.993    -0.013    28.323     8.730
    50   6 C        2.872     0.122    25.319     8.248
    51   6 C        2.964    -0.016    28.409     8.743
    52   6 C        2.980     0.000    28.013     8.682
    53   6 C        2.934    -0.029    28.722     8.789
    54   6 C        3.002    -0.000    28.018     8.683
    55   6 C        2.968     0.025    27.440     8.592
    56   6 C        2.992    -0.003    28.082     8.693
    57   6 C        2.916    -0.055    29.378     8.888
    58   6 C        2.977    -0.003    28.085     8.693
    59   6 C        2.876     0.113    25.505     8.279
    60   6 C        3.002     0.002    27.965     8.675
    61   6 C        2.932    -0.030    28.738     8.792
    62   6 C        2.897     0.124    25.282     8.244
    63   6 C        3.003    -0.002    28.071     8.691
    64   6 C        2.820     0.093    25.933     8.344
    65   6 C        2.990    -0.006    28.168     8.706
    66   6 C        2.915    -0.082    30.053     8.990
    67   6 C        2.976    -0.012    28.306     8.727
    68   6 C        2.867     0.106    25.647     8.301
    69   6 C        2.912    -0.032    28.806     8.801
    70   6 C        2.976    -0.009    28.235     8.716
    71   6 C        2.985    -0.016    28.408     8.743
    72   6 C        2.978    -0.002    28.064     8.690
    73   6 C        2.865     0.127    25.210     8.230
    74   6 C        2.913    -0.035    28.876     8.812
    75   6 C        2.988    -0.005    28.134     8.701
    76   6 C        2.971    -0.018    28.446     8.749
    77   6 C        2.991    -0.019    28.473     8.753
    78   6 C        2.997     0.008    27.829     8.654
    79   6 C        2.911    -0.074    29.852     8.959
    80   6 C        2.885     0.123    25.289     8.244
    81   6 C        2.994    -0.001    28.037     8.686
    82   6 C        2.990    -0.001    28.043     8.687
    83   6 C        2.882     0.133    25.085     8.211
    84   6 C        2.968    -0.023    28.567     8.767
    85   6 C        2.977     0.003    27.954     8.673
    86   8 O        1.712    -0.234    17.874     5.708
    87   6 C        2.819     0.090    25.996     8.354
    88   6 C        2.990     0.007    27.861     8.658
    89   6 C        2.985    -0.012    28.301     8.726
    90   6 C        2.998    -0.003    28.093     8.694
    91   6 C        2.907    -0.066    29.654     8.929
    92   6 C        2.992     0.002    27.965     8.675
    93   6 C        2.918    -0.031    28.770     8.796
    94   6 C        2.987     0.000    28.014     8.682
    95   8 O        1.711    -0.231    17.829     5.701
    96   6 C        2.978    -0.012    28.299     8.726
    97   6 C        2.990     0.005    27.900     8.665
    98   8 O        1.709    -0.199    17.322     5.619
    99   6 C        2.997    -0.003    28.078     8.692
   100   6 C        2.995     0.003    27.958     8.674
   101   1 H        0.925     0.044     2.392     2.419
   102   1 H        0.926     0.037     2.486     2.466
   103   1 H        0.926     0.031     2.570     2.507
   104   1 H        0.926     0.038     2.474     2.460
   105   1 H        0.926     0.070     2.084     2.257
   106   1 H        0.926     0.055     2.255     2.348
   107   1 H        0.926     0.071     2.070     2.250
   108   1 H        0.926     0.067     2.115     2.274
   109   1 H        0.926     0.066     2.133     2.284
   110   1 H        0.926     0.047     2.363     2.404
   111   1 H        0.926     0.053     2.281     2.362
   112   1 H        0.926     0.051     2.311     2.377
   113   1 H        0.926     0.047     2.357     2.401
   114   1 H        0.926     0.042     2.426     2.436
   115   1 H        0.926     0.041     2.436     2.441
   116   1 H        0.926     0.039     2.458     2.451
   117   1 H        0.926     0.056     2.250     2.346
   118   1 H        0.926     0.043     2.410     2.428
   119   1 H        0.926     0.043     2.408     2.427
   120   8 O        1.709    -0.205    17.419     5.635
   121   6 C        2.903    -0.083    30.073     8.992
   122   6 C        2.920    -0.048    29.187     8.859
   123   8 O        1.707    -0.211    17.507     5.649
   124   1 H        0.925     0.037     2.493     2.469
   125   1 H        0.926     0.036     2.501     2.473
   126   1 H        0.926     0.028     2.614     2.529
   127   1 H        0.926     0.033     2.539     2.492
   128   1 H        0.926     0.041     2.440     2.443

 Mol. C6AA /au·bohr⁶  :     329204.174644
 Mol. C8AA /au·bohr⁸  :    8873550.670443
 Mol. α(0) /au        :        926.990813


Wiberg/Mayer (AO) data.
largest (>0.10) Wiberg bond orders for each atom

 ---------------------------------------------------------------------------
     #   Z sym  total        # sym  WBO       # sym  WBO       # sym  WBO
 ---------------------------------------------------------------------------
     1   6 C    3.951 --     7 C    1.662     8 C    1.174   101 H    0.962
     2   6 C    3.968 --     9 C    1.608    10 C    1.239   102 H    0.965
     3   6 C    3.939 --    11 C    1.367    10 C    1.257     7 C    1.137
     4   8 O    2.337 --    17 C    1.125    18 C    1.026
     5   6 C    3.963 --    18 C    1.313     9 C    1.223    19 C    1.216
     6   6 C    3.971 --    19 C    1.281    10 C    1.246    20 C    1.220
     7   6 C    3.933 --     1 C    1.662     3 C    1.137   103 H    0.961
     8   6 C    3.896 --    28 C    1.491     1 C    1.174    30 O    0.983
     9   6 C    3.951 --     2 C    1.608     5 C    1.223   104 H    0.968
    10   6 C    3.940 --     3 C    1.257     6 C    1.246     2 C    1.239
    11   6 C    3.918 --     3 C    1.367    33 C    1.317   127 H    0.965
    12   6 C    3.965 --    17 C    1.611    21 C    1.215   105 H    0.964
    13   6 C    3.975 --    21 C    1.289    18 C    1.262    22 C    1.188
    14   6 C    3.974 --    22 C    1.308    19 C    1.235    23 C    1.203
    15   6 C    3.963 --    25 C    1.259    24 C    1.242    22 C    1.224
    16   6 C    3.922 --    24 C    1.444    26 C    1.290   106 H    0.965
    17   6 C    3.810 --    12 C    1.611     4 O    1.125   107 H    0.958
    18   6 C    3.806 --     5 C    1.313    13 C    1.262     4 O    1.026
    19   6 C    3.945 --     6 C    1.281    14 C    1.235     5 C    1.216
    20   6 C    3.960 --    33 C    1.261    43 C    1.255     6 C    1.220
    21   6 C    3.754 --    13 C    1.289    12 C    1.215   120 O    1.108
    22   6 C    3.955 --    14 C    1.308    15 C    1.224    13 C    1.188
    23   6 C    3.971 --    52 C    1.312    43 C    1.232    14 C    1.203
    24   6 C    3.903 --    16 C    1.444    15 C    1.242   120 O    1.023
    25   6 C    3.955 --    59 C    1.270    15 C    1.259    52 C    1.186
    26   6 C    3.971 --    59 C    1.335    16 C    1.290    66 C    1.173
    27   6 C    3.907 --    37 C    1.693   123 O    1.108   108 H    0.957
    28   6 C    3.881 --     8 C    1.491    38 C    1.149   123 O    1.009
    29   6 C    3.876 --    38 C    1.461    37 C    1.137    39 O    1.076
    30   8 O    2.276 --    40 C    1.019     8 C    0.983
    31   6 C    3.943 --    40 C    1.408    41 C    1.204    38 C    1.116
    32   6 C    3.843 --    42 C    1.406    41 C    1.264    39 O    1.017
    33   6 C    3.960 --    11 C    1.317    20 C    1.261    72 C    1.177
    34   6 C    3.940 --    72 C    1.241    40 C    1.230    75 C    1.226
    35   6 C    3.974 --    75 C    1.260    41 C    1.257    77 C    1.232
    36   6 C    3.916 --    42 C    1.341    79 C    1.222    77 C    1.203
    37   6 C    3.965 --    27 C    1.693    29 C    1.137   109 H    0.965
    38   6 C    3.976 --    29 C    1.461    28 C    1.149    31 C    1.116
    39   8 O    2.318 --    29 C    1.076    32 C    1.017
    40   6 C    3.905 --    31 C    1.408    34 C    1.230    30 O    1.019
    41   6 C    3.962 --    32 C    1.264    35 C    1.257    31 C    1.204
    42   6 C    3.939 --    32 C    1.406    36 C    1.341   110 H    0.966
    43   6 C    3.953 --    20 C    1.255    81 C    1.244    23 C    1.232
    44   6 C    3.878 --    79 C    1.515   121 C    1.192    86 O    1.027
    45   8 O    2.362 --    87 C    1.114    80 C    1.045
    46   6 C    3.963 --    72 C    1.281    81 C    1.236    82 C    1.228
    47   8 O    2.345 --    73 C    1.055    83 C    1.041
    48   6 C    3.963 --    82 C    1.259    75 C    1.254    84 C    1.226
    49   6 C    3.980 --    85 C    1.307    83 C    1.300    76 C    1.131
    50   6 C    3.831 --    84 C    1.304    77 C    1.303    86 O    1.023
    51   6 C    3.973 --    87 C    1.566    78 C    1.130    85 C    1.099
    52   6 C    3.936 --    23 C    1.312    88 C    1.193    25 C    1.186
    53   6 C    3.888 --    89 C    1.336    94 C    1.331   128 H    0.965
    54   6 C    3.962 --    81 C    1.256    90 C    1.244    88 C    1.237
    55   6 C    3.931 --   121 C    1.529    91 C    1.157    89 C    1.091
    56   6 C    3.944 --    90 C    1.255    82 C    1.251    92 C    1.226
    57   6 C    3.969 --    93 C    1.415    83 C    1.389   111 H    0.967
    58   6 C    3.902 --    92 C    1.323    94 C    1.191    84 C    1.174
    59   6 C    3.869 --    26 C    1.335    25 C    1.270    95 O    1.019
    60   6 C    3.974 --    96 C    1.257   100 C    1.246    94 C    1.239
    61   6 C    3.891 --    97 C    1.339    88 C    1.329   126 H    0.966
    62   6 C    3.867 --    89 C    1.330    96 C    1.252    98 O    1.053
    63   6 C    3.950 --    97 C    1.258    90 C    1.244    99 C    1.231
    64   6 C    3.874 --    91 C    1.680    98 O    1.099   112 H    0.959
    65   6 C    3.966 --    99 C    1.278   100 C    1.258    92 C    1.202
    66   6 C    3.890 --    73 C    1.513    26 C    1.173   113 H    0.967
    67   6 C    3.953 --    80 C    1.263   100 C    1.244    74 C    1.237
    68   6 C    3.853 --    76 C    1.425    73 C    1.175    95 O    1.022
    69   6 C    3.959 --    74 C    1.600    96 C    1.239   114 H    0.968
    70   6 C    3.968 --    78 C    1.424    97 C    1.160    76 C    1.134
    71   6 C    3.964 --    80 C    1.328    99 C    1.233    78 C    1.177
    72   6 C    3.923 --    46 C    1.281    34 C    1.241    33 C    1.177
    73   6 C    3.913 --    66 C    1.513    68 C    1.175    47 O    1.055
    74   6 C    3.968 --    69 C    1.600    67 C    1.237   115 H    0.968
    75   6 C    3.974 --    35 C    1.260    48 C    1.254    34 C    1.226
    76   6 C    3.948 --    68 C    1.425    70 C    1.134    49 C    1.131
    77   6 C    3.968 --    50 C    1.303    35 C    1.232    36 C    1.203
    78   6 C    3.950 --    70 C    1.424    71 C    1.177    51 C    1.130
    79   6 C    3.917 --    44 C    1.515    36 C    1.222   116 H    0.966
    80   6 C    3.861 --    71 C    1.328    67 C    1.263    45 O    1.045
    81   6 C    3.956 --    54 C    1.256    43 C    1.244    46 C    1.236
    82   6 C    3.962 --    48 C    1.259    56 C    1.251    46 C    1.228
    83   6 C    3.919 --    57 C    1.389    49 C    1.300    47 O    1.041
    84   6 C    3.957 --    50 C    1.304    48 C    1.226    58 C    1.174
    85   6 C    3.968 --   122 C    1.368    49 C    1.307    51 C    1.099
    86   8 O    2.312 --    44 C    1.027    50 C    1.023
    87   6 C    3.834 --    51 C    1.566    45 O    1.114   117 H    0.953
    88   6 C    3.959 --    61 C    1.329    54 C    1.237    52 C    1.193
    89   6 C    3.976 --    53 C    1.336    62 C    1.330    55 C    1.091
    90   6 C    3.966 --    56 C    1.255    63 C    1.244    54 C    1.244
    91   6 C    3.969 --    64 C    1.680    55 C    1.157   118 H    0.964
    92   6 C    3.973 --    58 C    1.323    56 C    1.226    65 C    1.202
    93   6 C    3.974 --   122 C    1.457    57 C    1.415   119 H    0.970
    94   6 C    3.970 --    53 C    1.331    60 C    1.239    58 C    1.191
    95   8 O    2.315 --    68 C    1.022    59 C    1.019
    96   6 C    3.967 --    60 C    1.257    62 C    1.252    69 C    1.239
    97   6 C    3.953 --    61 C    1.339    63 C    1.258    70 C    1.160
    98   8 O    2.379 --    64 C    1.099    62 C    1.053
    99   6 C    3.965 --    65 C    1.278    71 C    1.233    63 C    1.231
   100   6 C    3.973 --    65 C    1.258    60 C    1.246    67 C    1.244
   101   1 H    0.996 --     1 C    0.962
   102   1 H    0.997 --     2 C    0.965
   103   1 H    0.996 --     7 C    0.961
   104   1 H    0.997 --     9 C    0.968
   105   1 H    0.995 --    12 C    0.964
   106   1 H    0.996 --    16 C    0.965
   107   1 H    0.994 --    17 C    0.958
   108   1 H    0.994 --    27 C    0.957
   109   1 H    0.995 --    37 C    0.965
   110   1 H    0.996 --    42 C    0.966
   111   1 H    0.996 --    57 C    0.967
   112   1 H    0.996 --    64 C    0.959
   113   1 H    0.997 --    66 C    0.967
   114   1 H    0.997 --    69 C    0.968
   115   1 H    0.997 --    74 C    0.968
   116   1 H    0.998 --    79 C    0.966
   117   1 H    0.996 --    87 C    0.953
   118   1 H    0.997 --    91 C    0.964
   119   1 H    0.997 --    93 C    0.970
   120   8 O    2.349 --    21 C    1.108    24 C    1.023
   121   6 C    3.950 --    55 C    1.529    44 C    1.192   124 H    0.961
   122   6 C    3.976 --    93 C    1.457    85 C    1.368   125 H    0.965
   123   8 O    2.372 --    27 C    1.108    28 C    1.009
   124   1 H    0.997 --   121 C    0.961
   125   1 H    0.998 --   122 C    0.965
   126   1 H    0.997 --    61 C    0.966
   127   1 H    0.997 --    11 C    0.965
   128   1 H    0.997 --    53 C    0.965
 ---------------------------------------------------------------------------

Topologies differ in total number of bonds
Writing topology from bond orders to xtbtopo.mol

molecular dipole:
                 x           y           z       tot (Debye)
 q only:        0.818      -0.774       0.350
   full:        0.751      -0.931       0.305       3.136
molecular quadrupole (traceless):
                xx          xy          yy          xz          yz          zz
 q only:       18.870     -15.266      26.357      -9.301      -1.175     -45.227
  q+dip:       46.002     -14.540      34.087     -10.380      -1.651     -80.089
   full:       29.654     -14.716      20.541      -8.977      -0.699     -50.195


           -------------------------------------------------
          | TOTAL ENERGY             -254.643251738681 Eh   |
          | GRADIENT NORM               0.000494318980 Eh/α |
          | HOMO-LUMO GAP               0.154063008971 eV   |
           -------------------------------------------------

------------------------------------------------------------------------
 * finished run on 2025/12/08 at 00:30:49.840     
------------------------------------------------------------------------
 total:
 * wall-time:     0 d,  0 h,  0 min,  0.378 sec
 *  cpu-time:     0 d,  0 h,  0 min,  3.141 sec
 * ratio c/w:     8.309 speedup
 SCF:
 * wall-time:     0 d,  0 h,  0 min,  0.278 sec
 *  cpu-time:     0 d,  0 h,  0 min,  2.547 sec
 * ratio c/w:     9.161 speedup

normal termination of xtb
