128
 energy: -254.622618136634 gnorm: 0.073000508558 xtb: 6.7.1pre (5071a88)
C           -3.20073500000000       -7.05573500000000        0.24576400000000
C            1.19270600000000       -7.41874100000000        0.36476100000000
C           -0.92581900000000       -6.07752100000000        0.67787400000000
O            5.42317500000000       -7.44752000000000        0.12297500000000
C            3.33563300000000       -6.27649700000000        0.18997300000000
C            1.24138500000000       -4.96809000000000        0.31015000000000
C           -1.87774600000000       -7.17533700000000        0.60634800000000
C           -3.96590800000000       -5.93594400000000       -0.23441900000000
C            2.55770800000000       -7.47355600000000        0.26043400000000
C            0.48371500000000       -6.17750700000000        0.44158100000000
C           -1.45840000000000       -4.80071200000000        0.88873500000000
C            7.53416900000000       -6.33609100000000        0.04896500000000
C            5.47023100000000       -5.05673900000000        0.05619500000000
C            3.38951100000000       -3.78591700000000        0.07108500000000
C            5.56025000000000       -2.61860700000000        0.00513000000000
C            7.78466400000000       -1.60039600000000        0.09738500000000
C            6.76606500000000       -7.45958700000000        0.08587200000000
C            4.74121200000000       -6.26071700000000        0.11710800000000
C            2.65756700000000       -5.01118100000000        0.18999400000000
C            0.57859100000000       -3.69756400000000        0.24111900000000
C            6.86818800000000       -5.08577700000000        0.04140700000000
C            4.78673600000000       -3.80902300000000        0.02542300000000
C            2.72709700000000       -2.52088900000000       -0.03599100000000
C            6.97024800000000       -2.71035200000000        0.04404100000000
C            4.92119700000000       -1.33723300000000        0.00125300000000
C            7.18355800000000       -0.32255900000000        0.20970500000000
C           -7.48305800000000       -6.86944800000000       -0.17918200000000
C           -5.33931200000000       -5.87315700000000       -0.32100000000000
C           -7.35399200000000       -4.50426100000000       -0.48623900000000
O           -3.27451400000000       -4.77731700000000       -0.67576800000000
C           -5.17417500000000       -3.43206100000000       -0.39767400000000
C           -7.24394300000000       -2.12721700000000       -0.40369500000000
C           -0.82449900000000       -3.63535300000000        0.44552800000000
C           -2.97792500000000       -2.38868300000000       -0.05964000000000
C           -5.06722600000000       -1.01695000000000       -0.20466800000000
C           -7.16593700000000        0.29152900000000       -0.32630400000000
C           -8.13867900000000       -5.70485800000000       -0.37513600000000
C           -5.99146700000000       -4.61070100000000       -0.49999900000000
O           -7.99954000000000       -3.30282100000000       -0.49924500000000
C           -3.80843100000000       -3.53057600000000       -0.34728400000000
C           -5.84455900000000       -2.19351200000000       -0.31000100000000
C           -7.90612900000000       -0.90508700000000       -0.39175600000000
C            1.30212600000000       -2.49834900000000        0.02409900000000
C           -6.98716100000000        2.71954500000000       -0.15261300000000
O            1.82436500000000        7.18726100000000       -0.14389500000000
C           -0.82807400000000       -1.20681700000000        0.06617900000000
O            7.99565400000000        3.24751000000000       -0.08773400000000
C           -2.91522600000000        0.12771900000000        0.01754700000000
C            5.93739100000000        4.53887600000000       -0.24184400000000
C           -4.97151100000000        1.41541000000000       -0.23650800000000
C            3.86513400000000        5.91151300000000       -0.25505500000000
C            3.47547500000000       -1.32780400000000       -0.19211300000000
C           -4.60340300000000        4.06166900000000        1.01500800000000
C            1.33727200000000       -0.07568600000000       -0.24289700000000
C           -6.75350000000000        5.19380200000000        0.50502100000000
C           -0.72251400000000        1.25828400000000       -0.07932800000000
C            8.15184100000000        5.58717300000000       -0.23023500000000
C           -2.75355100000000        2.61578700000000        0.23572600000000
C            5.78119400000000       -0.23056000000000        0.24788400000000
C           -2.54014200000000        5.10789000000000        0.34403100000000
C            3.38495800000000        1.03028500000000       -0.92527100000000
C           -4.58478500000000        6.41041600000000        0.49942400000000
C            1.46714000000000        2.36435500000000       -0.32291000000000
C           -6.60046400000000        7.62004700000000        0.47849500000000
C           -0.54668000000000        3.72360100000000        0.02262300000000
C            7.94623500000000        0.90713800000000        0.24457200000000
C           -0.34597100000000        6.20315200000000        0.02000700000000
C            5.85618600000000        2.16863000000000        0.15846700000000
C           -2.35849800000000        7.56230400000000        0.26038000000000
C            3.70397500000000        3.43058500000000       -0.39997500000000
C            1.66430000000000        4.79820200000000       -0.22628000000000
C           -1.56538400000000       -2.42046800000000        0.16755500000000
C            7.28691600000000        2.10161400000000        0.13152700000000
C           -1.00063100000000        7.47343300000000        0.09862600000000
C           -3.64953700000000       -1.09849600000000       -0.07837200000000
C            5.14733900000000        3.30640000000000       -0.19378800000000
C           -5.72968800000000        0.23476500000000       -0.26678300000000
C            3.10012900000000        4.68001300000000       -0.30702100000000
C           -7.76082700000000        1.58979600000000       -0.15569400000000
C            1.05399300000000        6.04891700000000       -0.12743700000000
C            0.59925800000000       -1.26124800000000       -0.02079900000000
C           -1.49117800000000        0.06166400000000        0.00831400000000
C            7.34310800000000        4.46023900000000       -0.18147900000000
C           -3.58218500000000        1.42239400000000        0.03175200000000
C            5.33620500000000        5.82494000000000       -0.29942100000000
O           -5.65042200000000        2.59209800000000       -0.54729900000000
C            3.17987200000000        7.08495900000000       -0.18824700000000
C            2.74082900000000       -0.13020300000000       -0.49204000000000
C           -5.30790700000000        5.23227700000000        0.73637500000000
C            0.68134000000000        1.18464000000000       -0.24614800000000
C           -7.36391300000000        6.50747200000000        0.54326100000000
C           -1.35899400000000        2.52951700000000        0.05194500000000
C            7.54789100000000        6.84199400000000       -0.33340700000000
C           -3.29265000000000        3.91054600000000        0.56413200000000
O            5.24367200000000        1.00373700000000        0.59880800000000
C           -3.17175800000000        6.39117000000000        0.39113800000000
C            2.85606400000000        2.27412700000000       -0.59537700000000
O           -5.23623600000000        7.61159700000000        0.37062000000000
C            0.85031200000000        3.62873800000000       -0.16629700000000
C           -1.13687700000000        5.01435200000000        0.11794600000000
H           -3.79986900000000       -7.96121800000000        0.32074800000000
H            0.63444200000000       -8.34775200000000        0.41568100000000
H           -1.53809700000000       -8.18168500000000        0.84059000000000
H            3.06383200000000       -8.43248300000000        0.23452600000000
H            8.61384200000000       -6.40596000000000        0.02937600000000
H            8.86366500000000       -1.70806200000000        0.08588900000000
H            7.15699600000000       -8.46846800000000        0.09335100000000
H           -7.96243400000000       -7.83045500000000       -0.04665000000000
H           -9.22054700000000       -5.68174800000000       -0.40665600000000
H           -8.99118300000000       -0.87859100000000       -0.42234100000000
H            9.22969400000000        5.47184100000000       -0.19014900000000
H           -6.98257700000000        8.63257900000000        0.46069500000000
H            9.02913300000000        0.87701200000000        0.20548600000000
H           -2.83578500000000        8.53600500000000        0.30059600000000
H           -0.40340300000000        8.37568500000000        0.02169500000000
H           -8.81946100000000        1.67317300000000        0.07041800000000
H            3.62659600000000        8.06930500000000       -0.16447200000000
H           -8.44349900000000        6.62290700000000        0.55154200000000
H            8.16675900000000        7.73240800000000       -0.38384400000000
O            7.58932500000000       -3.96439900000000        0.02830100000000
C           -7.45536200000000        4.04631100000000        0.17990500000000
C            6.16253000000000        6.96052500000000       -0.36131800000000
O           -6.12486800000000       -6.99034400000000       -0.11082600000000
H           -8.53866300000000        4.14186400000000        0.12661000000000
H            5.72542500000000        7.95043600000000       -0.43118000000000
H            4.36068000000000        0.96308600000000       -1.37760200000000
H           -2.43207300000000       -4.72469700000000        1.34990200000000
H           -5.12715800000000        3.22671300000000        1.45154800000000
128
 energy: -254.635831246729 gnorm: 0.039513981075 xtb: 6.7.1pre (5071a88)
C           -3.19139833284432       -7.03755089722884        0.24424863073521
C            1.18792882777281       -7.39251803697203        0.35956079612824
C           -0.92846327046112       -6.06012658354847        0.65603151522589
O            5.40908688737398       -7.44804783530004        0.12370074693679
C            3.32675969113086       -6.25688553022595        0.19097529762876
C            1.23357199659121       -4.95498767084452        0.30647463217415
C           -1.87747978069096       -7.15296952499156        0.60174569676454
C           -3.95106569432629       -5.91528589409203       -0.22697791584460
C            2.54678567416659       -7.44542022311987        0.26017224549398
C            0.47703237913393       -6.15984477346265        0.42756325481316
C           -1.46544728533410       -4.78877626349651        0.86720609122551
C            7.51734470230943       -6.32941151228689        0.05042198933039
C            5.45913959382457       -5.05121176047404        0.05612388903115
C            3.37759921251175       -3.78125322709187        0.07389010936921
C            5.54766367326323       -2.61474390033894        0.01064367408978
C            7.76064528963447       -1.59127782054212        0.09524340264065
C            6.75118455629148       -7.44978935612780        0.08585953439574
C            4.73019872524125       -6.25584632638255        0.11782110195192
C            2.64531632925228       -4.99817688387415        0.19053676937776
C            0.57293944863313       -3.68930180356789        0.23424385057878
C            6.85993990170546       -5.07216120455096        0.04120843244796
C            4.77458588413804       -3.80516382449020        0.02599298709849
C            2.71985985943106       -2.51977361749002       -0.03506444448077
C            6.95809206379325       -2.70786644517000        0.04757480959061
C            4.90860543096052       -1.34036994141138        0.00240816260542
C            7.15763519433045       -0.32045073023871        0.20643239721221
C           -7.46026335940824       -6.85321441768729       -0.18155251983925
C           -5.32470456766600       -5.86417637071444       -0.30980122436857
C           -7.34126875299745       -4.48577421960940       -0.47701627147950
O           -3.25158083448937       -4.76341718027178       -0.65027018638001
C           -5.15824489856509       -3.42042378174044       -0.39454937050415
C           -7.22998806768004       -2.11887663047317       -0.40397697516564
C           -0.82840681174053       -3.62428436986008        0.43317916915197
C           -2.97142376030072       -2.37486153671375       -0.06149291608861
C           -5.05146356130746       -1.01059292481912       -0.20268979304072
C           -7.14321286107820        0.29470877037320       -0.31543954894839
C           -8.11705934197703       -5.69364662014813       -0.37627688293788
C           -5.97751317464411       -4.59904835760652       -0.48331022080158
O           -7.98488843399850       -3.28657695632412       -0.49807793154942
C           -3.78921851716627       -3.52036606156740       -0.34205818898667
C           -5.82990363550001       -2.18156021800507       -0.30924174423170
C           -7.88315177180838       -0.89602648703377       -0.38572674895969
C            1.29777538768191       -2.49397021805130        0.02191219967501
C           -6.95994099921626        2.71808367769878       -0.14468066785379
O            1.82183835794882        7.17591501344687       -0.14126398997554
C           -0.82476204055769       -1.20270879254273        0.06340865858171
O            7.98005584255534        3.24268425112792       -0.08783124366950
C           -2.90543285247714        0.12953288637202        0.01138159345004
C            5.92302375308075        4.53135135267484       -0.23908123806779
C           -4.95583652911904        1.42206648236225       -0.23013192853882
C            3.85985004245259        5.89925710232462       -0.25413811358919
C            3.47065000774765       -1.33315901076358       -0.18945026576056
C           -4.60026627239380        4.04542794209427        0.98998991017211
C            1.33909646462481       -0.07684512379615       -0.23310958634245
C           -6.74298078544319        5.17948016034681        0.50271548240596
C           -0.71794611590674        1.25418363244454       -0.08084581778833
C            8.12843752354678        5.57718676002919       -0.22899871077642
C           -2.74412967691555        2.60426891566014        0.23143435694791
C            5.75805415677034       -0.22634993655397        0.24152844262371
C           -2.53718568250346        5.08980508776757        0.33279052730931
C            3.39073340610725        1.02716163346634       -0.89273905325999
C           -4.58056433503102        6.39616439393479        0.48620230187466
C            1.46818884024783        2.35877960029168       -0.31347490015881
C           -6.58401750239448        7.59550024218149        0.47601873052120
C           -0.54581214074777        3.71342188452696        0.02206151040179
C            7.91790311561744        0.90362808921016        0.23472210207160
C           -0.34822038143624        6.18171393870837        0.01981733961698
C            5.83567832844552        2.16226489696536        0.15164206203061
C           -2.35607830156007        7.53034222944945        0.26355957648051
C            3.69822378801822        3.42740835857206       -0.39231215769177
C            1.66073181381652        4.78768710873531       -0.22329247693520
C           -1.56267760917043       -2.40893784843766        0.16747674409389
C            7.26602241794415        2.10140681378779        0.12314117568547
C           -1.00511081714272        7.44275155499152        0.10071381854507
C           -3.63868233339476       -1.09146076273787       -0.08259501755648
C            5.13510437761394        3.30589316294155       -0.19371586961259
C           -5.71151987704970        0.23938834186086       -0.26195768381821
C            3.09446619969786        4.67049861248168       -0.30147934661941
C           -7.73436262395501        1.58804655846171       -0.14785307866467
C            1.05296466730878        6.04026859814650       -0.12575224499890
C            0.59854961569107       -1.25861635832399       -0.01688915506195
C           -1.48582205047140        0.06202601825101        0.00462893532086
C            7.32611328717401        4.44756710309210       -0.17900265259695
C           -3.56678493369787        1.41700394183401        0.02953301448696
C            5.32352888146290        5.81123221558290       -0.29661782632932
O           -5.62663515627471        2.60043766434605       -0.52120499520362
C            3.16999338419384        7.06845935587058       -0.18854029198076
C            2.74108745719031       -0.13298901172288       -0.47024879167336
C           -5.30027445160536        5.21699226284623        0.71462004870275
C            0.68504868163766        1.18039384600527       -0.24231593562208
C           -7.34858060389032        6.48879329223295        0.53845926034873
C           -1.35236464107681        2.52248315192104        0.04988143218796
C            7.52799826944159        6.82387291943213       -0.33379184210340
C           -3.28825612887086        3.89658243827319        0.54480518767602
O            5.20875987030109        1.00261775227955        0.57293213102698
C           -3.16762839846575        6.36636620434754        0.38820586238295
C            2.85699023390546        2.27111410582701       -0.57196160557356
O           -5.22998843341338        7.59406430725310        0.36424058788960
C            0.84985073169601        3.62091062956508       -0.16123503056207
C           -1.13798675832326        4.99813826822042        0.11193882563986
H           -3.79237680705979       -7.93955922757222        0.30993604017560
H            0.63363600477438       -8.31966716162794        0.41541821215536
H           -1.53462558443892       -8.15333437733891        0.83917209579267
H            3.05533440091438       -8.40004117934374        0.23588029571816
H            8.59275459515245       -6.39551808791996        0.03019983215499
H            8.83578721245491       -1.69355400736495        0.08352324858690
H            7.14879252754404       -8.45396623445069        0.09208813591700
H           -7.94454336334449       -7.81000230895357       -0.05049761832973
H           -9.19404508463659       -5.66771490689455       -0.40942949429122
H           -8.96333319416219       -0.86741960178576       -0.42431322109393
H            9.20233982075610        5.46693305073790       -0.18924521634353
H           -6.97045450812680        8.60474297019443        0.46233602188501
H            8.99673972671206        0.86986803812982        0.20839748519331
H           -2.83457463808731        8.50024946728973        0.30315135136580
H           -0.40932886680421        8.34236154138578        0.02220713000602
H           -8.79226381654732        1.66641607704888        0.06365984158745
H            3.61908154413986        8.04996299749516       -0.16563784389429
H           -8.42381282694458        6.60065001362890        0.55677860846720
H            8.14543842960863        7.71099771675203       -0.38423580943177
O            7.58557651586339       -3.94833210683582        0.03024943535711
C           -7.43949957808528        4.03723857334962        0.17835960813349
C            6.14992149387226        6.93978500235333       -0.35878352413678
O           -6.11100346398712       -6.98245047441968       -0.10630880927241
H           -8.51908720687238        4.13330610995624        0.11718173427212
H            5.71691656274442        7.92643660028311       -0.42947421234471
H            4.34225686426330        0.95873769958832       -1.39653816922876
H           -2.42577196029362       -4.71544179587737        1.35412844704026
H           -5.11243487833079        3.22772186439981        1.47062979240286
128
 energy: -254.641764579336 gnorm: 0.013167042976 xtb: 6.7.1pre (5071a88)
C           -3.18119288153826       -7.01840111748156        0.23386205738507
C            1.17824820318976       -7.36891465327116        0.35141940497625
C           -0.93024550223007       -6.03999580719936        0.64696516190047
O            5.38988231937616       -7.44801609143673        0.12346321465751
C            3.31622500870616       -6.23704471477178        0.18968952756456
C            1.22500401838201       -4.94074499511616        0.29885909908521
C           -1.87434936861903       -7.13082917466374        0.59516623664893
C           -3.93389197311501       -5.88966684930353       -0.23122201900312
C            2.53395493132035       -7.42026984852926        0.25748094918506
C            0.46884509325923       -6.14098548360740        0.41585174638885
C           -1.46775738554404       -4.77209340463787        0.86750789698860
C            7.49663184598795       -6.32192805683883        0.05186185079983
C            5.44618437334902       -5.04485073353189        0.05706586648627
C            3.36506057722496       -3.77430612071647        0.07494411827695
C            5.53312575637397       -2.61093157102416        0.01623985381317
C            7.73413565629422       -1.58273522329910        0.09280617380269
C            6.73151903432953       -7.43906663544270        0.08560199245988
C            4.71702342239050       -6.24901494342575        0.11765035245407
C            2.63265569532550       -4.98381633289937        0.18800989729575
C            0.56722544950089       -3.67914351591264        0.22757528254013
C            6.84803293692506       -5.05855785375083        0.04232514183094
C            4.76104805285233       -3.80076628275352        0.02712567600362
C            2.71200387783982       -2.51570967950206       -0.03367599514072
C            6.94404437885530       -2.70788850862497        0.05096387372718
C            4.89431337275813       -1.34266718142881        0.00836853687404
C            7.12963705096819       -0.31842201233951        0.20409333653060
C           -7.43011226028821       -6.83418346153964       -0.17995641424510
C           -5.30674965562048       -5.84949029304461       -0.29953324997555
C           -7.32498151845016       -4.46448084145536       -0.46893766001187
O           -3.23166984346203       -4.74616296835173       -0.64168814271179
C           -5.14059174690742       -3.40736387707377       -0.39180196315450
C           -7.21399092982958       -2.11128405567436       -0.40153164343709
C           -0.83032843727681       -3.61048596511022        0.42888474092054
C           -2.96319951013190       -2.36232260802074       -0.06651067554085
C           -5.03312554325979       -1.00400418067352       -0.20310380185545
C           -7.11842191192862        0.29817096508533       -0.30857455124611
C           -8.09145863188779       -5.67949949168739       -0.37301870483900
C           -5.96142584916861       -4.58401701327111       -0.46794004720005
O           -7.96701762654203       -3.26912449058396       -0.49666690956013
C           -3.76977841449571       -3.50933570016324       -0.34528493132395
C           -5.81251564460416       -2.16952936333348       -0.30818861442413
C           -7.85911631297311       -0.88715519964527       -0.37951009082548
C            1.29323338670102       -2.48754323980010        0.02011294906858
C           -6.93018586833843        2.71396718877483       -0.14807732426924
O            1.81612746931061        7.16415979905069       -0.13812943153915
C           -0.81966332834079       -1.19834109857006        0.06096272559332
O            7.96075447884334        3.23482438060097       -0.08622390640272
C           -2.89388384858287        0.13139813363924        0.00685561392199
C            5.90566199958429        4.52107555337706       -0.23542256769852
C           -4.93924916250085        1.42772889055411       -0.23098736271273
C            3.85073423568692        5.88627797921388       -0.25128382472164
C            3.46377851706870       -1.33444254703254       -0.18462302903429
C           -4.59033878505611        4.02899950892452        0.98508904262242
C            1.34147841623261       -0.07643856506629       -0.22135536125149
C           -6.72830691541357        5.16224484547884        0.49606281397517
C           -0.71210525415390        1.24970955943504       -0.08131362743995
C            8.10355819879683        5.56467492207973       -0.22836901712123
C           -2.73410297786477        2.59240401266846        0.22566244084100
C            5.73373932132308       -0.22158643720451        0.24474031802209
C           -2.53350763737812        5.06937589525995        0.31976450505720
C            3.38762619791408        1.02302962039897       -0.88442695632997
C           -4.57412343655498        6.37857582142214        0.47125620912989
C            1.46974691616492        2.35200187933766       -0.30069306032646
C           -6.56418388951050        7.56979498546014        0.47291051409648
C           -0.54372373319959        3.70114528516239        0.02141649053838
C            7.88989421019372        0.89882721030540        0.22877080335209
C           -0.35003109763183        6.15998258319632        0.01778531200114
C            5.81490379910417        2.15275914148051        0.15348858969221
C           -2.35456730708014        7.50099301036176        0.26232342100276
C            3.69001562699767        3.42005193346995       -0.38319185869022
C            1.65591025427249        4.77629573500019       -0.21825239276824
C           -1.55702087555829       -2.39822812177558        0.16468048527587
C            7.24365036349657        2.09868523937496        0.11944135491581
C           -1.00700809349095        7.41523071245098        0.10024457633657
C           -3.62541870295526       -1.08553085407414       -0.08626676277054
C            5.12068193929633        3.30170434722301       -0.18847608010322
C           -5.69099253721864        0.24420307716152       -0.25868697508016
C            3.08629580302643        4.65926210208200       -0.29447642596007
C           -7.70708802521087        1.58592491611848       -0.14499433394062
C            1.05113509647757        6.03075233191059       -0.12395943250031
C            0.59890578161756       -1.25449155764790       -0.01182296444004
C           -1.47864790360870        0.06257586047099        0.00170403671445
C            7.30695202161793        4.43157459525941       -0.17719632992471
C           -3.55008436158730        1.41142208984208        0.02379751461273
C            5.30628658262435        5.79677923553477       -0.29434903787791
O           -5.60280462361927        2.60396667981362       -0.50778974232569
C            3.15627892476715        7.05234363941439       -0.18724987173903
C            2.73823358552017       -0.13535647088940       -0.45831625672467
C           -5.28867640535343        5.19935034142325        0.70124795760448
C            0.68937287175277        1.17638703403221       -0.23438615662645
C           -7.33216580100586        6.46755078316326        0.53728528159887
C           -1.34449188379834        2.51437398307743        0.04698468202956
C            7.50508469148659        6.80758604323260       -0.33334511301055
C           -3.28012265859250        3.88041849176555        0.53415026221585
O            5.17705375298263        1.00094401657319        0.56114159965022
C           -3.16232749814359        6.34025481770357        0.37914592843248
C            2.85449402550928        2.26649921178202       -0.55821577523342
O           -5.22079955808850        7.57291905381389        0.35193381137192
C            0.85033750726784        3.61184671572863       -0.15420635905138
C           -1.13751210615841        4.98026273449954        0.10527382435690
H           -3.78949289987098       -7.91294648513078        0.30026545377094
H            0.62504039281002       -8.29399106198356        0.41040078746295
H           -1.52592841845706       -8.12645919656765        0.83406221473142
H            3.04628076377052       -8.37088609433994        0.23854013075932
H            8.56971866281809       -6.38377213037161        0.03143089973992
H            8.80716810374542       -1.67763279614869        0.07867363533450
H            7.13730061047497       -8.43885788755705        0.09062832136066
H           -7.92077992545769       -7.78830313866246       -0.05818279223629
H           -9.16520753553450       -5.65110818727647       -0.41188207650862
H           -8.93619961892603       -0.85464060898207       -0.42211311755104
H            9.17512792008880        5.45677795981624       -0.18873384531213
H           -6.95724484909878        8.57590753870655        0.46132055425089
H            8.96570550308776        0.86088709170412        0.20687969705893
H           -2.83632963446162        8.46665064308244        0.30796731622195
H           -0.41028279288211        8.31195291524435        0.02353556724434
H           -8.76371899410765        1.66189026151564        0.05692446206745
H            3.61088769313353        8.03082708765253       -0.16755137292676
H           -8.40467961683665        6.57349964654119        0.56359651269547
H            8.12171568371958        7.69201671844934       -0.38587877995314
O            7.57806408770361       -3.93280198502098        0.03367110902216
C           -7.42230150578069        4.02409039385898        0.17033446132777
C            6.13066842221425        6.92226085214398       -0.35745947346901
O           -6.08984375074334       -6.97053288153728       -0.10027124395497
H           -8.49960855417391        4.11686158106560        0.11084625979671
H            5.69779705274895        7.90624659060564       -0.42818693716615