128
 energy: -254.643251731693 gnorm: 0.000490903198 xtb: 6.7.1pre (5071a88)
C           -3.16440404677674       -7.01070415713617        0.24633069569072
C            1.14850692973158       -7.35830669121373        0.31350699189880
C           -0.93518782441176       -6.01905597476896        0.69571329169428
O            5.35619355323144       -7.45360511567367        0.08524916412799
C            3.29207404792154       -6.23500854950454        0.16002807043772
C            1.21489480546609       -4.93040379147873        0.31089002372045
C           -1.86791685184808       -7.12067833950594        0.63591458109059
C           -3.89590888255607       -5.86729077229931       -0.22107605772247
C            2.50287292477597       -7.41611440465282        0.20555680033845
C            0.45356795690660       -6.12486670333401        0.42482439384014
C           -1.46821349376953       -4.75421852394806        0.94060372534639
C            7.46742180661054       -6.33075340959181        0.05164075477423
C            5.42536131121497       -5.04926201889635        0.04659746898049
C            3.35211985755497       -3.77186398821492        0.06950402800835
C            5.51813289940094       -2.61655900110629        0.01433926848527
C            7.71172071413596       -1.58698037742636        0.09773830603631
C            6.69803958356210       -7.44545307400205        0.06417856608400
C            4.69117470730987       -6.25023694338026        0.09015833903535
C            2.61769088775084       -4.97901764001038        0.17909133147790
C            0.56195077769892       -3.66852671208207        0.26301039996719
C            6.82513437347992       -5.06493225201319        0.04417868469159
C            4.74529379291325       -3.80378667513047        0.02098986950266
C            2.70224547475809       -2.51340207890151       -0.03382190262925
C            6.92825886413099       -2.71717349718934        0.05706840925829
C            4.88036860011527       -1.34970398508916       -0.00247274939544
C            7.10499223036499       -0.32335028516957        0.20119611530892
C           -7.37899302720217       -6.82445439021763       -0.20058693262326
C           -5.26570186557578       -5.82910019817739       -0.29562823334710
C           -7.28720153291279       -4.45431519620705       -0.48704427297493
O           -3.18443006952126       -4.72602816767686       -0.59794944051965
C           -5.10809911537002       -3.39475259879587       -0.38522126448684
C           -7.18519872143978       -2.10678266080624       -0.42255906926936
C           -0.82845157678097       -3.59643934017418        0.49055534645009
C           -2.94575760911891       -2.34859736755337       -0.02728963850110
C           -5.01118946991913       -0.99458811480980       -0.19624848428031
C           -7.09261839982802        0.30199204886331       -0.32933790195997
C           -8.04629984866027       -5.67392571983467       -0.40020625833456
C           -5.92526101579161       -4.56962667397474       -0.46989072961741
O           -7.93321097051354       -3.26268526348863       -0.52595463654817
C           -3.73962825899369       -3.49639913440051       -0.31912807893477
C           -5.78461224964800       -2.16058629697776       -0.31210782616014
C           -7.83114572984808       -0.88340496972951       -0.41013914400132
C            1.28795465645162       -2.48131046610242        0.04080628123712
C           -6.90465003849119        2.71194772840073       -0.15189714734114
O            1.80332838750401        7.16260929640608       -0.14936026906488
C           -0.80878059895733       -1.18817321749809        0.10569682857262
O            7.93726715453279        3.22645172063012       -0.07512426551568
C           -2.87907072004605        0.13788389747952        0.04060286311965
C            5.88763425650777        4.51525376970115       -0.23248345449386
C           -4.91904684515499        1.43387496597266       -0.21204344584820
C            3.83616464676870        5.88253579304655       -0.25381189625822
C            3.45307998076395       -1.33503204280223       -0.19629012951084
C           -4.57791745450448        4.02072064377244        1.02997052095432
C            1.34552503172312       -0.07161325460406       -0.20991284468848
C           -6.71827877453668        5.14709891281045        0.50776287576629
C           -0.70342269708820        1.25249330171116       -0.05355231052323
C            8.08309642102855        5.55697260719280       -0.21508624424559
C           -2.72206623182949        2.59196599140198        0.25847649079143
C            5.71055325671094       -0.22440345297232        0.23344420271940
C           -2.53036468531926        5.06077657924141        0.32516707081035
C            3.37877666145846        1.02021071710550       -0.92208852159036
C           -4.57119557006096        6.35852775904353        0.45502565517680
C            1.47100631212326        2.35073781283363       -0.29856815580572
C           -6.55874198080898        7.55068679774185        0.45191638230239
C           -0.53839752791452        3.69805850979284        0.03482857647673
C            7.86718152277455        0.89169212916062        0.22929244719650
C           -0.35593786323379        6.15544837538132        0.00383453644508
C            5.79216913393898        2.14351420057369        0.14335477884554
C           -2.36173575221043        7.49396783681729        0.23092598774294
C            3.67840339726754        3.41639231157209       -0.39798889228778
C            1.64933977387214        4.77503017424844       -0.22279716996038
C           -1.54507028477316       -2.38498737721748        0.21903916600863
C            7.21940535291410        2.09031399634078        0.11920591363052
C           -1.01305033142910        7.41167481970951        0.07313218038456
C           -3.60790362560651       -1.07676066437829       -0.05927650456676
C            5.10487085292483        3.29741735983564       -0.19696265514795
C           -5.66727762175158        0.25227679124867       -0.25687686647133
C            3.07553154334676        4.65629426380283       -0.30210628557470
C           -7.68462176863793        1.58644204251027       -0.17435651295693
C            1.04347569267458        6.02854987326242       -0.13418989418618
C            0.60502019314626       -1.24576910726538        0.01846854311392
C           -1.46705737062698        0.06862338537322        0.03937623014616
C            7.28762754168483        4.42375643507457       -0.16761328540204
C           -3.53383304533088        1.41353774235819        0.05502900221093
C            5.28893477332157        5.79129375611128       -0.29231837276629
O           -5.57293789553710        2.61346366145685       -0.47484938681705
C            3.14221928256772        7.04980627672480       -0.19239678616285
C            2.73454295574594       -0.13424898439793       -0.47459859494727
C           -5.27961080156198        5.18322912774031        0.71891947416379
C            0.69298365710699        1.17815820283209       -0.21886656807358
C           -7.32608000085556        6.44997750608717        0.55010990820130
C           -1.33506626394038        2.51417783428751        0.07264365416064
C            7.48547377977682        6.80152318618561       -0.32436615978421
C           -3.27093104342710        3.87509307740753        0.56611885186364
O            5.14448268858943        0.99465789478550        0.53006328539567
C           -3.16094099130037        6.32917870618756        0.36228242038798
C            2.84857993637345        2.26230622937914       -0.57947818655124
O           -5.21955489429583        7.54714126858759        0.30299189913857
C            0.85235706764191        3.60921550961091       -0.14870770437488
C           -1.13621702727612        4.97420302364153        0.10575943219967
H           -3.77937471140653       -7.90079695337367        0.28372489728998
H            0.58475844610753       -8.27790651579923        0.34764656797785
H           -1.51274659418780       -8.11105662680953        0.88474297717203
H            3.01042479784145       -8.36767631199061        0.15740810600173
H            8.54083780655444       -6.39514194310791        0.04511854462163
H            8.78582565752430       -1.67193245152839        0.08577918638911
H            7.10369221181654       -8.44532817757102        0.06306006029871
H           -7.87005383570915       -7.77920805267751       -0.08728859919290
H           -9.11940359296930       -5.64866096287015       -0.45463012686036
H           -8.90757092206575       -0.84620559746933       -0.46508380261650
H            9.15436024398861        5.44564965432576       -0.17058529131743
H           -6.95495600613769        8.55505007621641        0.43308855123650
H            8.94273686183146        0.85129507104191        0.20996766110597
H           -2.85295941566996        8.45460598366144        0.26624746540158
H           -0.41407272186500        8.30569983106410       -0.01039016065377
H           -8.74509641388587        1.66551335621409        0.00049845672036
H            3.60273781382067        8.02525476464277       -0.17095221770575
H           -8.39832045564463        6.54628345977443        0.59933337354442
H            8.10223308948235        7.68550415072744       -0.37633825844429
O            7.55796695870488       -3.93977164964467        0.04934506885374
C           -7.41142271993665        4.01250380687809        0.16915563934156
C            6.11101933362558        6.91818812392028       -0.35373098162937
O           -6.04062478588293       -6.95564242095546       -0.10125624031361
H           -8.48749064701914        4.09867319946034        0.09592176651476
H            5.67229506546158        7.89962046524381       -0.42781330152769
H            4.29442940013558        0.94971241599326       -1.48800360791783
H           -2.40707203605604       -4.67611388833870        1.46731583030864
H           -5.06790557174180        3.22461596331087        1.56705948221534
