      -----------------------------------------------------------      
     |                   =====================                   |     
     |                           x T B                           |     
     |                   =====================                   |     
     |                         S. Grimme                         |     
     |          Mulliken Center for Theoretical Chemistry        |     
     |                    University of Bonn                     |     
      -----------------------------------------------------------      

   * xtb version 6.7.1pre (5071a88) compiled by 'Marcel@Raven' on 2024-07-23

   xtb is free software: you can redistribute it and/or modify it under
   the terms of the GNU Lesser General Public License as published by
   the Free Software Foundation, either version 3 of the License, or
   (at your option) any later version.
   
   xtb is distributed in the hope that it will be useful,
   but WITHOUT ANY WARRANTY; without even the implied warranty of
   MERCHANTABILITY or FITNESS FOR A PARTICULAR PURPOSE.  See the
   GNU Lesser General Public License for more details.
   
   Cite this work as:
   * C. Bannwarth, E. Caldeweyher, S. Ehlert, A. Hansen, P. Pracht,
     J. Seibert, S. Spicher, S. Grimme, WIREs Comput. Mol. Sci., 2020, 11,
     e01493. DOI: 10.1002/wcms.1493
   
   for GFN2-xTB:
   * C. Bannwarth, S. Ehlert and S. Grimme., J. Chem. Theory Comput., 2019,
     15, 1652-1671. DOI: 10.1021/acs.jctc.8b01176
   for GFN1-xTB:
   * S. Grimme, C. Bannwarth, P. Shushkov, J. Chem. Theory Comput., 2017,
     13, 1989-2009. DOI: 10.1021/acs.jctc.7b00118
   for GFN0-xTB:
   * P. Pracht, E. Caldeweyher, S. Ehlert, S. Grimme, ChemRxiv, 2019, preprint.
     DOI: 10.26434/chemrxiv.8326202.v1
   for GFN-FF:
   * S. Spicher and S. Grimme, Angew. Chem. Int. Ed., 2020, 59, 15665-15673.
     DOI: 10.1002/anie.202004239
   
   for ALPB and GBSA implicit solvation:
   * S. Ehlert, M. Stahn, S. Spicher, S. Grimme, J. Chem. Theory Comput.,
     2021, 17, 4250-4261. DOI: 10.1021/acs.jctc.1c00471
   
   for ddCOSMO and CPCM-X implicit solvation:
   * M. Stahn, S. Ehlert, S. Grimme, J. Phys. Chem. A,
     2023, XX, XXXX-XXXX. DOI: 10.1021/acs.jpca.3c04382
   
   for DFT-D4:
   * E. Caldeweyher, C. Bannwarth and S. Grimme, J. Chem. Phys., 2017,
     147, 034112. DOI: 10.1063/1.4993215
   * E. Caldeweyher, S. Ehlert, A. Hansen, H. Neugebauer, S. Spicher,
     C. Bannwarth and S. Grimme, J. Chem. Phys., 2019, 150, 154122.
     DOI: 10.1063/1.5090222
   * E. Caldeweyher, J.-M. Mewes, S. Ehlert and S. Grimme, Phys. Chem. Chem. Phys.
     2020, 22, 8499-8512. DOI: 10.1039/D0CP00502A
   
   for sTDA-xTB:
   * S. Grimme and C. Bannwarth, J. Chem. Phys., 2016, 145, 054103.
     DOI: 10.1063/1.4959605
   
   in the mass-spec context:
   * V. Asgeirsson, C. Bauer and S. Grimme, Chem. Sci., 2017, 8, 4879.
     DOI: 10.1039/c7sc00601b
   * J. Koopman and S. Grimme, ACS Omega 2019, 4, 12, 15120-15133.
     DOI: 10.1021/acsomega.9b02011
   
   for metadynamics refer to:
   * S. Grimme, J. Chem. Theory Comput., 2019, 155, 2847-2862
     DOI: 10.1021/acs.jctc.9b00143
   
   for SPH calculations refer to:
   * S. Spicher and S. Grimme, J. Chem. Theory Comput., 2021, 17, 1701-1714
     DOI: 10.1021/acs.jctc.0c01306
   
   for ONIOM refer to:
   * C. Plett, A. Katbashev, S. Ehlert, S. Grimme, M. Bursch,
     Phys. Chem. Chem. Phys., 2023, 25, 17860-17868. DOI: 10.1039/D3CP02178E
   
   for DIPRO refer to:
   * J. Kohn, N. Gildemeister, S. Grimme, D. Fazzi, A. Hansen,
     J. Chem. Phys., 2023, just accepted.
   
   for PTB refer to:
   * S. Grimme, M. Mueller, A. Hansen, J. Chem. Phys., 2023, 158, 124111.
     DOI: 10.1063/5.0137838
   
   with help from (in alphabetical order)
   P. Atkinson, C. Bannwarth, F. Bohle, G. Brandenburg, E. Caldeweyher
   M. Checinski, S. Dohm, S. Ehlert, S. Ehrlich, I. Gerasimov, C. Hölzer
   A. Katbashev, J. Kohn, J. Koopman, C. Lavigne, S. Lehtola, F. März, M. Müller,
   F. Musil, H. Neugebauer, J. Pisarek, C. Plett, P. Pracht, F. Pultar,
   J. Seibert, P. Shushkov, S. Spicher, M. Stahn, M. Steiner, T. Strunk,
   J. Stückrath, T. Rose, and J. Unsleber
   
 * started run on 2025/12/08 at 00:31:09.095     
   ID    Z sym.   atoms
    1    6 C      1-94
    2    1 H      95-122
    3   15 P      123-132

           -------------------------------------------------
          |                Calculation Setup                |
           -------------------------------------------------

          program call               : xtb "C:\Users\LENOVO GAMING\Documents\GitHub\molecular-conductivity-sim\results\1.5nm-10Pdoped-7percent\xtbopt.xyz" --sp
          coordinate file            : C:\Users\LENOVO GAMING\Documents\GitHub\molecular-conductivity-sim\results\1.5nm-10Pdoped-7percent\xtbopt.xyz
          omp threads                :                    16


           -------------------------------------------------
          |                 G F N 2 - x T B                 |
           -------------------------------------------------

        Reference                      10.1021/acs.jctc.8b01176
      * Hamiltonian:
        H0-scaling (s, p, d)           1.850000    2.230000    2.230000
        zeta-weighting                 0.500000
      * Dispersion:
        s8                             2.700000
        a1                             0.520000
        a2                             5.000000
        s9                             5.000000
      * Repulsion:
        kExp                           1.500000    1.000000
        rExp                           1.000000
      * Coulomb:
        alpha                          2.000000
        third order                    shell-resolved
        anisotropic                    true
        a3                             3.000000
        a5                             4.000000
        cn-shift                       1.200000
        cn-exp                         4.000000
        max-rad                        5.000000

q/qsh data taken from xtbrestart
CAMM data taken from xtbrestart

          ...................................................
          :                      SETUP                      :
          :.................................................:
          :  # basis functions                 504          :
          :  # atomic orbitals                 494          :
          :  # shells                          246          :
          :  # electrons                       454          :
          :  max. iterations                   250          :
          :  Hamiltonian                  GFN2-xTB          :
          :  restarted?                       true          :
          :  GBSA solvation                  false          :
          :  PC potential                    false          :
          :  electronic temp.          300.0000000     K    :
          :  accuracy                    1.0000000          :
          :  -> integral cutoff          0.2500000E+02      :
          :  -> integral neglect         0.1000000E-07      :
          :  -> SCF convergence          0.1000000E-05 Eh   :
          :  -> wf. convergence          0.1000000E-03 e    :
          :  Broyden damping             0.4000000          :
          :  net charge                          0          :
          :  unpaired electrons                  0          :
          ...................................................

 iter      E             dE          RMSdq      gap      omega  full diag
   1   -245.3882239 -0.245388E+03  0.190E-05    0.11       0.0  T
   2   -245.3882239  0.133111E-07  0.229E-04    0.11      38.1  T
   3   -245.3882239 -0.130814E-07  0.340E-05    0.11     256.0  T

   *** convergence criteria satisfied after 3 iterations ***

         #    Occupation            Energy/Eh            Energy/eV
      -------------------------------------------------------------
         1        2.0000           -0.6909294             -18.8011
       ...           ...                  ...                  ...
       221        2.0000           -0.3794421             -10.3251
       222        2.0000           -0.3740265             -10.1778
       223        2.0000           -0.3662568              -9.9664
       224        2.0000           -0.3619205              -9.8484
       225        2.0000           -0.3538808              -9.6296
       226        2.0000           -0.3501140              -9.5271
       227        1.7863           -0.3315055              -9.0207 (HOMO)
       228        0.2137           -0.3274707              -8.9109 (LUMO)
       229                         -0.3115322              -8.4772
       230                         -0.3039454              -8.2708
       231                         -0.3008903              -8.1876
       232                         -0.2975374              -8.0964
       ...                                ...                  ...
       494                          0.9894084              26.9232
      -------------------------------------------------------------
                  HL-Gap            0.0040348 Eh            0.1098 eV
             Fermi-level           -0.3294881 Eh           -8.9658 eV

 SCC (total)                   0 d,  0 h,  0 min,  0.370 sec
 SCC setup                      ...        0 min,  0.002 sec (  0.541%)
 Dispersion                     ...        0 min,  0.010 sec (  2.703%)
 classical contributions        ...        0 min,  0.001 sec (  0.270%)
 integral evaluation            ...        0 min,  0.032 sec (  8.649%)
 iterations                     ...        0 min,  0.231 sec ( 62.432%)
 molecular gradient             ...        0 min,  0.088 sec ( 23.784%)
 printout                       ...        0 min,  0.006 sec (  1.622%)

         :::::::::::::::::::::::::::::::::::::::::::::::::::::
         ::                     SUMMARY                     ::
         :::::::::::::::::::::::::::::::::::::::::::::::::::::
         :: total energy            -241.107840188399 Eh    ::
         :: gradient norm              0.000360162013 Eh/a0 ::
         :: HOMO-LUMO gap              0.109791708064 eV    ::
         ::.................................................::
         :: SCC energy              -245.393360159917 Eh    ::
         :: -> isotropic ES            0.006009378098 Eh    ::
         :: -> anisotropic ES          0.003332188862 Eh    ::
         :: -> anisotropic XC          0.087661050317 Eh    ::
         :: -> dispersion             -0.319584075137 Eh    ::
         :: repulsion energy           4.285519971518 Eh    ::
         :: add. restraining           0.000000000000 Eh    ::
         :: total charge              -0.000000000000 e     ::
         :::::::::::::::::::::::::::::::::::::::::::::::::::::

           -------------------------------------------------
          |                Property Printout                |
           -------------------------------------------------

    * Orbital Energies and Occupations

         #    Occupation            Energy/Eh            Energy/eV
      -------------------------------------------------------------
         1        2.0000           -0.6909294             -18.8011
       ...           ...                  ...                  ...
       215        2.0000           -0.3922982             -10.6750
       216        2.0000           -0.3915432             -10.6544
       217        2.0000           -0.3899556             -10.6112
       218        2.0000           -0.3886006             -10.5744
       219        2.0000           -0.3868376             -10.5264
       220        2.0000           -0.3801198             -10.3436
       221        2.0000           -0.3794421             -10.3251
       222        2.0000           -0.3740265             -10.1778
       223        2.0000           -0.3662568              -9.9664
       224        2.0000           -0.3619205              -9.8484
       225        2.0000           -0.3538808              -9.6296
       226        2.0000           -0.3501140              -9.5271
       227        1.7863           -0.3315055              -9.0207 (HOMO)
       228        0.2137           -0.3274707              -8.9109 (LUMO)
       229                         -0.3115322              -8.4772
       230                         -0.3039454              -8.2708
       231                         -0.3008903              -8.1876
       232                         -0.2975374              -8.0964
       233                         -0.2871261              -7.8131
       234                         -0.2771687              -7.5421
       235                         -0.2756068              -7.4996
       236                         -0.2687419              -7.3128
       237                         -0.2644819              -7.1969
       238                         -0.2616344              -7.1194
       ...                                ...                  ...
       494                          0.9894084              26.9232
      -------------------------------------------------------------
                  HL-Gap            0.0040348 Eh            0.1098 eV
             Fermi-level           -0.3294881 Eh           -8.9658 eV

     #   Z          covCN         q      C6AA      α(0)
     1   6 C        2.931    -0.035    28.868     8.811
     2   6 C        2.912    -0.032    28.799     8.800
     3   6 C        2.985     0.005    27.892     8.663
     4   6 C        2.988     0.006    27.879     8.661
     5   6 C        2.930     0.005    27.909     8.664
     6   6 C        2.914    -0.033    28.810     8.802
     7   6 C        3.093     0.005    27.800     8.642
     8   6 C        3.025    -0.028    28.671     8.783
     9   6 C        3.070     0.007    27.802     8.646
    10   6 C        2.994     0.000    28.015     8.682
    11   6 C        3.123    -0.025    28.445     8.734
    12   6 C        3.090     0.011    27.661     8.621
    13   6 C        2.925     0.004    27.934     8.667
    14   6 C        3.047     0.006    27.841     8.654
    15   6 C        3.029    -0.037    28.885     8.816
    16   6 C        2.840    -0.036    28.884     8.808
    17   6 C        3.023    -0.003    28.085     8.693
    18   6 C        3.086     0.003    27.848     8.651
    19   6 C        2.911     0.002    27.978     8.673
    20   6 C        3.108     0.001    27.854     8.647
    21   6 C        3.064     0.004    27.881     8.659
    22   6 C        2.915     0.002    27.971     8.673
    23   6 C        2.993    -0.000    28.024     8.684
    24   6 C        2.974     0.010    27.784     8.646
    25   6 C        2.840    -0.035    28.867     8.805
    26   6 C        2.918    -0.005    28.159     8.702
    27   6 C        2.908    -0.002    28.067     8.687
    28   6 C        2.995     0.002    27.972     8.676
    29   6 C        2.978     0.000    28.023     8.683
    30   6 C        2.917     0.005    27.907     8.663
    31   6 C        2.996     0.000    28.011     8.682
    32   6 C        2.989     0.001    27.996     8.679
    33   6 C        3.068     0.005    27.840     8.652
    34   6 C        3.107     0.012    27.609     8.609
    35   6 C        3.146    -0.022    28.275     8.699
    36   6 C        3.077     0.012    27.665     8.623
    37   6 C        2.989     0.001    28.000     8.680
    38   6 C        3.048     0.005    27.857     8.656
    39   6 C        3.054    -0.040    28.943     8.823
    40   6 C        2.978     0.002    27.965     8.674
    41   6 C        3.024     0.008    27.803     8.649
    42   6 C        2.928    -0.033    28.811     8.803
    43   6 C        2.989     0.001    27.991     8.679
    44   6 C        3.067    -0.040    28.911     8.817
    45   6 C        3.068     0.003    27.890     8.660
    46   6 C        3.121     0.009    27.640     8.610
    47   6 C        3.077     0.005    27.835     8.650
    48   6 C        2.990    -0.001    28.050     8.688
    49   6 C        3.084     0.004    27.849     8.651
    50   6 C        2.989     0.002    27.980     8.677
    51   6 C        2.920     0.004    27.934     8.667
    52   6 C        2.987    -0.001    28.050     8.688
    53   6 C        2.994    -0.028    28.693     8.787
    54   6 C        3.127     0.003    27.763     8.628
    55   6 C        3.099     0.005    27.797     8.640
    56   6 C        2.979     0.003    27.945     8.671
    57   6 C        3.089     0.003    27.862     8.652
    58   6 C        2.995     0.005    27.901     8.665
    59   6 C        2.986     0.001    27.988     8.678
    60   6 C        2.915    -0.029    28.722     8.788
    61   6 C        2.991    -0.000    28.025     8.684
    62   6 C        3.032    -0.039    28.937     8.823
    63   6 C        2.918    -0.004    28.118     8.696
    64   6 C        2.853    -0.041    29.001     8.826
    65   6 C        3.085     0.004    27.835     8.649
    66   6 C        2.993     0.002    27.978     8.677
    67   6 C        2.989     0.000    28.019     8.683
    68   6 C        2.900     0.013    27.721     8.633
    69   6 C        2.979     0.002    27.983     8.677
    70   6 C        2.930     0.001    28.009     8.679
    71   6 C        2.934     0.002    27.976     8.674
    72   6 C        2.997     0.002    27.958     8.674
    73   6 C        3.076    -0.037    28.839     8.805
    74   6 C        3.088     0.007    27.752     8.635
    75   6 C        2.988     0.000    28.011     8.682
    76   6 C        2.992     0.000    28.010     8.682
    77   6 C        2.966     0.015    27.683     8.630
    78   6 C        2.928     0.002    27.992     8.677
    79   6 C        2.921    -0.001    28.065     8.687
    80   6 C        2.957     0.007    27.866     8.658
    81   6 C        2.929    -0.032    28.801     8.801
    82   6 C        2.994     0.001    28.004     8.681
    83   6 C        3.017     0.007    27.832     8.654
    84   6 C        2.988    -0.000    28.030     8.685
    85   6 C        3.069    -0.031    28.703     8.785
    86   6 C        2.994     0.000    28.014     8.682
    87   6 C        2.839    -0.031    28.775     8.791
    88   6 C        2.982     0.000    28.016     8.682
    89   6 C        2.928     0.000    28.018     8.681
    90   6 C        3.040     0.013    27.687     8.630
    91   6 C        2.978     0.000    28.021     8.683
    92   6 C        2.926    -0.035    28.861     8.810
    93   6 C        2.988     0.001    28.001     8.680
    94   6 C        3.022     0.006    27.872     8.660
    95   1 H        0.926     0.054     2.265     2.354
    96   1 H        0.926     0.037     2.490     2.467
    97   1 H        0.977     0.054     2.265     2.352
    98   1 H        0.976     0.056     2.241     2.339
    99   1 H        0.926     0.038     2.482     2.464
   100   1 H        0.925     0.041     2.431     2.438
   101   1 H        0.925     0.045     2.389     2.417
   102   1 H        0.925     0.043     2.408     2.427
   103   1 H        0.926     0.047     2.351     2.398
   104   1 H        0.926     0.046     2.366     2.405
   105   1 H        0.925     0.039     2.463     2.454
   106   1 H        0.976     0.054     2.261     2.350
   107   1 H        0.925     0.041     2.440     2.443
   108   1 H        0.926     0.062     2.180     2.309
   109   1 H        0.925     0.037     2.494     2.470
   110   1 H        0.925     0.034     2.525     2.485
   111   1 H        0.976     0.053     2.274     2.357
   112   1 H        0.926     0.037     2.485     2.465
   113   1 H        0.925     0.038     2.476     2.461
   114   1 H        0.927     0.044     2.402     2.423
   115   1 H        0.976     0.057     2.230     2.334
   116   1 H        0.925     0.044     2.396     2.420
   117   1 H        0.926     0.058     2.227     2.334
   118   1 H        0.925     0.043     2.414     2.430
   119   1 H        0.926     0.045     2.385     2.415
   120   1 H        0.926     0.039     2.459     2.452
   121   1 H        0.976     0.046     2.364     2.403
   122   1 H        0.976     0.051     2.296     2.368
   123  15 P        3.077    -0.119   165.633    23.119
   124  15 P        3.080    -0.097   164.630    23.049
   125  15 P        3.540    -0.037   161.883    22.855
   126  15 P        3.536    -0.046   162.270    22.883
   127  15 P        3.225    -0.097   164.590    23.046
   128  15 P        3.268    -0.087   164.158    23.016
   129  15 P        3.189    -0.117   165.532    23.112
   130  15 P        3.502    -0.054   162.653    22.910
   131  15 P        3.093    -0.080   163.828    22.993
   132  15 P        3.099    -0.093   164.415    23.034

 Mol. C6AA /au·bohr⁶  :     447129.794046
 Mol. C8AA /au·bohr⁸  :   14268360.921308
 Mol. α(0) /au        :       1114.703225


Wiberg/Mayer (AO) data.
largest (>0.10) Wiberg bond orders for each atom

 ---------------------------------------------------------------------------
     #   Z sym  total        # sym  WBO       # sym  WBO       # sym  WBO
 ---------------------------------------------------------------------------
     1   6 C    3.949 --     6 C    1.605     7 C    1.226    95 H    0.936
     2   6 C    3.950 --     8 C    1.674     9 C    1.145    96 H    0.961
     3   6 C    3.941 --    10 C    1.258     6 C    1.241     9 C    1.238
     4   6 C    3.975 --    17 C    1.553     8 C    1.164   130 P    1.004
     5   6 C    3.915 --     9 C    1.358    18 C    1.269   130 P    1.042
     6   6 C    3.972 --     1 C    1.605     3 C    1.241    99 H    0.960
     7   6 C    3.973 --    26 C    1.307    28 C    1.239     1 C    1.226
     8   6 C    3.955 --     2 C    1.674     4 C    1.164   100 H    0.940
     9   6 C    3.944 --     5 C    1.358     3 C    1.238     2 C    1.145
    10   6 C    3.973 --    28 C    1.267     3 C    1.258    31 C    1.222
    11   6 C    3.988 --    16 C    1.748    19 C    1.148   101 H    0.950
    12   6 C    3.981 --    19 C    1.538    20 C    1.103    17 C    1.094
    13   6 C    3.940 --    20 C    1.386    21 C    1.261   130 P    1.038
    14   6 C    3.960 --    22 C    1.257    23 C    1.256    20 C    1.208
    15   6 C    3.956 --    22 C    1.455    24 C    1.330   102 H    0.959
    16   6 C    3.926 --    11 C    1.748   131 P    1.075   103 H    0.949
    17   6 C    3.942 --     4 C    1.553    12 C    1.094   131 P    1.030
    18   6 C    3.960 --     5 C    1.269    31 C    1.257    40 C    1.203
    19   6 C    3.928 --    12 C    1.538    11 C    1.148   129 P    1.032
    20   6 C    3.941 --    13 C    1.386    14 C    1.208    12 C    1.103
    21   6 C    3.941 --    13 C    1.261    48 C    1.248    40 C    1.212
    22   6 C    3.899 --    15 C    1.455    14 C    1.257   129 P    1.034
    23   6 C    3.971 --    14 C    1.256    48 C    1.247    55 C    1.234
    24   6 C    3.904 --    15 C    1.330    62 C    1.216    55 C    1.204
    25   6 C    3.807 --    35 C    1.638   132 P    1.109   104 H    0.950
    26   6 C    3.850 --     7 C    1.307    36 C    1.285   132 P    1.055
    27   6 C    3.744 --    36 C    1.292    35 C    1.245   128 P    1.075
    28   6 C    3.944 --    10 C    1.267     7 C    1.239    37 C    1.225
    29   6 C    3.945 --    37 C    1.331    38 C    1.209    36 C    1.166
    30   6 C    3.961 --    39 C    1.476    38 C    1.256   128 P    1.033
    31   6 C    3.957 --    18 C    1.257    67 C    1.254    10 C    1.222
    32   6 C    3.973 --    69 C    1.335    67 C    1.220    37 C    1.192
    33   6 C    3.971 --    71 C    1.287    38 C    1.254    69 C    1.197
    34   6 C    3.972 --    71 C    1.326    39 C    1.293    73 C    1.164
    35   6 C    3.986 --    25 C    1.638    27 C    1.245   105 H    0.949
    36   6 C    3.975 --    27 C    1.292    26 C    1.285    29 C    1.166
    37   6 C    3.972 --    29 C    1.331    28 C    1.225    32 C    1.192
    38   6 C    3.949 --    30 C    1.256    33 C    1.254    29 C    1.209
    39   6 C    3.959 --    30 C    1.476    34 C    1.293   107 H    0.957
    40   6 C    3.929 --    75 C    1.294    21 C    1.212    18 C    1.203
    41   6 C    3.966 --    73 C    1.568    80 C    1.187   127 P    1.025
    42   6 C    3.973 --    81 C    1.625    74 C    1.219   108 H    0.936
    43   6 C    3.956 --    67 C    1.260    76 C    1.247    75 C    1.232
    44   6 C    3.957 --    77 C    1.536    68 C    1.206   109 H    0.956
    45   6 C    3.963 --    78 C    1.313    76 C    1.242    69 C    1.178
    46   6 C    3.974 --    79 C    1.364    70 C    1.294    77 C    1.087
    47   6 C    3.975 --    79 C    1.286    72 C    1.260    81 C    1.220
    48   6 C    3.975 --    21 C    1.248    23 C    1.247    82 C    1.243
    49   6 C    3.959 --    80 C    1.468    88 C    1.122    83 C    1.116
    50   6 C    3.960 --    84 C    1.263    82 C    1.258    75 C    1.219
    51   6 C    3.974 --    85 C    1.419    83 C    1.319   127 P    1.035
    52   6 C    3.968 --    86 C    1.255    76 C    1.248    84 C    1.239
    53   6 C    3.986 --    87 C    1.735    77 C    1.151   110 H    0.959
    54   6 C    3.954 --    78 C    1.305    86 C    1.259    88 C    1.160
    55   6 C    3.970 --    89 C    1.294    23 C    1.234    24 C    1.204
    56   6 C    3.947 --    88 C    1.441    94 C    1.170    90 C    1.111
    57   6 C    3.966 --    89 C    1.294    82 C    1.233    91 C    1.207
    58   6 C    3.974 --    92 C    1.374    83 C    1.311    90 C    1.078
    59   6 C    3.971 --    91 C    1.319    84 C    1.229    93 C    1.202
    60   6 C    3.975 --    92 C    1.453    85 C    1.416   112 H    0.969
    61   6 C    3.963 --    93 C    1.282    94 C    1.230    86 C    1.220
    62   6 C    3.914 --    68 C    1.528    24 C    1.216   113 H    0.957
    63   6 C    3.913 --    94 C    1.348    74 C    1.301   123 P    1.038
    64   6 C    3.882 --    90 C    1.635   123 P    1.110   114 H    0.945
    65   6 C    3.979 --    70 C    1.321    72 C    1.248    91 C    1.172
    66   6 C    3.971 --    93 C    1.261    74 C    1.248    72 C    1.233
    67   6 C    3.951 --    43 C    1.260    31 C    1.254    32 C    1.220
    68   6 C    3.910 --    62 C    1.528    44 C    1.206   125 P    1.015
    69   6 C    3.945 --    32 C    1.335    33 C    1.197    45 C    1.178
    70   6 C    3.893 --    65 C    1.321    46 C    1.294   125 P    1.032
    71   6 C    3.945 --    34 C    1.326    33 C    1.287   126 P    1.050
    72   6 C    3.977 --    47 C    1.260    65 C    1.248    66 C    1.233
    73   6 C    3.918 --    41 C    1.568    34 C    1.164   116 H    0.956
    74   6 C    3.965 --    63 C    1.301    66 C    1.248    42 C    1.219
    75   6 C    3.964 --    40 C    1.294    43 C    1.232    50 C    1.219
    76   6 C    3.961 --    52 C    1.248    43 C    1.247    45 C    1.242
    77   6 C    3.922 --    44 C    1.536    53 C    1.151    46 C    1.087
    78   6 C    3.896 --    45 C    1.313    54 C    1.305   126 P    1.043
    79   6 C    3.922 --    46 C    1.364    47 C    1.286   124 P    1.038
    80   6 C    3.907 --    49 C    1.468    41 C    1.187   126 P    1.008
    81   6 C    3.968 --    42 C    1.625    47 C    1.220   117 H    0.935
    82   6 C    3.959 --    50 C    1.258    48 C    1.243    57 C    1.233
    83   6 C    3.983 --    51 C    1.319    58 C    1.311    49 C    1.116
    84   6 C    3.937 --    50 C    1.263    52 C    1.239    59 C    1.229
    85   6 C    3.984 --    51 C    1.419    60 C    1.416   118 H    0.960
    86   6 C    3.952 --    54 C    1.259    52 C    1.255    61 C    1.220
    87   6 C    3.915 --    53 C    1.735   124 P    1.099   119 H    0.950
    88   6 C    3.970 --    56 C    1.441    54 C    1.160    49 C    1.122
    89   6 C    3.863 --    57 C    1.294    55 C    1.294   125 P    1.055
    90   6 C    3.983 --    64 C    1.635    56 C    1.111    58 C    1.078
    91   6 C    3.906 --    59 C    1.319    57 C    1.207    65 C    1.172
    92   6 C    3.988 --    60 C    1.453    58 C    1.374   120 H    0.963
    93   6 C    3.973 --    61 C    1.282    66 C    1.261    59 C    1.202
    94   6 C    3.966 --    63 C    1.348    61 C    1.230    56 C    1.170
    95   1 H    0.996 --     1 C    0.936
    96   1 H    0.997 --     2 C    0.961
    97   1 H    0.993 --   131 P    0.922
    98   1 H    0.952 --   132 P    0.899
    99   1 H    0.997 --     6 C    0.960
   100   1 H    0.996 --     8 C    0.940
   101   1 H    0.997 --    11 C    0.950
   102   1 H    0.997 --    15 C    0.959
   103   1 H    0.996 --    16 C    0.949
   104   1 H    0.996 --    25 C    0.950
   105   1 H    0.997 --    35 C    0.949
   106   1 H    0.974 --   128 P    0.926
   107   1 H    0.997 --    39 C    0.957
   108   1 H    0.995 --    42 C    0.936
   109   1 H    0.997 --    44 C    0.956
   110   1 H    0.997 --    53 C    0.959
   111   1 H    0.973 --   124 P    0.916
   112   1 H    0.997 --    60 C    0.969
   113   1 H    0.996 --    62 C    0.957
   114   1 H    0.996 --    64 C    0.945
   115   1 H    0.972 --   123 P    0.907
   116   1 H    0.997 --    73 C    0.956
   117   1 H    0.996 --    81 C    0.935
   118   1 H    0.997 --    85 C    0.960
   119   1 H    0.997 --    87 C    0.950
   120   1 H    0.997 --    92 C    0.963
   121   1 H    0.983 --   129 P    0.932
   122   1 H    0.993 --   127 P    0.926
   123  15 P    3.348 --    64 C    1.110    63 C    1.038   115 H    0.907
   124  15 P    3.367 --    87 C    1.099    79 C    1.038   111 H    0.916
   125  15 P    3.477 --    89 C    1.055    70 C    1.032    68 C    1.015
   126  15 P    3.535 --    71 C    1.050    78 C    1.043    80 C    1.008
   127  15 P    3.271 --    51 C    1.035    41 C    1.025   122 H    0.926
   128  15 P    3.312 --    27 C    1.075    30 C    1.033   106 H    0.926
   129  15 P    3.233 --    22 C    1.034    19 C    1.032   121 H    0.932
   130  15 P    3.525 --     5 C    1.042    13 C    1.038     4 C    1.004
   131  15 P    3.342 --    16 C    1.075    17 C    1.030    97 H    0.922
   132  15 P    3.345 --    25 C    1.109    26 C    1.055    98 H    0.899
 ---------------------------------------------------------------------------

Topologies differ in total number of bonds
Writing topology from bond orders to xtbtopo.mol

molecular dipole:
                 x           y           z       tot (Debye)
 q only:       -0.284       0.148       0.044
   full:       -0.365      -0.173       0.296       1.272
molecular quadrupole (traceless):
                xx          xy          yy          xz          yz          zz
 q only:        1.144      14.450      21.703      -6.069       1.788     -22.846
  q+dip:       20.818      18.246      26.953      -6.978      -0.562     -47.770
   full:        5.775      18.086      15.349      -6.542      -2.711     -21.124


           -------------------------------------------------
          | TOTAL ENERGY             -241.107840188399 Eh   |
          | GRADIENT NORM               0.000360162013 Eh/α |
          | HOMO-LUMO GAP               0.109791708064 eV   |
           -------------------------------------------------

------------------------------------------------------------------------
 * finished run on 2025/12/08 at 00:31:09.587     
------------------------------------------------------------------------
 total:
 * wall-time:     0 d,  0 h,  0 min,  0.488 sec
 *  cpu-time:     0 d,  0 h,  0 min,  4.609 sec
 * ratio c/w:     9.445 speedup
 SCF:
 * wall-time:     0 d,  0 h,  0 min,  0.373 sec
 *  cpu-time:     0 d,  0 h,  0 min,  3.609 sec
 * ratio c/w:     9.677 speedup

normal termination of xtb
