      -----------------------------------------------------------      
     |                   =====================                   |     
     |                           x T B                           |     
     |                   =====================                   |     
     |                         S. Grimme                         |     
     |          Mulliken Center for Theoretical Chemistry        |     
     |                    University of Bonn                     |     
      -----------------------------------------------------------      

   * xtb version 6.7.1pre (5071a88) compiled by 'Marcel@Raven' on 2024-07-23

   xtb is free software: you can redistribute it and/or modify it under
   the terms of the GNU Lesser General Public License as published by
   the Free Software Foundation, either version 3 of the License, or
   (at your option) any later version.
   
   xtb is distributed in the hope that it will be useful,
   but WITHOUT ANY WARRANTY; without even the implied warranty of
   MERCHANTABILITY or FITNESS FOR A PARTICULAR PURPOSE.  See the
   GNU Lesser General Public License for more details.
   
   Cite this work as:
   * C. Bannwarth, E. Caldeweyher, S. Ehlert, A. Hansen, P. Pracht,
     J. Seibert, S. Spicher, S. Grimme, WIREs Comput. Mol. Sci., 2020, 11,
     e01493. DOI: 10.1002/wcms.1493
   
   for GFN2-xTB:
   * C. Bannwarth, S. Ehlert and S. Grimme., J. Chem. Theory Comput., 2019,
     15, 1652-1671. DOI: 10.1021/acs.jctc.8b01176
   for GFN1-xTB:
   * S. Grimme, C. Bannwarth, P. Shushkov, J. Chem. Theory Comput., 2017,
     13, 1989-2009. DOI: 10.1021/acs.jctc.7b00118
   for GFN0-xTB:
   * P. Pracht, E. Caldeweyher, S. Ehlert, S. Grimme, ChemRxiv, 2019, preprint.
     DOI: 10.26434/chemrxiv.8326202.v1
   for GFN-FF:
   * S. Spicher and S. Grimme, Angew. Chem. Int. Ed., 2020, 59, 15665-15673.
     DOI: 10.1002/anie.202004239
   
   for ALPB and GBSA implicit solvation:
   * S. Ehlert, M. Stahn, S. Spicher, S. Grimme, J. Chem. Theory Comput.,
     2021, 17, 4250-4261. DOI: 10.1021/acs.jctc.1c00471
   
   for ddCOSMO and CPCM-X implicit solvation:
   * M. Stahn, S. Ehlert, S. Grimme, J. Phys. Chem. A,
     2023, XX, XXXX-XXXX. DOI: 10.1021/acs.jpca.3c04382
   
   for DFT-D4:
   * E. Caldeweyher, C. Bannwarth and S. Grimme, J. Chem. Phys., 2017,
     147, 034112. DOI: 10.1063/1.4993215
   * E. Caldeweyher, S. Ehlert, A. Hansen, H. Neugebauer, S. Spicher,
     C. Bannwarth and S. Grimme, J. Chem. Phys., 2019, 150, 154122.
     DOI: 10.1063/1.5090222
   * E. Caldeweyher, J.-M. Mewes, S. Ehlert and S. Grimme, Phys. Chem. Chem. Phys.
     2020, 22, 8499-8512. DOI: 10.1039/D0CP00502A
   
   for sTDA-xTB:
   * S. Grimme and C. Bannwarth, J. Chem. Phys., 2016, 145, 054103.
     DOI: 10.1063/1.4959605
   
   in the mass-spec context:
   * V. Asgeirsson, C. Bauer and S. Grimme, Chem. Sci., 2017, 8, 4879.
     DOI: 10.1039/c7sc00601b
   * J. Koopman and S. Grimme, ACS Omega 2019, 4, 12, 15120-15133.
     DOI: 10.1021/acsomega.9b02011
   
   for metadynamics refer to:
   * S. Grimme, J. Chem. Theory Comput., 2019, 155, 2847-2862
     DOI: 10.1021/acs.jctc.9b00143
   
   for SPH calculations refer to:
   * S. Spicher and S. Grimme, J. Chem. Theory Comput., 2021, 17, 1701-1714
     DOI: 10.1021/acs.jctc.0c01306
   
   for ONIOM refer to:
   * C. Plett, A. Katbashev, S. Ehlert, S. Grimme, M. Bursch,
     Phys. Chem. Chem. Phys., 2023, 25, 17860-17868. DOI: 10.1039/D3CP02178E
   
   for DIPRO refer to:
   * J. Kohn, N. Gildemeister, S. Grimme, D. Fazzi, A. Hansen,
     J. Chem. Phys., 2023, just accepted.
   
   for PTB refer to:
   * S. Grimme, M. Mueller, A. Hansen, J. Chem. Phys., 2023, 158, 124111.
     DOI: 10.1063/5.0137838
   
   with help from (in alphabetical order)
   P. Atkinson, C. Bannwarth, F. Bohle, G. Brandenburg, E. Caldeweyher
   M. Checinski, S. Dohm, S. Ehlert, S. Ehrlich, I. Gerasimov, C. Hölzer
   A. Katbashev, J. Kohn, J. Koopman, C. Lavigne, S. Lehtola, F. März, M. Müller,
   F. Musil, H. Neugebauer, J. Pisarek, C. Plett, P. Pracht, F. Pultar,
   J. Seibert, P. Shushkov, S. Spicher, M. Stahn, M. Steiner, T. Strunk,
   J. Stückrath, T. Rose, and J. Unsleber
   
 * started run on 2025/12/08 at 00:30:49.889     
   ID    Z sym.   atoms
    1    6 C      1-94
    2    1 H      95-122
    3   15 P      123-132

           -------------------------------------------------
          |                Calculation Setup                |
           -------------------------------------------------

          program call               : xtb "C:\Users\LENOVO GAMING\Documents\GitHub\molecular-conductivity-sim\dataset\1.5nm-10Pdoped-7percent.xyz" --opt --parallel 4
          coordinate file            : C:\Users\LENOVO GAMING\Documents\GitHub\molecular-conductivity-sim\dataset\1.5nm-10Pdoped-7percent.xyz
          omp threads                :                     4


           -------------------------------------------------
          |                 G F N 2 - x T B                 |
           -------------------------------------------------

        Reference                      10.1021/acs.jctc.8b01176
      * Hamiltonian:
        H0-scaling (s, p, d)           1.850000    2.230000    2.230000
        zeta-weighting                 0.500000
      * Dispersion:
        s8                             2.700000
        a1                             0.520000
        a2                             5.000000
        s9                             5.000000
      * Repulsion:
        kExp                           1.500000    1.000000
        rExp                           1.000000
      * Coulomb:
        alpha                          2.000000
        third order                    shell-resolved
        anisotropic                    true
        a3                             3.000000
        a5                             4.000000
        cn-shift                       1.200000
        cn-exp                         4.000000
        max-rad                        5.000000


          ...................................................
          :                      SETUP                      :
          :.................................................:
          :  # basis functions                 504          :
          :  # atomic orbitals                 494          :
          :  # shells                          246          :
          :  # electrons                       454          :
          :  max. iterations                   250          :
          :  Hamiltonian                  GFN2-xTB          :
          :  restarted?                      false          :
          :  GBSA solvation                  false          :
          :  PC potential                    false          :
          :  electronic temp.          300.0000000     K    :
          :  accuracy                    1.0000000          :
          :  -> integral cutoff          0.2500000E+02      :
          :  -> integral neglect         0.1000000E-07      :
          :  -> SCF convergence          0.1000000E-05 Eh   :
          :  -> wf. convergence          0.1000000E-03 e    :
          :  Broyden damping             0.4000000          :
          :  net charge                          0          :
          :  unpaired electrons                  0          :
          ...................................................

 iter      E             dE          RMSdq      gap      omega  full diag
   1   -244.9584798 -0.244958E+03  0.522E+00    0.15       0.0  T
   2   -244.8101988  0.148281E+00  0.321E+00    0.71       1.0  T
   3   -232.7811458  0.120291E+02  0.492E+00    0.13       1.0  T
   4   -242.2071212 -0.942598E+01  0.234E+00    0.04       1.0  T
   5   -244.8257997 -0.261868E+01  0.103E+00    0.10       1.0  T
   6   -244.9059999 -0.802002E-01  0.105E+00    0.32       1.0  T
   7   -245.0588393 -0.152839E+00  0.373E-01    0.13       1.0  T
   8   -244.9714602  0.873791E-01  0.755E-01    0.20       1.0  T
   9   -245.0598145 -0.883543E-01  0.214E-01    0.13       1.0  T
  10   -245.0624888 -0.267430E-02  0.899E-02    0.13       1.0  T
  11   -245.0613048  0.118398E-02  0.998E-02    0.13       1.0  T
  12   -245.0610517  0.253049E-03  0.885E-02    0.13       1.0  T
  13   -245.0627460 -0.169428E-02  0.291E-02    0.13       1.0  T
  14   -245.0623648  0.381204E-03  0.602E-02    0.13       1.0  T
  15   -245.0625540 -0.189186E-03  0.469E-02    0.13       1.0  T
  16   -245.0628318 -0.277818E-03  0.219E-02    0.13       1.0  T
  17   -245.0628944 -0.626230E-04  0.123E-02    0.13       1.0  T
  18   -245.0629144 -0.199721E-04  0.654E-03    0.13       1.3  T
  19   -245.0629217 -0.732489E-05  0.996E-04    0.13       8.7  T
  20   -245.0629218 -0.940806E-07  0.258E-04    0.13      33.8  T
  21   -245.0629218 -0.541982E-08  0.149E-04    0.13      58.4  T

   *** convergence criteria satisfied after 21 iterations ***

         #    Occupation            Energy/Eh            Energy/eV
      -------------------------------------------------------------
         1        2.0000           -0.6888126             -18.7435
       ...           ...                  ...                  ...
       221        2.0000           -0.3776258             -10.2757
       222        2.0000           -0.3726546             -10.1404
       223        2.0000           -0.3654405              -9.9441
       224        2.0000           -0.3612219              -9.8293
       225        2.0000           -0.3531149              -9.6087
       226        2.0000           -0.3492460              -9.5035
       227        1.8464           -0.3310630              -9.0087 (HOMO)
       228        0.1536           -0.3263384              -8.8801 (LUMO)
       229                         -0.3101002              -8.4383
       230                         -0.3025220              -8.2320
       231                         -0.3005754              -8.1791
       232                         -0.2963521              -8.0641
       ...                                ...                  ...
       494                          0.9188013              25.0019
      -------------------------------------------------------------
                  HL-Gap            0.0047246 Eh            0.1286 eV
             Fermi-level           -0.3287007 Eh           -8.9444 eV

 SCC (total)                   0 d,  0 h,  0 min,  1.487 sec
 SCC setup                      ...        0 min,  0.002 sec (  0.135%)
 Dispersion                     ...        0 min,  0.005 sec (  0.336%)
 classical contributions        ...        0 min,  0.000 sec (  0.000%)
 integral evaluation            ...        0 min,  0.044 sec (  2.959%)
 iterations                     ...        0 min,  1.243 sec ( 83.591%)
 molecular gradient             ...        0 min,  0.187 sec ( 12.576%)
 printout                       ...        0 min,  0.006 sec (  0.403%)

         :::::::::::::::::::::::::::::::::::::::::::::::::::::
         ::                     SUMMARY                     ::
         :::::::::::::::::::::::::::::::::::::::::::::::::::::
         :: total energy            -241.078179571409 Eh    ::
         :: gradient norm              0.060815327944 Eh/a0 ::
         :: HOMO-LUMO gap              0.128563317296 eV    ::
         ::.................................................::
         :: SCC energy              -245.068123250780 Eh    ::
         :: -> isotropic ES            0.005423724032 Eh    ::
         :: -> anisotropic ES          0.004527646336 Eh    ::
         :: -> anisotropic XC          0.094374498419 Eh    ::
         :: -> dispersion             -0.314301766001 Eh    ::
         :: repulsion energy           3.989943679371 Eh    ::
         :: add. restraining           0.000000000000 Eh    ::
         :: total charge              -0.000000000002 e     ::
         :::::::::::::::::::::::::::::::::::::::::::::::::::::

      ----------------------------------------------------------- 
     |                   =====================                   |
     |                        A N C O P T                        |
     |                   =====================                   |
     |               Approximate Normal Coordinate               |
     |                Rational Function Optimizer                |
      ----------------------------------------------------------- 
      ----------------------------------------------------------- 
     |                   =====================                   |
     |                        A N C O P T                        |
     |                   =====================                   |
     |               Approximate Normal Coordinate               |
     |                Rational Function Optimizer                |
      ----------------------------------------------------------- 

          ...................................................
          :                      SETUP                      :
          :.................................................:
          :   optimization level            normal          :
          :   max. optcycles                   396          :
          :   ANC micro-cycles                  20          :
          :   degrees of freedom               390          :
          :.................................................:
          :   RF solver                   davidson          :
          :   write xtbopt.log                true          :
          :   linear?                        false          :
          :   energy convergence         0.5000000E-05 Eh   :
          :   grad. convergence          0.1000000E-02 Eh/α :
          :   maxmium RF displ.          1.0000000          :
          :   Hlow (freq-cutoff)         0.1000000E-01      :
          :   Hmax (freq-cutoff)         5.0000000          :
          :   S6 in model hess.         20.0000000          :
          ...................................................

generating ANC from exact Hessian ...
Using Lindh-Hessian (1995)
 Shifting diagonal of input Hessian by   9.880559485367903E-003
 Lowest  eigenvalues of input Hessian
    0.000000    0.000000    0.000000    0.000000    0.000000    0.000000
    0.010000    0.010091    0.010183    0.010328    0.010357    0.010993
    0.011126    0.011216    0.011323    0.011472    0.012431    0.012520
 Highest eigenvalues
    2.005540    2.020549    2.025774    2.057032    2.073241    2.081860
 

........................................................................
.............................. CYCLE    1 ..............................
........................................................................

 iter      E             dE          RMSdq      gap      omega  full diag
   1   -245.0629218 -0.245063E+03  0.480E-05    0.13       0.0  T
   2   -245.0629218  0.150072E-08  0.878E-05    0.13      99.1  T
   3   -245.0629218  0.132921E-07  0.246E-04    0.13      35.4  T
     SCC iter.                  ...        0 min,  0.183 sec
     gradient                   ...        0 min,  0.163 sec
 * total energy  :  -241.0781796 Eh     change        0.1182846E-07 Eh
   gradient norm :     0.0608169 Eh/α   predicted     0.0000000E+00 (-100.00%)
   displ. norm   :     0.5902014 α      lambda       -0.2400792E-01
   maximum displ.:     0.2379610 α      in ANC's #56, #60, #52, ...

........................................................................
.............................. CYCLE    2 ..............................
........................................................................

 iter      E             dE          RMSdq      gap      omega  full diag
   1   -245.1852963 -0.245185E+03  0.252E-01    0.12       0.0  T
   2   -245.0525593  0.132737E+00  0.734E-01    0.36       1.0  T
   3   -245.1243269 -0.717676E-01  0.525E-01    0.17       1.0  T
   4   -245.1658447 -0.415178E-01  0.310E-01    0.14       1.0  T
   5   -245.1790686 -0.132238E-01  0.193E-01    0.13       1.0  T
   6   -245.1867026 -0.763408E-02  0.735E-02    0.12       1.0  T
   7   -245.1872511 -0.548499E-03  0.501E-02    0.12       1.0  T
   8   -245.1878123 -0.561205E-03  0.144E-02    0.12       1.0  T
   9   -245.1878434 -0.310064E-04  0.630E-03    0.12       1.4  T
  10   -245.1878480 -0.460522E-05  0.364E-03    0.12       2.4  T
  11   -245.1878479  0.104177E-06  0.339E-03    0.12       2.6  T
  12   -245.1878505 -0.260358E-05  0.618E-04    0.12      14.1  T
  13   -245.1878505  0.205418E-08  0.617E-04    0.12      14.1  T
  14   -245.1878505 -0.661929E-07  0.318E-04    0.12      27.4  T
     SCC iter.                  ...        0 min,  0.827 sec
     gradient                   ...        0 min,  0.167 sec
 * total energy  :  -241.0959098 Eh     change       -0.1773020E-01 Eh
   gradient norm :     0.0326559 Eh/α   predicted    -0.1618592E-01 (  -8.71%)
   displ. norm   :     0.5911026 α      lambda       -0.1245917E-01
   maximum displ.:     0.2564312 α      in ANC's #56, #36, #35, ...

........................................................................
.............................. CYCLE    3 ..............................
........................................................................

 iter      E             dE          RMSdq      gap      omega  full diag
   1   -245.3134002 -0.245313E+03  0.147E-01    0.12       0.0  T
   2   -245.2248401  0.885601E-01  0.606E-01    0.21       1.0  T
   3   -245.3059292 -0.810891E-01  0.195E-01    0.12       1.0  T
   4   -245.3090852 -0.315597E-02  0.153E-01    0.12       1.0  T
   5   -245.3127287 -0.364352E-02  0.753E-02    0.12       1.0  T
   6   -245.3140250 -0.129633E-02  0.204E-02    0.12       1.0  T
   7   -245.3140795 -0.544484E-04  0.101E-02    0.12       1.0  T
   8   -245.3140999 -0.204743E-04  0.309E-03    0.12       2.8  T
   9   -245.3141010 -0.104352E-05  0.169E-03    0.12       5.2  T
  10   -245.3141013 -0.277072E-06  0.831E-04    0.12      10.5  T
  11   -245.3141012  0.823949E-07  0.924E-04    0.12       9.4  T
     SCC iter.                  ...        0 min,  0.600 sec
     gradient                   ...        0 min,  0.140 sec
 * total energy  :  -241.1043394 Eh     change       -0.8429624E-02 Eh
   gradient norm :     0.0139395 Eh/α   predicted    -0.8406221E-02 (  -0.28%)
   displ. norm   :     0.4181728 α      lambda       -0.3502262E-02
   maximum displ.:     0.1735655 α      in ANC's #36, #35, #56, ...

........................................................................
.............................. CYCLE    4 ..............................
........................................................................

 iter      E             dE          RMSdq      gap      omega  full diag
   1   -245.3713793 -0.245371E+03  0.953E-02    0.11       0.0  T
   2   -245.3260338  0.453455E-01  0.430E-01    0.15       1.0  T
   3   -245.3686582 -0.426244E-01  0.119E-01    0.11       1.0  T
   4   -245.3713384 -0.268018E-02  0.399E-02    0.11       1.0  T
   5   -245.3713055  0.328653E-04  0.338E-02    0.11       1.0  T
   6   -245.3715629 -0.257344E-03  0.109E-02    0.11       1.0  T
   7   -245.3715812 -0.183157E-04  0.456E-03    0.11       1.9  T
   8   -245.3715821 -0.872394E-06  0.361E-03    0.11       2.4  T
   9   -245.3715850 -0.291283E-05  0.103E-03    0.11       8.5  T
  10   -245.3715852 -0.184516E-06  0.580E-04    0.11      15.0  T
  11   -245.3715852 -0.405497E-07  0.377E-04    0.11      23.1  T
     SCC iter.                  ...        0 min,  0.584 sec
     gradient                   ...        0 min,  0.144 sec
 * total energy  :  -241.1065803 Eh     change       -0.2240953E-02 Eh
   gradient norm :     0.0078434 Eh/α   predicted    -0.2057358E-02 (  -8.19%)
   displ. norm   :     0.2519072 α      lambda       -0.8194554E-03
   maximum displ.:     0.0963809 α      in ANC's #36, #24, #20, ...

........................................................................
.............................. CYCLE    5 ..............................
........................................................................

 iter      E             dE          RMSdq      gap      omega  full diag
   1   -245.3896173 -0.245390E+03  0.565E-02    0.11       0.0  T
   2   -245.3864477  0.316953E-02  0.117E-01    0.11       1.0  T
   3   -245.3806861  0.576160E-02  0.191E-01    0.12       1.0  T
   4   -245.3894822 -0.879609E-02  0.251E-02    0.11       1.0  T
   5   -245.3896012 -0.118986E-03  0.113E-02    0.11       1.0  T
   6   -245.3896311 -0.299359E-04  0.326E-03    0.11       2.7  T
   7   -245.3896320 -0.897028E-06  0.196E-03    0.11       4.4  T
   8   -245.3896322 -0.119366E-06  0.163E-03    0.11       5.3  T
   9   -245.3896327 -0.557513E-06  0.539E-04    0.11      16.1  T
  10   -245.3896328 -0.364572E-07  0.273E-04    0.11      31.9  T
     SCC iter.                  ...        0 min,  0.575 sec
     gradient                   ...        0 min,  0.126 sec
 * total energy  :  -241.1071236 Eh     change       -0.5432353E-03 Eh
   gradient norm :     0.0048062 Eh/α   predicted    -0.4360458E-03 ( -19.73%)
   displ. norm   :     0.1994679 α      lambda       -0.3353069E-03
   maximum displ.:     0.0792037 α      in ANC's #16, #20, #24, ...

........................................................................
.............................. CYCLE    6 ..............................
........................................................................

 iter      E             dE          RMSdq      gap      omega  full diag
   1   -245.3925270 -0.245393E+03  0.451E-02    0.11       0.0  T
   2   -245.3854095  0.711748E-02  0.169E-01    0.11       1.0  T
   3   -245.3893491 -0.393960E-02  0.115E-01    0.11       1.0  T
   4   -245.3924212 -0.307209E-02  0.239E-02    0.11       1.0  T
   5   -245.3925269 -0.105705E-03  0.100E-02    0.11       1.0  T
   6   -245.3925497 -0.227816E-04  0.330E-03    0.11       2.6  T
   7   -245.3925516 -0.186813E-05  0.111E-03    0.11       7.8  T
   8   -245.3925515  0.255201E-07  0.101E-03    0.11       8.6  T
   9   -245.3925517 -0.181666E-06  0.446E-04    0.11      19.5  T
  10   -245.3925518 -0.243776E-07  0.260E-04    0.11      33.5  T
     SCC iter.                  ...        0 min,  0.570 sec
     gradient                   ...        0 min,  0.129 sec
 * total energy  :  -241.1073529 Eh     change       -0.2293394E-03 Eh
   gradient norm :     0.0032107 Eh/α   predicted    -0.1743338E-03 ( -23.98%)
   displ. norm   :     0.1797116 α      lambda       -0.1812419E-03
   maximum displ.:     0.0841757 α      in ANC's #16, #20, #12, ...

........................................................................
.............................. CYCLE    7 ..............................
........................................................................

 iter      E             dE          RMSdq      gap      omega  full diag
   1   -245.3899000 -0.245390E+03  0.388E-02    0.11       0.0  T
   2   -245.3872014  0.269856E-02  0.106E-01    0.11       1.0  T
   3   -245.3876900 -0.488577E-03  0.949E-02    0.11       1.0  T
   4   -245.3898168 -0.212682E-02  0.202E-02    0.11       1.0  T
   5   -245.3899025 -0.857255E-04  0.554E-03    0.11       1.6  T
   6   -245.3899094 -0.684965E-05  0.177E-03    0.11       4.9  T
   7   -245.3899098 -0.431843E-06  0.771E-04    0.11      11.3  T
   8   -245.3899099 -0.501733E-07  0.532E-04    0.11      16.4  T
     SCC iter.                  ...        0 min,  0.420 sec
     gradient                   ...        0 min,  0.118 sec
 * total energy  :  -241.1074762 Eh     change       -0.1232844E-03 Eh
   gradient norm :     0.0030255 Eh/α   predicted    -0.9355977E-04 ( -24.11%)
   displ. norm   :     0.1506421 α      lambda       -0.1012054E-03
   maximum displ.:     0.0724820 α      in ANC's #16, #12, #5, ...

........................................................................
.............................. CYCLE    8 ..............................
........................................................................

 iter      E             dE          RMSdq      gap      omega  full diag
   1   -245.3874136 -0.245387E+03  0.316E-02    0.11       0.0  T
   2   -245.3866658  0.747845E-03  0.575E-02    0.11       1.0  T
   3   -245.3836875  0.297827E-02  0.121E-01    0.11       1.0  T
   4   -245.3873840 -0.369651E-02  0.129E-02    0.11       1.0  T
   5   -245.3874135 -0.295138E-04  0.379E-03    0.11       2.3  T
   6   -245.3874165 -0.299389E-05  0.134E-03    0.11       6.5  T
   7   -245.3874168 -0.241848E-06  0.805E-04    0.11      10.8  T
   8   -245.3874169 -0.114072E-06  0.388E-04    0.11      22.4  T
     SCC iter.                  ...        0 min,  0.440 sec
     gradient                   ...        0 min,  0.142 sec
 * total energy  :  -241.1075469 Eh     change       -0.7069646E-04 Eh
   gradient norm :     0.0024871 Eh/α   predicted    -0.5175179E-04 ( -26.80%)
   displ. norm   :     0.1374478 α      lambda       -0.6964090E-04
   maximum displ.:     0.0609168 α      in ANC's #16, #5, #12, ...

........................................................................
.............................. CYCLE    9 ..............................
........................................................................

 iter      E             dE          RMSdq      gap      omega  full diag
   1   -245.3862116 -0.245386E+03  0.285E-02    0.11       0.0  T
   2   -245.3841158  0.209586E-02  0.913E-02    0.11       1.0  T
   3   -245.3845959 -0.480126E-03  0.814E-02    0.11       1.0  T
   4   -245.3862113 -0.161546E-02  0.634E-03    0.11       1.4  T
   5   -245.3862176 -0.626116E-05  0.231E-03    0.11       3.8  T
   6   -245.3862180 -0.367903E-06  0.144E-03    0.11       6.1  T
   7   -245.3862181 -0.136188E-06  0.113E-03    0.11       7.7  T
   8   -245.3862184 -0.333937E-06  0.275E-04    0.11      31.7  T
   9   -245.3862184  0.199864E-08  0.246E-04    0.11      35.3  T
     SCC iter.                  ...        0 min,  0.493 sec
     gradient                   ...        0 min,  0.133 sec
 * total energy  :  -241.1075962 Eh     change       -0.4930982E-04 Eh
   gradient norm :     0.0019081 Eh/α   predicted    -0.3547962E-04 ( -28.05%)
   displ. norm   :     0.1880251 α      lambda       -0.4990704E-04
   maximum displ.:     0.0886556 α      in ANC's #5, #16, #13, ...

........................................................................
.............................. CYCLE   10 ..............................
........................................................................

 iter      E             dE          RMSdq      gap      omega  full diag
   1   -245.3866868 -0.245387E+03  0.386E-02    0.11       0.0  T
   2   -245.3747992  0.118875E-01  0.216E-01    0.12       1.0  T
   3   -245.3859200 -0.111208E-01  0.597E-02    0.11       1.0  T
   4   -245.3866627 -0.742728E-03  0.161E-02    0.11       1.0  T
   5   -245.3867226 -0.598534E-04  0.375E-03    0.11       2.3  T
   6   -245.3867245 -0.186606E-05  0.189E-03    0.11       4.6  T
   7   -245.3867245 -0.104908E-07  0.161E-03    0.11       5.4  T
   8   -245.3867249 -0.449598E-06  0.795E-04    0.11      11.0  T
   9   -245.3867250 -0.119050E-06  0.350E-04    0.11      24.8  T
     SCC iter.                  ...        0 min,  0.509 sec
     gradient                   ...        0 min,  0.128 sec
 * total energy  :  -241.1076387 Eh     change       -0.4254406E-04 Eh
   gradient norm :     0.0020567 Eh/α   predicted    -0.2534706E-04 ( -40.42%)
   displ. norm   :     0.0558336 α      lambda       -0.2288414E-04
   maximum displ.:     0.0306264 α      in ANC's #5, #7, #11, ...

........................................................................
.............................. CYCLE   11 ..............................
........................................................................

 iter      E             dE          RMSdq      gap      omega  full diag
   1   -245.3875867 -0.245388E+03  0.108E-02    0.11       0.0  T
   2   -245.3869451  0.641622E-03  0.506E-02    0.11       1.0  T
   3   -245.3875194 -0.574380E-03  0.173E-02    0.11       1.0  T
   4   -245.3875733 -0.538629E-04  0.804E-03    0.11       1.1  T
   5   -245.3875885 -0.151834E-04  0.132E-03    0.11       6.6  T
   6   -245.3875886 -0.150031E-06  0.814E-04    0.11      10.7  T
   7   -245.3875887 -0.917982E-07  0.385E-04    0.11      22.6  T
     SCC iter.                  ...        0 min,  0.383 sec
     gradient                   ...        0 min,  0.138 sec
 * total energy  :  -241.1076575 Eh     change       -0.1872497E-04 Eh
   gradient norm :     0.0014577 Eh/α   predicted    -0.1148089E-04 ( -38.69%)
   displ. norm   :     0.1824105 α      lambda       -0.3861426E-04
   maximum displ.:     0.1003414 α      in ANC's #5, #7, #11, ...

........................................................................
.............................. CYCLE   12 ..............................
........................................................................

 iter      E             dE          RMSdq      gap      omega  full diag
   1   -245.3891425 -0.245389E+03  0.314E-02    0.11       0.0  T
   2   -245.3885586  0.583849E-03  0.520E-02    0.11       1.0  T
   3   -245.3844961  0.406256E-02  0.135E-01    0.11       1.0  T
   4   -245.3889655 -0.446938E-02  0.282E-02    0.11       1.0  T
   5   -245.3891444 -0.178938E-03  0.375E-03    0.11       2.3  T
   6   -245.3891447 -0.298752E-06  0.301E-03    0.11       2.9  T
   7   -245.3891465 -0.181983E-05  0.106E-03    0.11       8.2  T
   8   -245.3891466 -0.115143E-06  0.656E-04    0.11      13.3  T
   9   -245.3891467 -0.950197E-07  0.193E-04    0.11      45.2  T
     SCC iter.                  ...        0 min,  0.503 sec
     gradient                   ...        0 min,  0.150 sec
 * total energy  :  -241.1076854 Eh     change       -0.2794149E-04 Eh
   gradient norm :     0.0017402 Eh/α   predicted    -0.1959372E-04 ( -29.88%)
   displ. norm   :     0.0711083 α      lambda       -0.1277709E-04
   maximum displ.:     0.0416964 α      in ANC's #5, #7, #11, ...

........................................................................
.............................. CYCLE   13 ..............................
........................................................................

 iter      E             dE          RMSdq      gap      omega  full diag
   1   -245.3883209 -0.245388E+03  0.116E-02    0.11       0.0  T
   2   -245.3883146  0.626974E-05  0.827E-03    0.11       1.1  T
   3   -245.3856978  0.261676E-02  0.101E-01    0.11       1.0  T
   4   -245.3883180 -0.262012E-02  0.402E-03    0.11       2.2  T
   5   -245.3883208 -0.283303E-05  0.149E-03    0.11       5.8  T
   6   -245.3883209 -0.128160E-06  0.102E-03    0.11       8.5  T
   7   -245.3883212 -0.228058E-06  0.239E-04    0.11      36.4  T
   8   -245.3883212 -0.965093E-08  0.122E-04    0.11      71.6  T
     SCC iter.                  ...        0 min,  0.429 sec
     gradient                   ...        0 min,  0.140 sec
 * total energy  :  -241.1077013 Eh     change       -0.1594133E-04 Eh
   gradient norm :     0.0013503 Eh/α   predicted    -0.6410718E-05 ( -59.79%)
   displ. norm   :     0.1940123 α      lambda       -0.3476753E-04
   maximum displ.:     0.1073904 α      in ANC's #5, #7, #11, ...

........................................................................
.............................. CYCLE   14 ..............................
........................................................................

 iter      E             dE          RMSdq      gap      omega  full diag
   1   -245.3867185 -0.245387E+03  0.310E-02    0.11       0.0  T
   2   -245.3833553  0.336319E-02  0.116E-01    0.11       1.0  T
   3   -245.3858986 -0.254336E-02  0.591E-02    0.11       1.0  T
   4   -245.3867006 -0.801919E-03  0.120E-02    0.11       1.0  T
   5   -245.3867278 -0.272839E-04  0.262E-03    0.11       3.3  T
   6   -245.3867279 -0.964585E-07  0.210E-03    0.11       4.1  T
   7   -245.3867289 -0.965548E-06  0.609E-04    0.11      14.3  T
   8   -245.3867290 -0.655832E-07  0.289E-04    0.11      30.1  T
     SCC iter.                  ...        0 min,  0.456 sec
     gradient                   ...        0 min,  0.137 sec
 * total energy  :  -241.1077368 Eh     change       -0.3548907E-04 Eh
   gradient norm :     0.0012641 Eh/α   predicted    -0.1767776E-04 ( -50.19%)
   displ. norm   :     0.2126135 α      lambda       -0.2142526E-04
   maximum displ.:     0.1198573 α      in ANC's #5, #7, #1, ...

........................................................................
.............................. CYCLE   15 ..............................
........................................................................

 iter      E             dE          RMSdq      gap      omega  full diag
   1   -245.3866775 -0.245387E+03  0.321E-02    0.11       0.0  T
   2   -245.3853227  0.135478E-02  0.747E-02    0.11       1.0  T
   3   -245.3836056  0.171706E-02  0.111E-01    0.11       1.0  T
   4   -245.3866676 -0.306197E-02  0.904E-03    0.11       1.0  T
   5   -245.3866814 -0.138058E-04  0.246E-03    0.11       3.5  T
   6   -245.3866820 -0.551934E-06  0.152E-03    0.11       5.7  T
   7   -245.3866823 -0.299874E-06  0.699E-04    0.11      12.4  T
   8   -245.3866824 -0.821363E-07  0.328E-04    0.11      26.6  T
     SCC iter.                  ...        0 min,  0.555 sec
     gradient                   ...        0 min,  0.211 sec
 * total energy  :  -241.1077600 Eh     change       -0.2320293E-04 Eh
   gradient norm :     0.0015419 Eh/α   predicted    -0.1092918E-04 ( -52.90%)
   displ. norm   :     0.2220913 α      lambda       -0.1906170E-04
   maximum displ.:     0.1268852 α      in ANC's #5, #7, #1, ...

........................................................................
.............................. CYCLE   16 ..............................
........................................................................

 iter      E             dE          RMSdq      gap      omega  full diag
   1   -245.3870641 -0.245387E+03  0.326E-02    0.11       0.0  T
   2   -245.3867875  0.276658E-03  0.377E-02    0.11       1.0  T
   3   -245.3764720  0.103155E-01  0.203E-01    0.12       1.0  T
   4   -245.3870508 -0.105788E-01  0.944E-03    0.11       1.0  T
   5   -245.3870651 -0.142531E-04  0.246E-03    0.11       3.5  T
   6   -245.3870656 -0.579305E-06  0.152E-03    0.11       5.7  T
   7   -245.3870659 -0.267681E-06  0.785E-04    0.11      11.1  T
   8   -245.3870660 -0.120897E-06  0.296E-04    0.11      29.4  T
     SCC iter.                  ...        0 min,  0.632 sec
     gradient                   ...        0 min,  0.209 sec
 * total energy  :  -241.1077800 Eh     change       -0.2000302E-04 Eh
   gradient norm :     0.0010773 Eh/α   predicted    -0.9742450E-05 ( -51.30%)
   displ. norm   :     0.1977858 α      lambda       -0.1587431E-04
   maximum displ.:     0.1148643 α      in ANC's #5, #1, #7, ...

........................................................................
.............................. CYCLE   17 ..............................
........................................................................

 iter      E             dE          RMSdq      gap      omega  full diag
   1   -245.3880704 -0.245388E+03  0.295E-02    0.11       0.0  T
   2   -245.3878651  0.205371E-03  0.327E-02    0.11       1.0  T
   3   -245.3783278  0.953728E-02  0.195E-01    0.12       1.0  T
   4   -245.3880645 -0.973671E-02  0.684E-03    0.11       1.3  T
   5   -245.3880713 -0.679363E-05  0.200E-03    0.11       4.3  T
   6   -245.3880714 -0.809746E-07  0.166E-03    0.11       5.3  T
   7   -245.3880718 -0.447409E-06  0.700E-04    0.11      12.4  T
   8   -245.3880719 -0.730774E-07  0.378E-04    0.11      23.0  T
     SCC iter.                  ...        0 min,  0.653 sec
     gradient                   ...        0 min,  0.202 sec
 * total energy  :  -241.1077957 Eh     change       -0.1566771E-04 Eh
   gradient norm :     0.0008112 Eh/α   predicted    -0.8077838E-05 ( -48.44%)
   displ. norm   :     0.1435199 α      lambda       -0.9972257E-05
   maximum displ.:     0.0849097 α      in ANC's #5, #1, #6, ...

........................................................................
.............................. CYCLE   18 ..............................
........................................................................

 iter      E             dE          RMSdq      gap      omega  full diag
   1   -245.3885868 -0.245389E+03  0.213E-02    0.11       0.0  T
   2   -245.3885440  0.428463E-04  0.179E-02    0.11       1.0  T
   3   -245.3808921  0.765183E-02  0.173E-01    0.12       1.0  T
   4   -245.3885830 -0.769083E-02  0.518E-03    0.11       1.7  T
   5   -245.3885865 -0.353086E-05  0.196E-03    0.11       4.4  T
   6   -245.3885870 -0.530821E-06  0.128E-03    0.11       6.8  T
   7   -245.3885873 -0.317606E-06  0.407E-04    0.11      21.4  T
   8   -245.3885874 -0.283284E-07  0.172E-04    0.11      50.6  T
     SCC iter.                  ...        0 min,  0.688 sec
     gradient                   ...        0 min,  0.207 sec
 * total energy  :  -241.1078060 Eh     change       -0.1024980E-04 Eh
   gradient norm :     0.0009305 Eh/α   predicted    -0.5034223E-05 ( -50.88%)
   displ. norm   :     0.1172541 α      lambda       -0.8981591E-05
   maximum displ.:     0.0688966 α      in ANC's #5, #1, #6, ...

........................................................................
.............................. CYCLE   19 ..............................
........................................................................

 iter      E             dE          RMSdq      gap      omega  full diag
   1   -245.3885711 -0.245389E+03  0.181E-02    0.11       0.0  T
   2   -245.3885336  0.374851E-04  0.160E-02    0.11       1.0  T
   3   -245.3831897  0.534393E-02  0.145E-01    0.11       1.0  T
   4   -245.3885674 -0.537778E-02  0.434E-03    0.11       2.0  T
   5   -245.3885704 -0.296686E-05  0.209E-03    0.11       4.2  T
   6   -245.3885713 -0.875614E-06  0.982E-04    0.11       8.9  T
   7   -245.3885714 -0.138003E-06  0.347E-04    0.11      25.1  T
     SCC iter.                  ...        0 min,  0.589 sec
     gradient                   ...        0 min,  0.207 sec
 * total energy  :  -241.1078159 Eh     change       -0.9984522E-05 Eh
   gradient norm :     0.0008620 Eh/α   predicted    -0.4523206E-05 ( -54.70%)
   displ. norm   :     0.1231177 α      lambda       -0.9440080E-05
   maximum displ.:     0.0683676 α      in ANC's #5, #1, #6, ...

........................................................................
.............................. CYCLE   20 ..............................
........................................................................

 iter      E             dE          RMSdq      gap      omega  full diag
   1   -245.3885181 -0.245389E+03  0.194E-02    0.11       0.0  T
   2   -245.3885100  0.801985E-05  0.127E-02    0.11       1.0  T
   3   -245.3818893  0.662075E-02  0.160E-01    0.12       1.0  T
   4   -245.3885136 -0.662435E-02  0.506E-03    0.11       1.7  T
   5   -245.3885174 -0.371827E-05  0.215E-03    0.11       4.0  T
   6   -245.3885182 -0.810557E-06  0.108E-03    0.11       8.1  T
   7   -245.3885184 -0.217603E-06  0.255E-04    0.11      34.1  T
   8   -245.3885184 -0.302802E-08  0.175E-04    0.11      49.7  T
     SCC iter.                  ...        0 min,  0.650 sec
     gradient                   ...        0 min,  0.222 sec
 * total energy  :  -241.1078266 Eh     change       -0.1067080E-04 Eh
   gradient norm :     0.0006197 Eh/α   predicted    -0.4753384E-05 ( -55.45%)
   displ. norm   :     0.1333131 α      lambda       -0.8763300E-05
   maximum displ.:     0.0730317 α      in ANC's #5, #1, #6, ...
 * RMSD in coord.:     0.2427534 α      energy gain  -0.2964705E-01 Eh

generating ANC from exact Hessian ...
Using Lindh-Hessian (1995)
 Shifting diagonal of input Hessian by   9.852547735890336E-003
 Lowest  eigenvalues of input Hessian
    0.000000    0.000000    0.000000    0.000000    0.000000    0.000000
    0.010000    0.010107    0.010194    0.010390    0.010433    0.011151
    0.011302    0.011410    0.011550    0.011683    0.012912    0.012960
 Highest eigenvalues
    2.093848    2.104873    2.118748    2.145603    2.172892    2.177772
 

........................................................................
.............................. CYCLE   21 ..............................
........................................................................

 iter      E             dE          RMSdq      gap      omega  full diag
   1   -245.3880857 -0.245388E+03  0.212E-02    0.11       0.0  T
   2   -245.3880818  0.386669E-05  0.130E-02    0.11       1.0  T
   3   -245.3831110  0.497083E-02  0.139E-01    0.11       1.0  T
   4   -245.3880754 -0.496443E-02  0.716E-03    0.11       1.2  T
   5   -245.3880852 -0.978720E-05  0.212E-03    0.11       4.1  T
   6   -245.3880859 -0.633984E-06  0.112E-03    0.11       7.7  T
   7   -245.3880861 -0.244988E-06  0.313E-04    0.11      27.8  T
   8   -245.3880861 -0.106832E-07  0.187E-04    0.11      46.6  T
     SCC iter.                  ...        0 min,  0.660 sec
     gradient                   ...        0 min,  0.194 sec
 * total energy  :  -241.1078357 Eh     change       -0.9043743E-05 Eh
   gradient norm :     0.0006648 Eh/α   predicted     0.0000000E+00 (-100.00%)
   displ. norm   :     0.0240223 α      lambda       -0.4244510E-05
   maximum displ.:     0.0109197 α      in ANC's #11, #7, #5, ...

........................................................................
.............................. CYCLE   22 ..............................
........................................................................

 iter      E             dE          RMSdq      gap      omega  full diag
   1   -245.3882237 -0.245388E+03  0.576E-03    0.11       0.0  T
   2   -245.3881818  0.419303E-04  0.134E-02    0.11       1.0  T
   3   -245.3881754  0.639378E-05  0.139E-02    0.11       1.0  T
   4   -245.3882225 -0.471484E-04  0.288E-03    0.11       3.0  T
   5   -245.3882234 -0.853374E-06  0.145E-03    0.11       6.0  T
   6   -245.3882238 -0.457482E-06  0.501E-04    0.11      17.4  T
   7   -245.3882239 -0.501331E-07  0.108E-04    0.11      80.4  T
     SCC iter.                  ...        0 min,  0.543 sec
     gradient                   ...        0 min,  0.204 sec
 * total energy  :  -241.1078402 Eh     change       -0.4525730E-05 Eh
   gradient norm :     0.0003607 Eh/α   predicted    -0.2126850E-05 ( -53.01%)
   displ. norm   :     0.0670428 α      lambda       -0.7543689E-05
   maximum displ.:     0.0313809 α      in ANC's #7, #11, #5, ...

   *** GEOMETRY OPTIMIZATION CONVERGED AFTER 22 ITERATIONS ***

------------------------------------------------------------------------
 total energy gain   :        -0.0296606 Eh      -18.6123 kcal/mol
 total RMSD          :         0.2429084 a0        0.1285 Å
 total power (kW/mol):        -3.5397242 (step)   -4.5728 (real)
------------------------------------------------------------------------

 ANCopt (total)                0 d,  0 h,  0 min, 17.030 sec
 optimizer setup                ...        0 min,  0.001 sec (  0.006%)
 model hessian                  ...        0 min,  0.194 sec (  1.139%)
 ANC generation                 ...        0 min,  0.057 sec (  0.335%)
 coordinate transformation      ...        0 min,  0.003 sec (  0.018%)
 single point calculation       ...        0 min, 16.732 sec ( 98.250%)
 optimization log               ...        0 min,  0.027 sec (  0.159%)
 hessian update                 ...        0 min,  0.005 sec (  0.029%)
 rational function              ...        0 min,  0.003 sec (  0.018%)

================
 final structure:
================
132
 xtb: 6.7.1pre (5071a88)
C           -3.38134127022444       -6.79641046477190       -1.31250203914978
C            0.70395543881441       -7.34777595056519       -0.02240471095517
C           -1.29624994848640       -5.90484652443384       -0.47923266287425
C            2.93405771850223       -6.50981399906230        0.60258779459633
C            0.69744811347077       -4.95323342291750        0.49459041896483
C           -2.06011591920915       -6.95292975114411       -1.04973665326043
C           -4.06304361311610       -5.59503954263189       -0.99317018911549
C            2.03294538379379       -7.52713392492026        0.15297684842824
C            0.02356595330748       -6.07451610959610        0.01466398672206
C           -1.90464117031104       -4.62928793746170       -0.36814068500219
C            7.05390338879606       -6.86487130329040        1.31714325303854
C            5.09532037646186       -5.36897944469188        0.98070982107260
C            3.13189749893022       -3.83863826708786        0.92035650678365
C            5.33540571081011       -2.87708235802385        0.80740629191516
C            7.50898654732304       -1.78987370371829        0.81556805155459
C            6.62150381066022       -7.91653692873244        0.61284471121934
C            4.29220145323147       -6.49982264396232        0.50758830609538
C            0.22519953297553       -3.63772942316860        0.32576071026928
C            6.39512333285422       -5.58438769058433        1.35745606422251
C            4.50871206425337       -4.02782841986815        0.96100316140881
C            2.50225205919519       -2.61749728699618        0.59012913055822
C            6.71871065324440       -2.88491672625711        1.08723042099309
C            4.74698173466421       -1.65359789995297        0.40418777408103
C            6.99409065573818       -0.62116585360686        0.24784837278466
C           -8.00263265074308       -6.59759893396878       -1.27685846847298
C           -5.46376935623066       -5.51039179150232       -1.03950839954382
C           -7.52357853738248       -4.34004415786897       -0.41573476880730
C           -3.29053899495029       -4.48222587870487       -0.58852206131349
C           -5.32937918541672       -3.15168702223144       -0.36648174305396
C           -7.28200282522774       -1.67553727466298        0.15040084024253
C           -1.12686083701116       -3.48379653156581       -0.05367664647386
C           -3.11069519931935       -2.05571711298124       -0.30669242036496
C           -5.11756425595898       -0.69654101206235       -0.34729223180197
C           -7.09234787694439        0.72380569297249        0.04841803440718
C           -8.37984850297780       -5.42448658027518       -0.72769745051838
C           -6.12557843001241       -4.33832780836099       -0.60240246331308
C           -3.92731556780106       -3.22533210211630       -0.42164958010418
C           -5.91477406700806       -1.86098376367356       -0.17069023188861
C           -7.83663935764935       -0.42866100155252        0.32338539738923
C            1.08456188937313       -2.49700742057261        0.42616221968104
C           -6.82341175901195        3.14847571878846        0.54372676887696
C            2.19985488548369        7.18293191297754       -0.52877723133325
C           -0.87431706259911       -1.06755257364622       -0.00787860634175
C            8.16808104669342        2.92151232771278       -0.50994926919832
C           -2.83343173132727        0.37726869296579       -0.32421596286995
C            6.14012098332583        4.36621134420317       -0.76574619391451
C            4.15495225444650        5.75798210875823       -0.58058254958476
C            3.33772046639619       -1.50718230270756        0.31283797260389
C           -4.57089139937006        4.27781758824829        0.35193959405508
C            1.36144167892618       -0.08290201929493        0.04120626416707
C           -6.27071374377744        5.66924205631076        1.58378228812663
C           -0.60063449504231        1.37178885804679       -0.11530752906117
C            8.49100508947672        5.26023945322343       -0.90459356935495
C           -2.55957934862205        2.83209009954571       -0.17727355176549
C            5.57894532904986       -0.55945883442783        0.04537621519448
C           -2.31326863997692        5.23980569970099        0.02613323720728
C            3.59127017488714        0.85240787625340       -0.32162296184936
C           -4.13349957981060        6.60742573624693        1.01843175768132
C            1.65615826860230        2.33281070102781       -0.30745323382333
C           -5.68971431682270        7.88012297139320        2.35281215466646
C           -0.31574634901395        3.81309271313380       -0.19307253004663
C            7.84682203270219        0.51450625879147        0.10579266462749
C           -0.06495932502618        6.21269349558015       -0.45025201671949
C           -2.34977684362142        7.69666924359061       -0.19776249366177
C            3.88334215588992        3.32794711891017       -0.63139815243811
C            1.91113763988625        4.77088301951656       -0.42185694068091
C           -1.70769585806648       -2.20051062144635       -0.12554261661800
C            7.46111089036201        1.69249635686288       -0.46403867887108
C           -3.68714969829374       -0.78181566786622       -0.38517842685422
C            5.26788518269626        3.26163832773771       -0.84417946171845
C           -5.76878980402639        0.54992208296695       -0.35427656640437
C            3.31649269006225        4.61928286791096       -0.52512477865443
C           -7.58949298305233        2.02878218102191        0.36794073995669
C            1.33327887458226        6.05956085212070       -0.47447028408529
C            0.52572543939459       -1.22539339781639        0.17358544033159
C           -1.43672596907000        0.22547550130528       -0.12243917318658
C            7.59195293578763        4.14564573135427       -0.75001447036765
C           -3.33002199360396        1.68469715570853       -0.40486619114863
C            5.55990984443590        5.63212013215278       -0.65182580367526
C           -5.46866503588490        3.26069112457589        0.10989545373135
C            3.54397365193863        7.03919639313288       -0.54699422035429
C            2.76238603405834       -0.24237968380258        0.03009563691077
C           -5.00403493968760        5.50551707358354        0.99655149605759
C            0.80766881250652        1.20523966042021       -0.12873854870973
C           -6.60611219381425        6.85251292743406        2.22844564727933
C           -1.15791090863387        2.67315571649041       -0.12883792167506
C            8.14713816586606        6.55439998894011       -0.93519339836098
C           -3.15152843277683        4.13451418957955        0.02615066752823
C            4.96548300930083        0.60615314158691       -0.43572509550700
C           -2.88049493191890        6.54827527257972        0.28025502623044
C            3.04342864932420        2.16509427150432       -0.47731312491853
C           -4.46345353938670        7.75680377831118        1.73633234791806
C            1.07776120395576        3.63777287562215       -0.31868642098203
C           -0.90055390549540        5.11167204473311       -0.22323967309771
H           -3.94237081433600       -7.60690147822005       -1.75920444909125
H            0.12468460117819       -8.20675689817612       -0.32424818846997
H            4.51215329196553       -8.90340104280426        0.15050094891022
H           -6.05833345039565       -7.88525783515012       -0.73134436183209
H           -1.58847464590003       -7.89421202415006       -1.28183679805142
H            2.45509155245342       -8.49582857774780       -0.09024125817892
H            7.97732460791451       -6.93132996481169        1.88228366775692
H            8.56161159707633       -1.83582163190978        1.06115691044591
H            7.17650483535448       -8.84372777312277        0.57257075377523
H           -8.73457165152048       -7.35857852069669       -1.51351513183889
H           -9.42751586186599       -5.27926680262165       -0.47847525891229
H           -9.38653897959527       -2.79965119762466       -0.27287989695397
H           -8.86088613727283       -0.34205065606368        0.66242090807810
H            1.75900307952832        8.17054751694928       -0.51892390567302
H            9.23192989086343        2.89646740504638       -0.30424034900095
H            9.53119901893907        4.99359924184922       -1.05273128835332
H            6.22013894019477        7.69460295562951       -1.77140447651438
H           -5.93613722801993        8.77152308130231        2.90943115938583
H            8.82225830033738        0.44616070232853        0.57301004518879
H           -2.89353494936090        8.62517308148860       -0.08107719374987
H           -0.93455437766169        7.64340143478004       -2.17210710157799
H           -8.62070118887925        2.07512282910902        0.70042156454073
H            4.18086696785988        7.91411484326911       -0.53790734588254
H           -7.59537519525737        6.94598193562947        2.65642281747604
H            8.90160806467608        7.31631677499745       -1.08736271052619
H           -3.74101820630153        8.55351011065426        1.82521920024580
H            6.70332514716309       -4.03058996992810        3.16870384108439
H           -7.29119310540207        3.86186841541231        2.77274952467617
P           -0.68622334222222        7.88726522399761       -0.80671864211292
P            6.52296085777587        7.17008905173199       -0.50359412963639
P            5.94542711960463        1.71227048896694       -1.42445148773146
P           -4.96202510448235        1.97757502623148       -1.05294237302950
P           -7.61842476804228        4.44978534386145        1.53618459110660
P           -8.31918081644481       -3.08576332461205        0.59163518806004
P            7.47064670951858       -4.26200622434822        2.00512923313210
P            2.13380045651544       -5.19024264839701        1.53639706546027
P            5.15769581115013       -7.80468404894934       -0.42853554867668
P           -6.31910237983263       -6.94774810887950       -1.75039595926232
 
 Bond Distances (Angstroems)
 ---------------------------
C1-C6=1.3562         C1-C7=1.4177         C1-H95=1.0822        C2-C8=1.3525         C2-C9=1.4441         C2-H96=1.0791        
C3-C6=1.4168         C3-C9=1.4194         C3-C10=1.4176        C4-C8=1.4315         C4-C17=1.3615        C4-P130=1.8038       
C5-C9=1.3935         C5-C18=1.4079        C5-P130=1.7902       C6-C1=1.3562         C6-C3=1.4168         C6-H99=1.0781        
C7-C1=1.4177         C7-C26=1.4040        C7-C28=1.4138        C8-C2=1.3525         C8-C4=1.4315         C8-H100=1.0843       
C9-C2=1.4441         C9-C3=1.4194         C9-C5=1.3935         C10-C3=1.4176        C10-C28=1.4110       C10-C31=1.4199       
C11-C16=1.3375       C11-C19=1.4406       C11-H101=1.0847      C12-C17=1.4655       C12-C19=1.3703       C12-C20=1.4640       
C13-C20=1.3903       C13-C21=1.4130       C13-P130=1.7896      C14-C20=1.4252       C14-C22=1.4113       C14-C23=1.4162       
C15-C22=1.3775       C15-C24=1.3976       C15-H102=1.0819      C16-C11=1.3375       C16-H103=1.0814      C16-P131=1.7999      
C17-C4=1.3615        C17-C12=1.4655       C17-P131=1.8243      C18-C5=1.4079        C18-C31=1.4127       C18-C40=1.4317       
C19-C11=1.4406       C19-C12=1.3703       C19-P129=1.8234      C20-C12=1.4640       C20-C13=1.3903       C20-C14=1.4252       
C21-C13=1.4130       C21-C40=1.4322       C21-C48=1.4169       C22-C14=1.4113       C22-C15=1.3775       C22-P129=1.8178      
C23-C14=1.4162       C23-C48=1.4198       C23-C55=1.4206       C24-C15=1.3976       C24-C55=1.4309       C24-C62=1.4273       
C25-C35=1.3491       C25-H104=1.0820      C25-P132=1.7836      C26-C7=1.4040        C26-C36=1.4152       C26-P132=1.8174      
C27-C35=1.4165       C27-C36=1.4104       C27-P128=1.7947      C28-C7=1.4138        C28-C10=1.4110       C28-C37=1.4188       
C29-C36=1.4483       C29-C37=1.4051       C29-C38=1.4307       C30-C38=1.4166       C30-C39=1.3756       C30-P128=1.8053      
C31-C10=1.4199       C31-C18=1.4127       C31-C67=1.4104       C32-C37=1.4311       C32-C67=1.4220       C32-C69=1.4005       
C33-C38=1.4222       C33-C69=1.4335       C33-C71=1.4063       C34-C39=1.3992       C34-C71=1.3943       C34-C73=1.4326       
C35-C25=1.3491       C35-C27=1.4165       C35-H105=1.0866      C36-C26=1.4152       C36-C27=1.4104       C36-C29=1.4483       
C37-C28=1.4188       C37-C29=1.4051       C37-C32=1.4311       C38-C29=1.4307       C38-C30=1.4166       C38-C33=1.4222       
C39-C30=1.3756       C39-C34=1.3992       C39-H107=1.0824      C40-C18=1.4317       C40-C21=1.4322       C40-C75=1.4118       
C41-C73=1.3680       C41-C80=1.4269       C41-P127=1.8195      C42-C74=1.4198       C42-C81=1.3519       C42-H108=1.0816      
C43-C67=1.4114       C43-C75=1.4206       C43-C76=1.4147       C44-C68=1.4186       C44-C77=1.3741       C44-H109=1.0838      
C45-C69=1.4408       C45-C76=1.4193       C45-C78=1.4009       C46-C70=1.4096       C46-C77=1.4686       C46-C79=1.3972       
C47-C72=1.4152       C47-C79=1.4124       C47-C81=1.4198       C48-C21=1.4169       C48-C23=1.4198       C48-C82=1.4180       
C49-C80=1.3781       C49-C83=1.4527       C49-C88=1.4633       C50-C75=1.4217       C50-C82=1.4100       C50-C84=1.4124       
C51-C83=1.4057       C51-C85=1.3886       C51-P127=1.8181      C52-C76=1.4188       C52-C84=1.4182       C52-C86=1.4157       
C53-C77=1.4403       C53-C87=1.3394       C53-H110=1.0840      C54-C78=1.4007       C54-C86=1.4115       C54-C88=1.4450       
C55-C23=1.4206       C55-C24=1.4309       C55-C89=1.4023       C56-C88=1.3872       C56-C90=1.4486       C56-C94=1.4403       
C57-C82=1.4175       C57-C89=1.4008       C57-C91=1.4309       C58-C83=1.4045       C58-C90=1.4555       C58-C92=1.3947       
C59-C84=1.4224       C59-C91=1.4077       C59-C93=1.4274       C60-C85=1.3825       C60-C92=1.3780       C60-H112=1.0794      
C61-C86=1.4187       C61-C93=1.4101       C61-C94=1.4245       C62-C24=1.4273       C62-C68=1.3642       C62-H113=1.0837      
C63-C74=1.4068       C63-C94=1.4007       C63-P123=1.8213      C64-C90=1.3524       C64-H114=1.0823      C64-P123=1.7817      
C65-C70=1.4024       C65-C72=1.4143       C65-C91=1.4427       C66-C72=1.4173       C66-C74=1.4133       C66-C93=1.4104       
C67-C31=1.4104       C67-C32=1.4220       C67-C43=1.4114       C68-C44=1.4186       C68-C62=1.3642       C68-P125=1.7945      
C69-C32=1.4005       C69-C33=1.4335       C69-C45=1.4408       C70-C46=1.4096       C70-C65=1.4024       C70-P125=1.7878      
C71-C33=1.4063       C71-C34=1.3943       C71-P126=1.7825      C72-C47=1.4152       C72-C65=1.4143       C72-C66=1.4173       
C73-C34=1.4326       C73-C41=1.3680       C73-H116=1.0845      C74-C42=1.4198       C74-C63=1.4068       C74-C66=1.4133       
C75-C40=1.4118       C75-C43=1.4206       C75-C50=1.4217       C76-C43=1.4147       C76-C45=1.4193       C76-C52=1.4188       
C77-C44=1.3741       C77-C46=1.4686       C77-C53=1.4403       C78-C45=1.4009       C78-C54=1.4007       C78-P126=1.7802      
C79-C46=1.3972       C79-C47=1.4124       C79-P124=1.8207      C80-C41=1.4269       C80-C49=1.3781       C80-P126=1.8042      
C81-C42=1.3519       C81-C47=1.4198       C81-H117=1.0822      C82-C48=1.4180       C82-C50=1.4100       C82-C57=1.4175       
C83-C49=1.4527       C83-C51=1.4057       C83-C58=1.4045       C84-C50=1.4124       C84-C52=1.4182       C84-C59=1.4224       
C85-C51=1.3886       C85-C60=1.3825       C85-H118=1.0819      C86-C52=1.4157       C86-C54=1.4115       C86-C61=1.4187       
C87-C53=1.3394       C87-H119=1.0830      C87-P124=1.7898      C88-C49=1.4633       C88-C54=1.4450       C88-C56=1.3872       
C89-C55=1.4023       C89-C57=1.4008       C89-P125=1.7780      C90-C56=1.4486       C90-C58=1.4555       C90-C64=1.3524       
C91-C57=1.4309       C91-C59=1.4077       C91-C65=1.4427       C92-C58=1.3947       C92-C60=1.3780       C92-H120=1.0791      
C93-C59=1.4274       C93-C61=1.4101       C93-C66=1.4104       C94-C56=1.4403       C94-C61=1.4245       C94-C63=1.4007       
H95-C1=1.0822        H96-C2=1.0791        H97-P131=1.3997      H98-P132=1.4090      H99-C6=1.0781        H100-C8=1.0843       
H101-C11=1.0847      H102-C15=1.0819      H103-C16=1.0814      H104-C25=1.0820      H105-C35=1.0866      H106-P128=1.4030     
H107-C39=1.0824      H108-C42=1.0816      H109-C44=1.0838      H110-C53=1.0840      H111-P124=1.4050     H112-C60=1.0794      
H113-C62=1.0837      H114-C64=1.0823      H115-P123=1.4091     H116-C73=1.0845      H117-C81=1.0822      H118-C85=1.0819      
H119-C87=1.0830      H120-C92=1.0791      H121-P129=1.4129     H122-P127=1.4078     P123-C63=1.8213      P123-C64=1.7817      
P123-H115=1.4091     P124-C79=1.8207      P124-C87=1.7898      P124-H111=1.4050     P125-C68=1.7945      P125-C70=1.7878      
P125-C89=1.7780      P126-C71=1.7825      P126-C78=1.7802      P126-C80=1.8042      P127-C41=1.8195      P127-C51=1.8181      
P127-H122=1.4078     P128-C27=1.7947      P128-C30=1.8053      P128-H106=1.4030     P129-C19=1.8234      P129-C22=1.8178      
P129-H121=1.4129     P130-C4=1.8038       P130-C5=1.7902       P130-C13=1.7896      P131-C16=1.7999      P131-C17=1.8243      
P131-H97=1.3997      P132-C25=1.7836      P132-C26=1.8174      P132-H98=1.4090      
 C  H  Rav=1.0823 sigma=0.0021  Rmin=1.0781  Rmax=1.0866    21
 C  C  Rav=1.4112 sigma=0.0257  Rmin=1.3375  Rmax=1.4686   119
 P  H  Rav=1.4066 sigma=0.0041  Rmin=1.3997  Rmax=1.4129     7
 P  C  Rav=1.8012 sigma=0.0157  Rmin=1.7780  Rmax=1.8243    23
 
 selected bond angles (degree)
 --------------------
C7-C1-C6=121.51                H95-C1-C6=119.91               H95-C1-C7=118.58               C9-C2-C8=125.21                
H96-C2-C8=117.27               H96-C2-C9=117.14               C9-C3-C6=123.57                C10-C3-C6=117.76               
C10-C3-C9=118.64               C17-C4-C8=127.68               P130-C4-C8=113.78              P130-C4-C17=118.25             
C18-C5-C9=123.26               P130-C5-C9=118.81              P130-C5-C18=117.56             C3-C6-C1=121.19                
H99-C6-C1=119.03               H99-C6-C3=119.78               C26-C7-C1=121.56               C28-C7-C1=117.95               
C28-C7-C26=120.47              C4-C8-C2=124.41                H100-C8-C2=118.16              H100-C8-C4=117.41              
C3-C9-C2=122.31                C5-C9-C2=119.37                C5-C9-C3=118.25                C28-C10-C3=120.20              
C31-C10-C3=120.54              C31-C10-C28=119.25             
 
 selected dihedral angles (degree)
 ---------------------------------
C3-C6-C1-C7=358.14            C3-C6-C1-H95=179.29           H99-C6-C1-C7=178.16           H99-C6-C1-H95=359.31          
C1-C6-C3-C9=169.46            C1-C6-C3-C10=351.17           H99-C6-C3-C9=349.44           H99-C6-C3-C10=171.15          
C26-C7-C1-C6=191.55           C26-C7-C1-H95= 10.41          C28-C7-C1-C6=  9.91           C28-C7-C1-H95=188.77          
C4-C8-C2-C9= 10.00            C4-C8-C2-H96=182.64           H100-C8-C2-C9=191.94          H100-C8-C2-H96=  4.59         
C2-C8-C4-C17=196.89           C2-C8-C4-P130= 23.25          H100-C8-C4-C17= 14.96         H100-C8-C4-P130=201.32        
C3-C9-C2-C8=164.84            C3-C9-C2-H96=352.19           C5-C9-C2-C8=347.80            C5-C9-C2-H96=175.14           
C2-C9-C3-C6=359.88            C2-C9-C3-C10=178.16           C5-C9-C3-C6=176.96            C5-C9-C3-C10=355.23           
C2-C9-C5-C18=166.92           C2-C9-C5-P130=339.71          C3-C9-C5-C18=349.76           C3-C9-C5-P130=162.55          
C28-C10-C3-C6= 11.40          C28-C10-C3-C9=193.02          C31-C10-C3-C6=192.31          C31-C10-C3-C9= 13.93          
           -------------------------------------------------
          |                Final Singlepoint                |
           -------------------------------------------------

          ...................................................
          :                      SETUP                      :
          :.................................................:
          :  # basis functions                 504          :
          :  # atomic orbitals                 494          :
          :  # shells                          246          :
          :  # electrons                       454          :
          :  max. iterations                   250          :
          :  Hamiltonian                  GFN2-xTB          :
          :  restarted?                      false          :
          :  GBSA solvation                  false          :
          :  PC potential                    false          :
          :  electronic temp.          300.0000000     K    :
          :  accuracy                    1.0000000          :
          :  -> integral cutoff          0.2500000E+02      :
          :  -> integral neglect         0.1000000E-07      :
          :  -> SCF convergence          0.1000000E-05 Eh   :
          :  -> wf. convergence          0.1000000E-03 e    :
          :  Broyden damping             0.4000000          :
          :  net charge                          0          :
          :  unpaired electrons                  0          :
          ...................................................

 iter      E             dE          RMSdq      gap      omega  full diag
   1   -245.3882239 -0.245388E+03  0.563E-05    0.11       0.0  T
   2   -245.3882237  0.184316E-06  0.847E-04    0.11      10.3  T
   3   -245.3882239 -0.184429E-06  0.512E-05    0.11     170.1  T

   *** convergence criteria satisfied after 3 iterations ***

         #    Occupation            Energy/Eh            Energy/eV
      -------------------------------------------------------------
         1        2.0000           -0.6909291             -18.8011
       ...           ...                  ...                  ...
       221        2.0000           -0.3794422             -10.3251
       222        2.0000           -0.3740265             -10.1778
       223        2.0000           -0.3662568              -9.9664
       224        2.0000           -0.3619206              -9.8484
       225        2.0000           -0.3538808              -9.6296
       226        2.0000           -0.3501139              -9.5271
       227        1.7863           -0.3315055              -9.0207 (HOMO)
       228        0.2137           -0.3274707              -8.9109 (LUMO)
       229                         -0.3115321              -8.4772
       230                         -0.3039455              -8.2708
       231                         -0.3008903              -8.1876
       232                         -0.2975374              -8.0964
       ...                                ...                  ...
       494                          0.9894084              26.9232
      -------------------------------------------------------------
                  HL-Gap            0.0040348 Eh            0.1098 eV
             Fermi-level           -0.3294881 Eh           -8.9658 eV

 SCC (total)                   0 d,  0 h,  0 min,  0.514 sec
 SCC setup                      ...        0 min,  0.002 sec (  0.389%)
 Dispersion                     ...        0 min,  0.004 sec (  0.778%)
 classical contributions        ...        0 min,  0.001 sec (  0.195%)
 integral evaluation            ...        0 min,  0.054 sec ( 10.506%)
 iterations                     ...        0 min,  0.248 sec ( 48.249%)
 molecular gradient             ...        0 min,  0.199 sec ( 38.716%)
 printout                       ...        0 min,  0.006 sec (  1.167%)

         :::::::::::::::::::::::::::::::::::::::::::::::::::::
         ::                     SUMMARY                     ::
         :::::::::::::::::::::::::::::::::::::::::::::::::::::
         :: total energy            -241.107840188169 Eh    ::
         :: gradient norm              0.000360168763 Eh/a0 ::
         :: HOMO-LUMO gap              0.109791631909 eV    ::
         ::.................................................::
         :: SCC energy              -245.393360159687 Eh    ::
         :: -> isotropic ES            0.006009264099 Eh    ::
         :: -> anisotropic ES          0.003332264369 Eh    ::
         :: -> anisotropic XC          0.087661062920 Eh    ::
         :: -> dispersion             -0.319584077596 Eh    ::
         :: repulsion energy           4.285519971518 Eh    ::
         :: add. restraining           0.000000000000 Eh    ::
         :: total charge              -0.000000000000 e     ::
         :::::::::::::::::::::::::::::::::::::::::::::::::::::

           -------------------------------------------------
          |                Property Printout                |
           -------------------------------------------------

    * Orbital Energies and Occupations

         #    Occupation            Energy/Eh            Energy/eV
      -------------------------------------------------------------
         1        2.0000           -0.6909291             -18.8011
       ...           ...                  ...                  ...
       215        2.0000           -0.3922982             -10.6750
       216        2.0000           -0.3915432             -10.6544
       217        2.0000           -0.3899556             -10.6112
       218        2.0000           -0.3886005             -10.5744
       219        2.0000           -0.3868376             -10.5264
       220        2.0000           -0.3801197             -10.3436
       221        2.0000           -0.3794422             -10.3251
       222        2.0000           -0.3740265             -10.1778
       223        2.0000           -0.3662568              -9.9664
       224        2.0000           -0.3619206              -9.8484
       225        2.0000           -0.3538808              -9.6296
       226        2.0000           -0.3501139              -9.5271
       227        1.7863           -0.3315055              -9.0207 (HOMO)
       228        0.2137           -0.3274707              -8.9109 (LUMO)
       229                         -0.3115321              -8.4772
       230                         -0.3039455              -8.2708
       231                         -0.3008903              -8.1876
       232                         -0.2975374              -8.0964
       233                         -0.2871261              -7.8131
       234                         -0.2771687              -7.5421
       235                         -0.2756068              -7.4996
       236                         -0.2687419              -7.3128
       237                         -0.2644820              -7.1969
       238                         -0.2616344              -7.1194
       ...                                ...                  ...
       494                          0.9894084              26.9232
      -------------------------------------------------------------
                  HL-Gap            0.0040348 Eh            0.1098 eV
             Fermi-level           -0.3294881 Eh           -8.9658 eV

     #   Z          covCN         q      C6AA      α(0)
     1   6 C        2.931    -0.035    28.868     8.811
     2   6 C        2.912    -0.032    28.799     8.800
     3   6 C        2.985     0.005    27.892     8.663
     4   6 C        2.988     0.006    27.879     8.661
     5   6 C        2.930     0.005    27.909     8.664
     6   6 C        2.914    -0.033    28.810     8.802
     7   6 C        3.093     0.005    27.800     8.642
     8   6 C        3.025    -0.028    28.671     8.783
     9   6 C        3.070     0.007    27.802     8.646
    10   6 C        2.994     0.000    28.015     8.682
    11   6 C        3.123    -0.025    28.445     8.734
    12   6 C        3.090     0.011    27.661     8.621
    13   6 C        2.925     0.004    27.934     8.667
    14   6 C        3.047     0.006    27.841     8.654
    15   6 C        3.029    -0.037    28.885     8.816
    16   6 C        2.840    -0.036    28.884     8.808
    17   6 C        3.023    -0.003    28.085     8.693
    18   6 C        3.086     0.003    27.848     8.651
    19   6 C        2.911     0.002    27.978     8.673
    20   6 C        3.108     0.001    27.854     8.647
    21   6 C        3.064     0.004    27.881     8.659
    22   6 C        2.915     0.002    27.971     8.673
    23   6 C        2.993    -0.000    28.024     8.684
    24   6 C        2.974     0.010    27.784     8.646
    25   6 C        2.840    -0.035    28.867     8.805
    26   6 C        2.918    -0.005    28.159     8.702
    27   6 C        2.908    -0.002    28.067     8.687
    28   6 C        2.995     0.002    27.972     8.676
    29   6 C        2.978     0.000    28.023     8.683
    30   6 C        2.917     0.005    27.907     8.663
    31   6 C        2.996     0.000    28.011     8.682
    32   6 C        2.989     0.001    27.996     8.679
    33   6 C        3.068     0.005    27.840     8.652
    34   6 C        3.107     0.012    27.609     8.609
    35   6 C        3.146    -0.022    28.275     8.699
    36   6 C        3.077     0.012    27.665     8.623
    37   6 C        2.989     0.001    28.000     8.680
    38   6 C        3.048     0.005    27.857     8.656
    39   6 C        3.054    -0.040    28.943     8.823
    40   6 C        2.978     0.002    27.965     8.674
    41   6 C        3.024     0.008    27.803     8.649
    42   6 C        2.928    -0.033    28.811     8.803
    43   6 C        2.989     0.001    27.991     8.679
    44   6 C        3.067    -0.040    28.911     8.817
    45   6 C        3.068     0.003    27.890     8.660
    46   6 C        3.121     0.009    27.640     8.610
    47   6 C        3.077     0.005    27.835     8.650
    48   6 C        2.990    -0.001    28.050     8.688
    49   6 C        3.084     0.004    27.849     8.651
    50   6 C        2.989     0.002    27.980     8.677
    51   6 C        2.920     0.004    27.934     8.667
    52   6 C        2.987    -0.001    28.050     8.688
    53   6 C        2.994    -0.028    28.693     8.787
    54   6 C        3.127     0.003    27.763     8.628
    55   6 C        3.099     0.005    27.797     8.640
    56   6 C        2.979     0.003    27.945     8.671
    57   6 C        3.089     0.003    27.862     8.652
    58   6 C        2.995     0.005    27.901     8.665
    59   6 C        2.986     0.001    27.988     8.678
    60   6 C        2.915    -0.029    28.722     8.788
    61   6 C        2.991    -0.000    28.025     8.684
    62   6 C        3.032    -0.039    28.937     8.823
    63   6 C        2.918    -0.004    28.118     8.696
    64   6 C        2.853    -0.041    29.001     8.826
    65   6 C        3.085     0.004    27.835     8.649
    66   6 C        2.993     0.002    27.978     8.677
    67   6 C        2.989     0.000    28.019     8.683
    68   6 C        2.900     0.013    27.721     8.633
    69   6 C        2.979     0.002    27.983     8.677
    70   6 C        2.930     0.001    28.009     8.679
    71   6 C        2.934     0.002    27.976     8.674
    72   6 C        2.997     0.002    27.958     8.674
    73   6 C        3.076    -0.037    28.839     8.805
    74   6 C        3.088     0.007    27.752     8.635
    75   6 C        2.988     0.000    28.011     8.682
    76   6 C        2.992     0.000    28.010     8.682
    77   6 C        2.966     0.015    27.683     8.630
    78   6 C        2.928     0.002    27.992     8.677
    79   6 C        2.921    -0.001    28.065     8.687
    80   6 C        2.957     0.007    27.866     8.658
    81   6 C        2.929    -0.032    28.801     8.801
    82   6 C        2.994     0.001    28.004     8.681
    83   6 C        3.017     0.007    27.832     8.654
    84   6 C        2.988    -0.000    28.030     8.685
    85   6 C        3.069    -0.031    28.703     8.785
    86   6 C        2.994     0.000    28.014     8.682
    87   6 C        2.839    -0.031    28.775     8.791
    88   6 C        2.982     0.000    28.016     8.682
    89   6 C        2.928     0.000    28.018     8.681
    90   6 C        3.040     0.013    27.687     8.630
    91   6 C        2.978     0.000    28.021     8.683
    92   6 C        2.926    -0.035    28.861     8.810
    93   6 C        2.988     0.001    28.001     8.680
    94   6 C        3.022     0.006    27.872     8.660
    95   1 H        0.926     0.054     2.265     2.354
    96   1 H        0.926     0.037     2.490     2.467
    97   1 H        0.977     0.054     2.265     2.352
    98   1 H        0.976     0.056     2.241     2.339
    99   1 H        0.926     0.038     2.482     2.464
   100   1 H        0.925     0.041     2.431     2.438
   101   1 H        0.925     0.045     2.389     2.417
   102   1 H        0.925     0.043     2.408     2.427
   103   1 H        0.926     0.047     2.351     2.398
   104   1 H        0.926     0.046     2.366     2.405
   105   1 H        0.925     0.039     2.463     2.454
   106   1 H        0.976     0.054     2.261     2.350
   107   1 H        0.925     0.041     2.440     2.443
   108   1 H        0.926     0.062     2.180     2.309
   109   1 H        0.925     0.037     2.494     2.470
   110   1 H        0.925     0.034     2.525     2.485
   111   1 H        0.976     0.053     2.274     2.357
   112   1 H        0.926     0.037     2.485     2.465
   113   1 H        0.925     0.038     2.476     2.461
   114   1 H        0.927     0.044     2.402     2.423
   115   1 H        0.976     0.057     2.230     2.334
   116   1 H        0.925     0.044     2.396     2.420
   117   1 H        0.926     0.058     2.227     2.334
   118   1 H        0.925     0.043     2.414     2.430
   119   1 H        0.926     0.045     2.385     2.415
   120   1 H        0.926     0.039     2.459     2.452
   121   1 H        0.976     0.046     2.364     2.403
   122   1 H        0.976     0.051     2.296     2.368
   123  15 P        3.077    -0.119   165.633    23.119
   124  15 P        3.080    -0.097   164.630    23.049
   125  15 P        3.540    -0.037   161.883    22.855
   126  15 P        3.536    -0.046   162.270    22.883
   127  15 P        3.225    -0.097   164.590    23.046
   128  15 P        3.268    -0.087   164.158    23.016
   129  15 P        3.189    -0.117   165.532    23.112
   130  15 P        3.502    -0.054   162.653    22.910
   131  15 P        3.093    -0.080   163.828    22.993
   132  15 P        3.099    -0.093   164.414    23.034

 Mol. C6AA /au·bohr⁶  :     447129.795952
 Mol. C8AA /au·bohr⁸  :   14268360.926780
 Mol. α(0) /au        :       1114.703227


Wiberg/Mayer (AO) data.
largest (>0.10) Wiberg bond orders for each atom

 ---------------------------------------------------------------------------
     #   Z sym  total        # sym  WBO       # sym  WBO       # sym  WBO
 ---------------------------------------------------------------------------
     1   6 C    3.949 --     6 C    1.605     7 C    1.226    95 H    0.936
     2   6 C    3.950 --     8 C    1.674     9 C    1.145    96 H    0.961
     3   6 C    3.941 --    10 C    1.258     6 C    1.241     9 C    1.238
     4   6 C    3.975 --    17 C    1.553     8 C    1.164   130 P    1.004
     5   6 C    3.915 --     9 C    1.358    18 C    1.269   130 P    1.042
     6   6 C    3.972 --     1 C    1.605     3 C    1.241    99 H    0.960
     7   6 C    3.973 --    26 C    1.307    28 C    1.239     1 C    1.226
     8   6 C    3.955 --     2 C    1.674     4 C    1.164   100 H    0.940
     9   6 C    3.944 --     5 C    1.358     3 C    1.238     2 C    1.145
    10   6 C    3.973 --    28 C    1.267     3 C    1.258    31 C    1.222
    11   6 C    3.988 --    16 C    1.748    19 C    1.148   101 H    0.950
[...]
    44   6 C    3.957 --    77 C    1.536    68 C    1.206   109 H    0.956
    45   6 C    3.963 --    78 C    1.313    76 C    1.242    69 C    1.178
    46   6 C    3.974 --    79 C    1.364    70 C    1.294    77 C    1.087
    47   6 C    3.975 --    79 C    1.286    72 C    1.260    81 C    1.220
    48   6 C    3.975 --    21 C    1.248    23 C    1.247    82 C    1.243
    49   6 C    3.959 --    80 C    1.468    88 C    1.122    83 C    1.116
    50   6 C    3.960 --    84 C    1.263    82 C    1.258    75 C    1.219
    51   6 C    3.974 --    85 C    1.419    83 C    1.319   127 P    1.035
    52   6 C    3.968 --    86 C    1.255    76 C    1.248    84 C    1.239
    53   6 C    3.986 --    87 C    1.735    77 C    1.151   110 H    0.959
    54   6 C    3.954 --    78 C    1.305    86 C    1.259    88 C    1.160
    55   6 C    3.970 --    89 C    1.294    23 C    1.234    24 C    1.204
    56   6 C    3.947 --    88 C    1.441    94 C    1.170    90 C    1.111
    57   6 C    3.966 --    89 C    1.294    82 C    1.233    91 C    1.207
    58   6 C    3.974 --    92 C    1.374    83 C    1.311    90 C    1.078
    59   6 C    3.971 --    91 C    1.319    84 C    1.229    93 C    1.202
    60   6 C    3.975 --    92 C    1.453    85 C    1.416   112 H    0.969
    61   6 C    3.963 --    93 C    1.282    94 C    1.230    86 C    1.220
    62   6 C    3.914 --    68 C    1.528    24 C    1.216   113 H    0.957
    63   6 C    3.913 --    94 C    1.348    74 C    1.301   123 P    1.038
    64   6 C    3.882 --    90 C    1.635   123 P    1.110   114 H    0.945
    65   6 C    3.979 --    70 C    1.321    72 C    1.248    91 C    1.172
    66   6 C    3.971 --    93 C    1.261    74 C    1.248    72 C    1.233
    67   6 C    3.951 --    43 C    1.260    31 C    1.254    32 C    1.220
    68   6 C    3.910 --    62 C    1.528    44 C    1.206   125 P    1.015
    69   6 C    3.945 --    32 C    1.335    33 C    1.197    45 C    1.178
    70   6 C    3.893 --    65 C    1.321    46 C    1.294   125 P    1.032
    71   6 C    3.945 --    34 C    1.326    33 C    1.287   126 P    1.050
    72   6 C    3.977 --    47 C    1.260    65 C    1.248    66 C    1.233
    73   6 C    3.918 --    41 C    1.568    34 C    1.164   116 H    0.956
    74   6 C    3.965 --    63 C    1.301    66 C    1.248    42 C    1.219
    75   6 C    3.964 --    40 C    1.294    43 C    1.232    50 C    1.219
    76   6 C    3.961 --    52 C    1.248    43 C    1.247    45 C    1.242
    77   6 C    3.922 --    44 C    1.536    53 C    1.151    46 C    1.087
    78   6 C    3.896 --    45 C    1.313    54 C    1.305   126 P    1.043
    79   6 C    3.922 --    46 C    1.364    47 C    1.286   124 P    1.038
    80   6 C    3.907 --    49 C    1.468    41 C    1.187   126 P    1.008
    81   6 C    3.968 --    42 C    1.625    47 C    1.220   117 H    0.935
    82   6 C    3.959 --    50 C    1.258    48 C    1.243    57 C    1.233
    83   6 C    3.983 --    51 C    1.319    58 C    1.311    49 C    1.116
    84   6 C    3.937 --    50 C    1.263    52 C    1.239    59 C    1.229
    85   6 C    3.984 --    51 C    1.419    60 C    1.416   118 H    0.960
    86   6 C    3.952 --    54 C    1.259    52 C    1.255    61 C    1.220
    87   6 C    3.915 --    53 C    1.735   124 P    1.099   119 H    0.950
    88   6 C    3.970 --    56 C    1.441    54 C    1.160    49 C    1.122
    89   6 C    3.863 --    57 C    1.294    55 C    1.294   125 P    1.055
    90   6 C    3.983 --    64 C    1.635    56 C    1.111    58 C    1.078
    91   6 C    3.906 --    59 C    1.319    57 C    1.207    65 C    1.172
    92   6 C    3.988 --    60 C    1.453    58 C    1.374   120 H    0.963
    93   6 C    3.973 --    61 C    1.282    66 C    1.261    59 C    1.202
    94   6 C    3.966 --    63 C    1.348    61 C    1.230    56 C    1.170
    95   1 H    0.996 --     1 C    0.936
    96   1 H    0.997 --     2 C    0.961
    97   1 H    0.993 --   131 P    0.922
    98   1 H    0.952 --   132 P    0.899
    99   1 H    0.997 --     6 C    0.960
   100   1 H    0.996 --     8 C    0.940
   101   1 H    0.997 --    11 C    0.950
   102   1 H    0.997 --    15 C    0.959
   103   1 H    0.996 --    16 C    0.949
   104   1 H    0.996 --    25 C    0.950
   105   1 H    0.997 --    35 C    0.949
   106   1 H    0.974 --   128 P    0.926
   107   1 H    0.997 --    39 C    0.957
   108   1 H    0.995 --    42 C    0.936
   109   1 H    0.997 --    44 C    0.956
   110   1 H    0.997 --    53 C    0.959
   111   1 H    0.973 --   124 P    0.916
   112   1 H    0.997 --    60 C    0.969
   113   1 H    0.996 --    62 C    0.957
   114   1 H    0.996 --    64 C    0.945
   115   1 H    0.972 --   123 P    0.907
   116   1 H    0.997 --    73 C    0.956
   117   1 H    0.996 --    81 C    0.935
   118   1 H    0.997 --    85 C    0.960
   119   1 H    0.997 --    87 C    0.950
   120   1 H    0.997 --    92 C    0.963
   121   1 H    0.983 --   129 P    0.932
   122   1 H    0.993 --   127 P    0.926
   123  15 P    3.348 --    64 C    1.110    63 C    1.038   115 H    0.907
   124  15 P    3.367 --    87 C    1.099    79 C    1.038   111 H    0.916
   125  15 P    3.477 --    89 C    1.055    70 C    1.032    68 C    1.015
   126  15 P    3.535 --    71 C    1.050    78 C    1.043    80 C    1.008
   127  15 P    3.271 --    51 C    1.035    41 C    1.025   122 H    0.926
   128  15 P    3.312 --    27 C    1.075    30 C    1.033   106 H    0.926
   129  15 P    3.233 --    22 C    1.034    19 C    1.032   121 H    0.932
   130  15 P    3.525 --     5 C    1.042    13 C    1.038     4 C    1.004
   131  15 P    3.342 --    16 C    1.075    17 C    1.030    97 H    0.922
   132  15 P    3.345 --    25 C    1.109    26 C    1.055    98 H    0.899
 ---------------------------------------------------------------------------

Topologies differ in total number of bonds
Writing topology from bond orders to xtbtopo.mol

molecular dipole:
                 x           y           z       tot (Debye)
 q only:       -0.284       0.148       0.044
   full:       -0.365      -0.173       0.296       1.272
molecular quadrupole (traceless):
                xx          xy          yy          xz          yz          zz
 q only:        1.144      14.450      21.702      -6.069       1.788     -22.846
  q+dip:       20.818      18.246      26.953      -6.978      -0.562     -47.770
   full:        5.775      18.086      15.349      -6.542      -2.711     -21.124

           -------------------------------------------------
          |                Geometry Summary                 |
           -------------------------------------------------

      molecular mass/u    :     1466.9691356
   center of mass at/Å    :       -0.0007585      -0.0034375      -0.0012097
  moments of inertia/u·Å² :        0.3443146E+05   0.3879924E+05   0.7096575E+05
rotational constants/cm⁻¹ :        0.4895997E-03   0.4344836E-03   0.2375460E-03

 * 151 selected distances

     #   Z          #   Z                                           value/Å
     1   6 C        6   6 C                                       1.3561640
     3   6 C        6   6 C                                       1.4168433
     1   6 C        7   6 C                                       1.4177388
     2   6 C        8   6 C                                       1.3524580
     4   6 C        8   6 C                                       1.4314656
     3   6 C        9   6 C                                       1.4193788
     5   6 C        9   6 C                                       1.3934568
     3   6 C       10   6 C                                       1.4175794
    11   6 C       16   6 C                                       1.3375376
     4   6 C       17   6 C                                       1.3614990
     5   6 C       18   6 C                                       1.4078613
    11   6 C       19   6 C                                       1.4405745
    12   6 C       19   6 C                                       1.3703381
    13   6 C       20   6 C                                       1.3903466
    14   6 C       20   6 C                                       1.4252127
    13   6 C       21   6 C                                       1.4130425
    14   6 C       22   6 C                                       1.4113454
    15   6 C       22   6 C                                       1.3774818
    14   6 C       23   6 C                                       1.4162424
    15   6 C       24   6 C                                       1.3976057
     7   6 C       26   6 C                                       1.4040461
     7   6 C       28   6 C                                       1.4138098
    10   6 C       28   6 C                                       1.4109955
    10   6 C       31   6 C                                       1.4198524
    18   6 C       31   6 C                                       1.4127051
    25   6 C       35   6 C                                       1.3490969
    27   6 C       35   6 C                                       1.4165220
    26   6 C       36   6 C                                       1.4151986
    27   6 C       36   6 C                                       1.4104086
    28   6 C       37   6 C                                       1.4188422
    29   6 C       37   6 C                                       1.4050800
    32   6 C       37   6 C                                       1.4311127
    29   6 C       38   6 C                                       1.4307120
    30   6 C       38   6 C                                       1.4166174
    33   6 C       38   6 C                                       1.4222022
    30   6 C       39   6 C                                       1.3755894
    34   6 C       39   6 C                                       1.3991986
    18   6 C       40   6 C                                       1.4317232
    21   6 C       40   6 C                                       1.4322181
    21   6 C       48   6 C                                       1.4169325
    23   6 C       48   6 C                                       1.4197887
    23   6 C       55   6 C                                       1.4205808
    24   6 C       55   6 C                                       1.4308876
    24   6 C       62   6 C                                       1.4272639
    31   6 C       67   6 C                                       1.4104457
    32   6 C       67   6 C                                       1.4220365
    43   6 C       67   6 C                                       1.4113679
    44   6 C       68   6 C                                       1.4185892
    62   6 C       68   6 C                                       1.3642367
    32   6 C       69   6 C                                       1.4004589
    33   6 C       69   6 C                                       1.4334550
    46   6 C       70   6 C                                       1.4096202
    65   6 C       70   6 C                                       1.4023667
    33   6 C       71   6 C                                       1.4063478
    34   6 C       71   6 C                                       1.3943474
    47   6 C       72   6 C                                       1.4151771
    65   6 C       72   6 C                                       1.4142704
    66   6 C       72   6 C                                       1.4172756
    34   6 C       73   6 C                                       1.4325544
    41   6 C       73   6 C                                       1.3680260
    42   6 C       74   6 C                                       1.4198120
    63   6 C       74   6 C                                       1.4068072
    66   6 C       74   6 C                                       1.4132869
    40   6 C       75   6 C                                       1.4117704
    43   6 C       75   6 C                                       1.4205500
    50   6 C       75   6 C                                       1.4217007
    43   6 C       76   6 C                                       1.4146907
    45   6 C       76   6 C                                       1.4193458
    52   6 C       76   6 C                                       1.4188497
    44   6 C       77   6 C                                       1.3740662
    45   6 C       78   6 C                                       1.4008840
    54   6 C       78   6 C                                       1.4006753
    46   6 C       79   6 C                                       1.3971930
    47   6 C       79   6 C                                       1.4123820
    41   6 C       80   6 C                                       1.4269341
    49   6 C       80   6 C                                       1.3780891
    42   6 C       81   6 C                                       1.3519051
    47   6 C       81   6 C                                       1.4198357
    48   6 C       82   6 C                                       1.4179841
    50   6 C       82   6 C                                       1.4100362
    57   6 C       82   6 C                                       1.4175031
    51   6 C       83   6 C                                       1.4057459
    58   6 C       83   6 C                                       1.4044620
    50   6 C       84   6 C                                       1.4123934
    52   6 C       84   6 C                                       1.4181811
    59   6 C       84   6 C                                       1.4224240
    51   6 C       85   6 C                                       1.3886012
    60   6 C       85   6 C                                       1.3824742
    52   6 C       86   6 C                                       1.4157317
    54   6 C       86   6 C                                       1.4114818
    61   6 C       86   6 C                                       1.4187403
    53   6 C       87   6 C                                       1.3394150
    56   6 C       88   6 C                                       1.3872091
    55   6 C       89   6 C                                       1.4023003
    57   6 C       89   6 C                                       1.4007576
    64   6 C       90   6 C                                       1.3523947
    57   6 C       91   6 C                                       1.4309143
    59   6 C       91   6 C                                       1.4076579
    58   6 C       92   6 C                                       1.3947477
    60   6 C       92   6 C                                       1.3780315
    59   6 C       93   6 C                                       1.4274439
    61   6 C       93   6 C                                       1.4100991
    66   6 C       93   6 C                                       1.4103544
    61   6 C       94   6 C                                       1.4245064
    63   6 C       94   6 C                                       1.4007146
     1   6 C       95   1 H                                       1.0822167
     2   6 C       96   1 H                                       1.0791259
     6   6 C       99   1 H                                       1.0781134 (min)
     8   6 C      100   1 H                                       1.0843118
    11   6 C      101   1 H                                       1.0846693
    15   6 C      102   1 H                                       1.0818710
    16   6 C      103   1 H                                       1.0813562
    25   6 C      104   1 H                                       1.0820495
    35   6 C      105   1 H                                       1.0866497
    39   6 C      107   1 H                                       1.0823715
    42   6 C      108   1 H                                       1.0815878
    44   6 C      109   1 H                                       1.0838441
    53   6 C      110   1 H                                       1.0839951
    60   6 C      112   1 H                                       1.0794181
    62   6 C      113   1 H                                       1.0837155
    64   6 C      114   1 H                                       1.0823160
    73   6 C      116   1 H                                       1.0844729
    81   6 C      117   1 H                                       1.0822191
    85   6 C      118   1 H                                       1.0819161
    87   6 C      119   1 H                                       1.0830040
    92   6 C      120   1 H                                       1.0791454
    64   6 C      123  15 P                                       1.7817310
   115   1 H      123  15 P                                       1.4090507
    87   6 C      124  15 P                                       1.7897775
   111   1 H      124  15 P                                       1.4050478
    68   6 C      125  15 P                                       1.7944586
    70   6 C      125  15 P                                       1.7878255
    89   6 C      125  15 P                                       1.7780232
    71   6 C      126  15 P                                       1.7824693
    78   6 C      126  15 P                                       1.7802289
    80   6 C      126  15 P                                       1.8042348
    41   6 C      127  15 P                                       1.8194575 (max)
    51   6 C      127  15 P                                       1.8181490
   122   1 H      127  15 P                                       1.4077713
    27   6 C      128  15 P                                       1.7947140
    30   6 C      128  15 P                                       1.8053155
   106   1 H      128  15 P                                       1.4030325
    22   6 C      129  15 P                                       1.8177795
   121   1 H      129  15 P                                       1.4128843
     4   6 C      130  15 P                                       1.8037962
     5   6 C      130  15 P                                       1.7901517
    13   6 C      130  15 P                                       1.7895638
    16   6 C      131  15 P                                       1.7999218
    97   1 H      131  15 P                                       1.3997099
    25   6 C      132  15 P                                       1.7835686
    98   1 H      132  15 P                                       1.4090392

 * 4 distinct bonds (by element types)

   Z      Z             #   av. dist./Å        max./Å        min./Å
   1 H    6 C          21     1.0823033     1.0866497     1.0781134
   6 C    6 C         105     1.4057830     1.4405745     1.3375376
   1 H   15 P           7     1.4066480     1.4128843     1.3997099
   6 C   15 P          18     1.7956203     1.8194575     1.7780232


optimized geometry written to: xtbopt.xyz


           -------------------------------------------------
          | TOTAL ENERGY             -241.107840188169 Eh   |
          | GRADIENT NORM               0.000360168763 Eh/α |
          | HOMO-LUMO GAP               0.109791631909 eV   |
           -------------------------------------------------

------------------------------------------------------------------------
 * finished run on 2025/12/08 at 00:31:09.054     
------------------------------------------------------------------------
 total:
 * wall-time:     0 d,  0 h,  0 min, 19.164 sec
 *  cpu-time:     0 d,  0 h,  1 min, 14.141 sec
 * ratio c/w:     3.869 speedup
 SCF:
 * wall-time:     0 d,  0 h,  0 min,  1.490 sec
 *  cpu-time:     0 d,  0 h,  0 min,  5.828 sec
 * ratio c/w:     3.911 speedup
 ANC optimizer:
 * wall-time:     0 d,  0 h,  0 min, 17.553 sec
 *  cpu-time:     0 d,  0 h,  1 min,  7.922 sec
 * ratio c/w:     3.870 speedup

normal termination of xtb
