132
 energy: -241.107840188169 gnorm: 0.000360168763 xtb: 6.7.1pre (5071a88)
C           -3.38134127022444       -6.79641046477190       -1.31250203914978
C            0.70395543881441       -7.34777595056519       -0.02240471095517
C           -1.29624994848640       -5.90484652443384       -0.47923266287425
C            2.93405771850223       -6.50981399906230        0.60258779459633
C            0.69744811347077       -4.95323342291750        0.49459041896483
C           -2.06011591920915       -6.95292975114411       -1.04973665326043
C           -4.06304361311610       -5.59503954263189       -0.99317018911549
C            2.03294538379379       -7.52713392492026        0.15297684842824
C            0.02356595330748       -6.07451610959610        0.01466398672206
C           -1.90464117031104       -4.62928793746170       -0.36814068500219
C            7.05390338879606       -6.86487130329040        1.31714325303854
C            5.09532037646186       -5.36897944469188        0.98070982107260
C            3.13189749893022       -3.83863826708786        0.92035650678365
C            5.33540571081011       -2.87708235802385        0.80740629191516
C            7.50898654732304       -1.78987370371829        0.81556805155459
C            6.62150381066022       -7.91653692873244        0.61284471121934
C            4.29220145323147       -6.49982264396232        0.50758830609538
C            0.22519953297553       -3.63772942316860        0.32576071026928
C            6.39512333285422       -5.58438769058433        1.35745606422251
C            4.50871206425337       -4.02782841986815        0.96100316140881
C            2.50225205919519       -2.61749728699618        0.59012913055822
C            6.71871065324440       -2.88491672625711        1.08723042099309
C            4.74698173466421       -1.65359789995297        0.40418777408103
C            6.99409065573818       -0.62116585360686        0.24784837278466
C           -8.00263265074308       -6.59759893396878       -1.27685846847298
C           -5.46376935623066       -5.51039179150232       -1.03950839954382
C           -7.52357853738248       -4.34004415786897       -0.41573476880730
C           -3.29053899495029       -4.48222587870487       -0.58852206131349
C           -5.32937918541672       -3.15168702223144       -0.36648174305396
C           -7.28200282522774       -1.67553727466298        0.15040084024253
C           -1.12686083701116       -3.48379653156581       -0.05367664647386
C           -3.11069519931935       -2.05571711298124       -0.30669242036496
C           -5.11756425595898       -0.69654101206235       -0.34729223180197
C           -7.09234787694439        0.72380569297249        0.04841803440718
C           -8.37984850297780       -5.42448658027518       -0.72769745051838
C           -6.12557843001241       -4.33832780836099       -0.60240246331308
C           -3.92731556780106       -3.22533210211630       -0.42164958010418
C           -5.91477406700806       -1.86098376367356       -0.17069023188861
C           -7.83663935764935       -0.42866100155252        0.32338539738923
C            1.08456188937313       -2.49700742057261        0.42616221968104
C           -6.82341175901195        3.14847571878846        0.54372676887696
C            2.19985488548369        7.18293191297754       -0.52877723133325
C           -0.87431706259911       -1.06755257364622       -0.00787860634175
C            8.16808104669342        2.92151232771278       -0.50994926919832
C           -2.83343173132727        0.37726869296579       -0.32421596286995
C            6.14012098332583        4.36621134420317       -0.76574619391451
C            4.15495225444650        5.75798210875823       -0.58058254958476
C            3.33772046639619       -1.50718230270756        0.31283797260389
C           -4.57089139937006        4.27781758824829        0.35193959405508
C            1.36144167892618       -0.08290201929493        0.04120626416707
C           -6.27071374377744        5.66924205631076        1.58378228812663
C           -0.60063449504231        1.37178885804679       -0.11530752906117
C            8.49100508947672        5.26023945322343       -0.90459356935495
C           -2.55957934862205        2.83209009954571       -0.17727355176549
C            5.57894532904986       -0.55945883442783        0.04537621519448
C           -2.31326863997692        5.23980569970099        0.02613323720728
C            3.59127017488714        0.85240787625340       -0.32162296184936
C           -4.13349957981060        6.60742573624693        1.01843175768132
C            1.65615826860230        2.33281070102781       -0.30745323382333
C           -5.68971431682270        7.88012297139320        2.35281215466646
C           -0.31574634901395        3.81309271313380       -0.19307253004663
C            7.84682203270219        0.51450625879147        0.10579266462749
C           -0.06495932502618        6.21269349558015       -0.45025201671949
C           -2.34977684362142        7.69666924359061       -0.19776249366177
C            3.88334215588992        3.32794711891017       -0.63139815243811
C            1.91113763988625        4.77088301951656       -0.42185694068091
C           -1.70769585806648       -2.20051062144635       -0.12554261661800
C            7.46111089036201        1.69249635686288       -0.46403867887108
C           -3.68714969829374       -0.78181566786622       -0.38517842685422
C            5.26788518269626        3.26163832773771       -0.84417946171845
C           -5.76878980402639        0.54992208296695       -0.35427656640437
C            3.31649269006225        4.61928286791096       -0.52512477865443
C           -7.58949298305233        2.02878218102191        0.36794073995669
C            1.33327887458226        6.05956085212070       -0.47447028408529
C            0.52572543939459       -1.22539339781639        0.17358544033159
C           -1.43672596907000        0.22547550130528       -0.12243917318658
C            7.59195293578763        4.14564573135427       -0.75001447036765
C           -3.33002199360396        1.68469715570853       -0.40486619114863
C            5.55990984443590        5.63212013215278       -0.65182580367526
C           -5.46866503588490        3.26069112457589        0.10989545373135
C            3.54397365193863        7.03919639313288       -0.54699422035429
C            2.76238603405834       -0.24237968380258        0.03009563691077
C           -5.00403493968760        5.50551707358354        0.99655149605759
C            0.80766881250652        1.20523966042021       -0.12873854870973
C           -6.60611219381425        6.85251292743406        2.22844564727933
C           -1.15791090863387        2.67315571649041       -0.12883792167506
C            8.14713816586606        6.55439998894011       -0.93519339836098
C           -3.15152843277683        4.13451418957955        0.02615066752823
C            4.96548300930083        0.60615314158691       -0.43572509550700
C           -2.88049493191890        6.54827527257972        0.28025502623044
C            3.04342864932420        2.16509427150432       -0.47731312491853
C           -4.46345353938670        7.75680377831118        1.73633234791806
C            1.07776120395576        3.63777287562215       -0.31868642098203
C           -0.90055390549540        5.11167204473311       -0.22323967309771
H           -3.94237081433600       -7.60690147822005       -1.75920444909125
H            0.12468460117819       -8.20675689817612       -0.32424818846997
H            4.51215329196553       -8.90340104280426        0.15050094891022
H           -6.05833345039565       -7.88525783515012       -0.73134436183209
H           -1.58847464590003       -7.89421202415006       -1.28183679805142
H            2.45509155245342       -8.49582857774780       -0.09024125817892
H            7.97732460791451       -6.93132996481169        1.88228366775692
H            8.56161159707633       -1.83582163190978        1.06115691044591
H            7.17650483535448       -8.84372777312277        0.57257075377523
H           -8.73457165152048       -7.35857852069669       -1.51351513183889
H           -9.42751586186599       -5.27926680262165       -0.47847525891229
H           -9.38653897959527       -2.79965119762466       -0.27287989695397
H           -8.86088613727283       -0.34205065606368        0.66242090807810
H            1.75900307952832        8.17054751694928       -0.51892390567302
H            9.23192989086343        2.89646740504638       -0.30424034900095
H            9.53119901893907        4.99359924184922       -1.05273128835332
H            6.22013894019477        7.69460295562951       -1.77140447651438
H           -5.93613722801993        8.77152308130231        2.90943115938583
H            8.82225830033738        0.44616070232853        0.57301004518879
H           -2.89353494936090        8.62517308148860       -0.08107719374987
H           -0.93455437766169        7.64340143478004       -2.17210710157799
H           -8.62070118887925        2.07512282910902        0.70042156454073
H            4.18086696785988        7.91411484326911       -0.53790734588254
H           -7.59537519525737        6.94598193562947        2.65642281747604
H            8.90160806467608        7.31631677499745       -1.08736271052619
H           -3.74101820630153        8.55351011065426        1.82521920024580
H            6.70332514716309       -4.03058996992810        3.16870384108439
H           -7.29119310540207        3.86186841541231        2.77274952467617
P           -0.68622334222222        7.88726522399761       -0.80671864211292
P            6.52296085777587        7.17008905173199       -0.50359412963639
P            5.94542711960463        1.71227048896694       -1.42445148773146
P           -4.96202510448235        1.97757502623148       -1.05294237302950
P           -7.61842476804228        4.44978534386145        1.53618459110660
P           -8.31918081644481       -3.08576332461205        0.59163518806004
P            7.47064670951858       -4.26200622434822        2.00512923313210
P            2.13380045651544       -5.19024264839701        1.53639706546027
P            5.15769581115013       -7.80468404894934       -0.42853554867668
P           -6.31910237983263       -6.94774810887950       -1.75039595926232
