132
 energy: -241.078179559580 gnorm: 0.060816917434 xtb: 6.7.1pre (5071a88)
C           -3.41594000000000       -6.88199100000000       -1.28797100000000
C            0.67512100000000       -7.41993700000000        0.02897300000000
C           -1.32529400000000       -5.95557200000000       -0.46374300000000
C            2.94784200000000       -6.60387900000000        0.62666500000000
C            0.68924500000000       -4.98290200000000        0.46692900000000
C           -2.09319400000000       -7.03100100000000       -1.00437000000000
C           -4.11034400000000       -5.65915800000000       -1.01143000000000
C            2.00567100000000       -7.63490000000000        0.23316500000000
C            0.00162900000000       -6.12112900000000        0.02065600000000
C           -1.93794600000000       -4.66455200000000       -0.38895200000000
C            7.07966500000000       -6.98443200000000        1.36029000000000
C            5.13700500000000       -5.43675700000000        0.95251800000000
C            3.17459600000000       -3.86478500000000        0.88223000000000
C            5.39261100000000       -2.89737200000000        0.75076000000000
C            7.58199900000000       -1.81610600000000        0.69843200000000
C            6.63401200000000       -8.07275400000000        0.70450500000000
C            4.30447600000000       -6.59289800000000        0.49987600000000
C            0.22225200000000       -3.66664300000000        0.27589400000000
C            6.44204700000000       -5.66889400000000        1.33808200000000
C            4.55579000000000       -4.06137700000000        0.90519800000000
C            2.53205100000000       -2.63407800000000        0.54700900000000
C            6.79052300000000       -2.92193200000000        0.98819100000000
C            4.79174800000000       -1.65981000000000        0.35990300000000
C            7.05867200000000       -0.62343600000000        0.17908200000000
C           -8.08590200000000       -6.70098800000000       -1.23780100000000
C           -5.51173200000000       -5.57489500000000       -1.07617100000000
C           -7.58424100000000       -4.41833300000000       -0.39440600000000
C           -3.33195600000000       -4.52406700000000       -0.61792100000000
C           -5.38378200000000       -3.17844900000000       -0.39505300000000
C           -7.35313900000000       -1.69235000000000        0.15362100000000
C           -1.14679100000000       -3.50611400000000       -0.09314600000000
C           -3.14134200000000       -2.07058200000000       -0.34637500000000
C           -5.16676100000000       -0.70232400000000       -0.34486400000000
C           -7.13689300000000        0.72314500000000        0.10131100000000
C           -8.45376300000000       -5.52751600000000       -0.67183200000000
C           -6.18906000000000       -4.39193000000000       -0.62481500000000
C           -3.97056300000000       -3.25348000000000       -0.45690800000000
C           -5.97525700000000       -1.87914300000000       -0.18647700000000
C           -7.89693300000000       -0.43713600000000        0.34841200000000
C            1.10152500000000       -2.51491000000000        0.37572400000000
C           -6.86814800000000        3.16673100000000        0.65183000000000
C            2.20506300000000        7.26159500000000       -0.55171800000000
C           -0.87610100000000       -1.07419800000000       -0.05332400000000
C            8.24953100000000        2.96937700000000       -0.50131700000000
C           -2.85175100000000        0.38709000000000       -0.33607500000000
C            6.18731900000000        4.43600000000000       -0.70610900000000
C            4.18922000000000        5.83884300000000       -0.55024900000000
C            3.37025300000000       -1.50879900000000        0.28363200000000
C           -4.61031100000000        4.31267400000000        0.41662200000000
C            1.37895300000000       -0.07514000000000        0.00772900000000
C           -6.31245600000000        5.73830100000000        1.66251500000000
C           -0.59604100000000        1.38604600000000       -0.14935900000000
C            8.58342700000000        5.33698800000000       -0.77224500000000
C           -2.57071800000000        2.85333700000000       -0.17301700000000
C            5.62478100000000       -0.54904200000000        0.00757500000000
C           -2.34568900000000        5.29269900000000       -0.01975400000000
C            3.63003800000000        0.87567200000000       -0.32481000000000
C           -4.19160800000000        6.69657700000000        0.97024700000000
C            1.67580100000000        2.36727700000000       -0.32424300000000
C           -5.77177100000000        8.03079300000000        2.25185500000000
C           -0.31841300000000        3.85177000000000       -0.22336300000000
C            7.93246200000000        0.52319100000000        0.03856000000000
C           -0.07865100000000        6.27117000000000       -0.50897300000000
C           -2.40480000000000        7.76366000000000       -0.30056600000000
C            3.92002200000000        3.38992500000000       -0.60878300000000
C            1.92081800000000        4.83090600000000       -0.43736600000000
C           -1.72284900000000       -2.21610000000000       -0.16912200000000
C            7.54441100000000        1.72214400000000       -0.49061900000000
C           -3.72063600000000       -0.78860000000000       -0.40030600000000
C            5.31329300000000        3.32522400000000       -0.81083500000000
C           -5.82020200000000        0.55134700000000       -0.32947900000000
C            3.34218400000000        4.68752300000000       -0.51552500000000
C           -7.63503400000000        2.03932500000000        0.46580600000000
C            1.32866900000000        6.12733200000000       -0.50481200000000
C            0.53576700000000       -1.23025900000000        0.12917200000000
C           -1.43980300000000        0.22877200000000       -0.15961900000000
C            7.66609600000000        4.20928600000000       -0.68544400000000
C           -3.34811500000000        1.70124600000000       -0.40149100000000
C            5.60531000000000        5.71400400000000       -0.58225200000000
C           -5.50721200000000        3.28731500000000        0.18584200000000
C            3.55724800000000        7.12437800000000       -0.54320800000000
C            2.78955300000000       -0.23380300000000        0.00575800000000
C           -5.04748700000000        5.57482900000000        1.03772700000000
C            0.82049000000000        1.22410100000000       -0.15528000000000
C           -6.66822800000000        6.96187400000000        2.23213700000000
C           -1.16170400000000        2.69838900000000       -0.15424300000000
C            8.25684600000000        6.64246100000000       -0.75365700000000
C           -3.17492300000000        4.17372200000000        0.03550900000000
C            5.00447100000000        0.62898400000000       -0.45421300000000
C           -2.93701000000000        6.62153000000000        0.20203700000000
C            3.07183400000000        2.20618700000000       -0.47441500000000
C           -4.54445000000000        7.89174100000000        1.62302700000000
C            1.08758000000000        3.68479200000000       -0.33815200000000
C           -0.91295700000000        5.15875000000000       -0.27171100000000
H           -3.95247700000000       -7.73134600000000       -1.69399900000000
H            0.08078000000000       -8.28983600000000       -0.22465500000000
H            4.46830600000000       -9.05867600000000        0.01196000000000
H           -6.04703700000000       -8.07223800000000       -1.01130100000000
H           -1.62460500000000       -7.98869800000000       -1.19475500000000
H            2.37652300000000       -8.64504900000000        0.07535200000000
H            8.00709300000000       -7.05554000000000        1.92721600000000
H            8.64842400000000       -1.86338200000000        0.90787600000000
H            7.18006000000000       -9.01216900000000        0.73662200000000
H           -8.82406900000000       -7.47614600000000       -1.42488300000000
H           -9.49925800000000       -5.40510100000000       -0.39130400000000
H           -9.51751500000000       -2.88034600000000       -0.26627800000000
H           -8.92211800000000       -0.33474500000000        0.69730400000000
H            1.77493400000000        8.25630200000000       -0.55368000000000
H            9.32432900000000        2.94592100000000       -0.32361100000000
H            9.63392100000000        5.06872500000000       -0.87496500000000
H            6.29260700000000        7.92637300000000       -1.57127700000000
H           -6.03235200000000        8.96029100000000        2.74896300000000
H            8.93233000000000        0.42339000000000        0.46157700000000
H           -2.96352200000000        8.68972500000000       -0.20790400000000
H           -0.95025100000000        7.71065700000000       -2.33412600000000
H           -8.66477600000000        2.06590800000000        0.81824500000000
H            4.16514500000000        8.02258900000000       -0.53987100000000
H           -7.64840600000000        7.07132300000000        2.68972100000000
H            9.03848400000000        7.39379600000000       -0.83978000000000
H           -3.83933900000000        8.71486100000000        1.64722600000000
H            7.00868000000000       -4.07687500000000        3.16051700000000
H           -7.09028100000000        3.81498000000000        2.99414800000000
P           -0.73790800000000        7.93538100000000       -0.93747300000000
P            6.60628100000000        7.24866400000000       -0.35680100000000
P            5.99418100000000        1.77410100000000       -1.40622800000000
P           -5.00673400000000        1.99775800000000       -0.98795100000000
P           -7.57281700000000        4.41605700000000        1.79273800000000
P           -8.39131000000000       -3.12110100000000        0.56619400000000
P            7.57307700000000       -4.31761900000000        1.86600300000000
P            2.15437900000000       -5.21558400000000        1.47427200000000
P            5.20810400000000       -7.92092800000000       -0.40358100000000
P           -6.42243500000000       -6.97553500000000       -1.83564000000000
132
 energy: -241.095909755033 gnorm: 0.032655884758 xtb: 6.7.1pre (5071a88)
C           -3.41461479553564       -6.85853974635291       -1.27748951379694
C            0.67995547097229       -7.39709279526288        0.03556665138086
C           -1.32026583578740       -5.94220469559035       -0.46479416732031
C            2.94406597024974       -6.57939598835301        0.61534472793103
C            0.69806527521057       -4.97198018814246        0.45266193923289
C           -2.09433760399365       -7.00946875859576       -0.99899194493988
C           -4.10313037145589       -5.64256370499041       -0.99881895053234
C            2.00522284234502       -7.60548118527625        0.23104922929420
C            0.00687721058239       -6.10797968165248        0.01678488617638
C           -1.93065703248671       -4.65601448892671       -0.38677681414055
C            7.05653425254921       -6.95910469350284        1.35638623902305
C            5.12591452099564       -5.42165426641865        0.94317548633964
C            3.16720716023679       -3.86151946621207        0.85674354326362
C            5.37802402493891       -2.89735562224583        0.74401035791922
C            7.56020603598301       -1.81239762737886        0.70690857280747
C            6.60533131301774       -8.04349355655992        0.70962634508242
C            4.30163834512201       -6.57603306774788        0.50820044535267
C            0.22574777355789       -3.65642446015217        0.27035278983814
C            6.42452729102393       -5.65187878950994        1.32743229888565
C            4.54647749190204       -4.05805059899150        0.89473795489538
C            2.52627987677849       -2.63052122075807        0.53361253459862
C            6.77059465055306       -2.91502384069386        0.99359463355502
C            4.78201170236278       -1.65977183199288        0.35971824199308
C            7.04083878179006       -0.62400389620701        0.18066975578685
C           -8.05339922444323       -6.68074087303623       -1.22683187516668
C           -5.50393478332118       -5.55943278052603       -1.05813476291980
C           -7.56923620234399       -4.39502835557159       -0.41166731142652
C           -3.32353778873616       -4.51446017615421       -0.61063168542391
C           -5.37129457896853       -3.17403955609659       -0.39500165826847
C           -7.33586666023990       -1.69167427770994        0.13535768541669
C           -1.14048645172684       -3.50079292032665       -0.09604825134341
C           -3.13512328113339       -2.06929128258157       -0.34054446099771
C           -5.15307035827827       -0.70559298662579       -0.34087925179095
C           -7.12331741078863        0.72087617478404        0.10417663263652
C           -8.42611882024476       -5.50715296419410       -0.67140491364760
C           -6.17476285170565       -4.37688382552464       -0.62313269702112
C           -3.96148013687224       -3.24763070453147       -0.45502919102043
C           -5.95927248809368       -1.87855519350692       -0.18885107718172
C           -7.87903146922938       -0.43990097178703        0.34225084116758
C            1.09968987565565       -2.50959206990368        0.36646615873240
C           -6.83839359591223        3.14809488911171        0.67134201396339
C            2.20001934273329        7.23660737819939       -0.55283708730473
C           -0.87537410325458       -1.07300430699445       -0.05563782904192
C            8.22316950383533        2.96444072025837       -0.49906944482128
C           -2.84844643971531        0.38165164532445       -0.33070030495329
C            6.17714040936435        4.42784017405731       -0.70477615250948
C            4.17978709419968        5.82157781812480       -0.55355409898801
C            3.36406910185294       -1.50740099039993        0.27712452959346
C           -4.59450420945619        4.30519203672918        0.41159880309275
C            1.37453666055466       -0.07538913608077        0.00537182381735
C           -6.28690586803154        5.71694408869252        1.65935257338118
C           -0.59881343985639        1.38401958364538       -0.14837985404910
C            8.55235268450414        5.32495902032033       -0.76928511831394
C           -2.56916294932806        2.85027925591013       -0.16849941511022
C            5.61371985528332       -0.55155303065476        0.01175568795356
C           -2.33917391119575        5.27818505074061       -0.00878559822894
C            3.61883836903744        0.87663589486789       -0.31966055977963
C           -4.18260596368525        6.67990074088347        0.96022437824717
C            1.67024520338299        2.36272627766535       -0.31935419336529
C           -5.76131307223759        8.00395880601126        2.23815032255410
C           -0.31997442390455        3.84427851213899       -0.22274693372039
C            7.90787230500389        0.51884158430275        0.04081760393594
C           -0.07864141336879        6.25084067829318       -0.51491105655135
C           -2.39549131944108        7.73581529417887       -0.30671654057398
C            3.90971237205034        3.38093600410242       -0.60361777376232
C            1.91726006139045        4.81822242589662       -0.43509727066918
C           -1.71961599199554       -2.21256663422022       -0.16996752380461
C            7.51914035764971        1.72174001296614       -0.47764451915492
C           -3.71323518767054       -0.78909904080978       -0.39441911565873
C            5.30287493366264        3.32024035977699       -0.79808247898644
C           -5.80307555222720        0.54807626159801       -0.31356203026969
C            3.33460854720410        4.67555257094582       -0.51222177912712
C           -7.60927765024501        2.02976123701368        0.47715032981207
C            1.32684938283662        6.10845291537994       -0.50831368027002
C            0.53444469832091       -1.22907720578370        0.12161315785090
C           -1.43954125399695        0.22795704108558       -0.15692108956070
C            7.64335270210813        4.20042426366315       -0.68304063029874
C           -3.34469434129645        1.69570212241901       -0.38502431104749
C            5.59323563771211        5.69931640949535       -0.59192834975841
C           -5.48853036524610        3.27613076200497        0.19970069739162
C            3.54988317791022        7.10075067759064       -0.54269710552202
C            2.78335338305496       -0.23285044661995        0.00655883432322
C           -5.03016265518740        5.55769975762263        1.03035265242316
C            0.81666812046660        1.22172209616401       -0.15733046888949
C           -6.64842396619525        6.93787724597620        2.22115774245718
C           -1.16189812631162        2.69421939306545       -0.15164888701455
C            8.21927762893388        6.62484499693846       -0.76148911624615
C           -3.16852609452547        4.16421232209513        0.04058321241465
C            4.99495786123282        0.63076733044657       -0.43760459659320
C           -2.92484073387808        6.60028170565828        0.20891786368275
C            3.06515247921322        2.20233461707849       -0.46723488393099
C           -4.53949102476453        7.86905923529812        1.61094618708174
C            1.08357949569009        3.67585316647734       -0.33779923043303
C           -0.91526223269759        5.14628055695302       -0.27033363809650
H           -3.95915760470612       -7.69809037218230       -1.69201129577486
H            0.08709568962152       -8.26562703268267       -0.21714037912948
H            4.48467841806205       -9.01651481353781        0.05001283860290
H           -6.06535012521541       -8.02525344519871       -0.98417186648345
H           -1.62934278666905       -7.96526635884568       -1.19234571038826
H            2.38317826245618       -8.61149121661514        0.07252507882143
H            7.97936510243022       -7.02841858123905        1.92712460326213
H            8.62486457359240       -1.86805776249273        0.90857017743758
H            7.14943132378743       -8.98160221289687        0.73025918667077
H           -8.78810233456914       -7.45480097783295       -1.42377726689991
H           -9.46841425891608       -5.38654403569972       -0.38213441618489
H           -9.46742348908109       -2.86701161613402       -0.27693032860155
H           -8.90289309161741       -0.34531373964274        0.68858989405732
H            1.76461227843040        8.22853933702854       -0.55849608618555
H            9.29501373149134        2.93861114695307       -0.32045970274160
H            9.60167939874608        5.06271309780205       -0.87846416719388
H            6.31057140915091        7.87060033334475       -1.57058129753654
H           -6.02506472153364        8.93064719318082        2.73265272587717
H            8.90403592296143        0.41984449973180        0.46375355154124
H           -2.94525347400198        8.66614452826118       -0.21549092140119
H           -0.95724201302297        7.67601617870027       -2.28711284121338
H           -8.63948553029170        2.06501113535726        0.82050196138450
H            4.16600552532379        7.99266481536716       -0.53502712959243
H           -7.62766554110156        7.04628349741417        2.67438688736441
H            8.99637482857576        7.37985420712546       -0.83905668978556
H           -3.84093939892735        8.69370298099657        1.64120121836033
H            6.97747640758111       -4.07432080401546        3.10420420852050
H           -7.06528780890814        3.83244421402738        2.94864185627026
P           -0.71954471611144        7.92379070398205       -0.90623958220084
P            6.57959244163059        7.22704567040448       -0.33641431241499
P            5.97657748106161        1.77197752857266       -1.39774870209556
P           -4.99823545356474        1.99463252891904       -0.98086269587938
P           -7.57446367315663        4.42174250595918        1.76067802308941
P           -8.36681356787949       -3.11691788354626        0.57527807973637
P            7.57781146992075       -4.31992762348069        1.83453341414286
P            2.15228359750790       -5.20175930042130        1.47620758693605
P            5.19753103080349       -7.88842906460893       -0.41028473923191
P           -6.39804950786694       -6.94887847285218       -1.84300833308144
132
 energy: -241.104339378838 gnorm: 0.013939517455 xtb: 6.7.1pre (5071a88)
C           -3.40898766121193       -6.83394037055966       -1.27083593402538
C            0.68139617358381       -7.37464785875157        0.03825389462847
C           -1.31449109186542       -5.92719829999760       -0.46544541795251
C            2.93554923841666       -6.55067942833326        0.60525565920665
C            0.70245627076220       -4.95971946534786        0.44587077472972
C           -2.09042373023189       -6.98831157326226       -0.99591530805464
C           -4.08939772105504       -5.62167712221813       -0.99085779989220
C            2.00481031237964       -7.57508279818568        0.22561616413831
C            0.01108525627622       -6.09301290006873        0.01592998824207
C           -1.92019158740567       -4.64474538590716       -0.38465689519984
C            7.03581490197977       -6.92937151262747        1.34799561791232
C            5.11108328227473       -5.40158844154299        0.92930240089863
C            3.15732164488481       -3.85215710927951        0.83859668105126
C            5.36198444818193       -2.89448707523063        0.72993057493915
C            7.53902568436196       -1.80822324732357        0.70604855238608
C            6.58787315137647       -8.00890579974219        0.69826212212059
C            4.29253275145990       -6.54999924419617        0.50684553262155
C            0.22930118361456       -3.64470258905946        0.26523134910275
C            6.40811737437458       -5.62916392530930        1.30576507495668
C            4.53463181974034       -4.04996767010948        0.88198028962331
C            2.51917652526744       -2.62432947310274        0.52109532379643
C            6.75072610406373       -2.90841657794354        0.98014273807100
C            4.76939953455111       -1.65726692903666        0.35622329494826
C            7.02021884016504       -0.62069779267861        0.18393062771446
C           -8.02592534950954       -6.64889743005428       -1.23598691948448
C           -5.48929123305915       -5.53600441014622       -1.05226614446641
C           -7.54836381994433       -4.37316376980967       -0.41862059439829
C           -3.31085672445012       -4.50130964451931       -0.60200728260681
C           -5.35353836065435       -3.16667098604223       -0.39020563549980
C           -7.31020580585228       -1.68764914281246        0.13280807914127
C           -1.13238248565447       -3.49304834685036       -0.09854334182231
C           -3.12468564572261       -2.06520053914696       -0.33565734763592
C           -5.13544136212301       -0.70629552685648       -0.33731089272223
C           -7.10600857690995        0.71885577597117        0.10865692381980
C           -8.39888201917930       -5.48033639346124       -0.67604860157498
C           -6.15343582452126       -4.35911717752307       -0.61979261326106
C           -3.94715539471949       -3.23857618033446       -0.44889183523401
C           -5.93780784019183       -1.87477375028768       -0.18494919323476
C           -7.85674450628007       -0.44100040134745        0.34298269931060
C            1.09724874056848       -2.50327112178502        0.35763360519066
C           -6.81525195575605        3.13590325867726        0.66535855602039
C            2.19424773109141        7.21069013214832       -0.55503995279915
C           -0.87318054068493       -1.07110590457411       -0.05667071615825
C            8.19562621606615        2.95500607622216       -0.49495618575371
C           -2.84179908365363        0.37665609424256       -0.32557734203901
C            6.16230910217104        4.41368294119908       -0.69727130908893
C            4.16561887622938        5.79952257225343       -0.55074036667582
C            3.35568559825336       -1.50492920439254        0.26829211815256
C           -4.57555532512363        4.29126259911356        0.40852101139505
C            1.36921812177827       -0.07654139766106        0.00297666675593
C           -6.26715823505283        5.69843650058015        1.63613726572294
C           -0.60031165720902        1.38011318794152       -0.14475272867239
C            8.52156114903219        5.30789372634682       -0.76226222215320
C           -2.56486458005266        2.84385935256201       -0.16439738409934
C            5.59933888682525       -0.55180579710309        0.01497875514004
C           -2.33050975811874        5.26140057982112        0.00142556097848
C            3.60503320595986        0.87561368399780       -0.31610466029849
C           -4.16864233073376        6.65863278537925        0.95451511040431
C            1.66270529999539        2.35463885026557       -0.31553516585830
C           -5.74681098258097        7.97570026522098        2.22642925310600
C           -0.32033700142869        3.83310751208267       -0.21903382873872
C            7.88256460388900        0.51457768835472        0.04416450799542
C           -0.07720136711356        6.23036395974636       -0.50427248757930
C           -2.38239518752406        7.70882150276299       -0.29868823129859
C            3.89618513871946        3.36652084533215       -0.59922314264611
C            1.91177314548363        4.80097733192213       -0.43374479246240
C           -1.71380578852924       -2.20700101214307       -0.17025556646844
C            7.49327963439748        1.71798339720920       -0.46955071735840
C           -3.70203124651975       -0.78711293705491       -0.38946383634029
C            5.28779282968415        3.30932053484800       -0.78983926489545
C           -5.78377774424092        0.54502549266068       -0.30213758736377
C            3.32362737526026        4.65801075051472       -0.50947310717364
C           -7.58674033388851        2.02175488061887        0.47569615974066
C            1.32549481635976        6.08703246395035       -0.50685547410844
C            0.53297904884352       -1.22721295244600        0.11624778850126
C           -1.43720688387204        0.22686104089642       -0.15314376573496
C            7.61713805276445        4.18778126890604       -0.67667656769536
C           -3.33704256866468        1.68900808367638       -0.37412219227208
C            5.57609031367213        5.67860229937124       -0.58591882730963
C           -5.47066000333748        3.26261149508232        0.20396700598491
C            3.54143161174306        7.07511423284301       -0.54223640502395
C            2.77493726404650       -0.23255724127239        0.00551954112864
C           -5.01252401275045        5.53779421590520        1.01796970679006
C            0.81253779643378        1.21739986275443       -0.15704714616606
C           -6.62969431905098        6.91257559645813        2.20425901038089
C           -1.16010855373472        2.68682764852506       -0.14637006241632
C            8.18470988819220        6.60390505727976       -0.74867368229690
C           -3.16056035522604        4.15027320759256        0.04312592121714
C            4.98157912701628        0.63095764089055       -0.42585729606244
C           -2.91053848900109        6.57634105998958        0.21907978096948
C            3.05595434956347        2.19457721231455       -0.46209140709480
C           -4.52751994088635        7.84426669327193        1.60044462456753
C            1.07887729394278        3.66247596113108       -0.33576469299234
C           -0.91422412860156        5.13159990755461       -0.25951957810859
H           -3.96472313519087       -7.66327303843422       -1.68988522557518
H            0.08744779579525       -8.24200273989425       -0.20989587550074
H            4.47903594100485       -8.97803957080677        0.08681179628110
H           -6.06467645821309       -7.98205104696604       -0.95008806309391
H           -1.62763405671417       -7.94291564774961       -1.19043562715654
H            2.39514151677780       -8.57436361450821        0.06049902522375
H            7.94579648984577       -6.99641796454200        1.93694712556782
H            8.60004788846781       -1.86926954439127        0.91281215527813
H            7.11692212483134       -8.95253708167256        0.72515559746871
H           -8.75108261017371       -7.43236490349202       -1.42035245092256
H           -9.43500738921303       -5.36323081422409       -0.36636413461951
H           -9.42773357416226       -2.84511370237075       -0.28324499087513
H           -8.88223078821625       -0.35626632685835        0.68062562045210
H            1.75451844479697        8.20009256591389       -0.56269340440334
H            9.26431185771031        2.92738803961781       -0.31117662957165
H            9.56772110155090        5.04921274069156       -0.89193911502079
H            6.30172302166584        7.83044329970122       -1.57593964989969
H           -6.01415986907569        8.90043853784796        2.71717772627548
H            8.87430936274997        0.41762500482441        0.47128463386536
H           -2.93028428339909        8.64050661188959       -0.22078368672280
H           -0.94921129599782        7.65458211034405       -2.26066180611772
H           -8.61320555376791        2.06253419560612        0.82406254145042
H            4.16763702031424        7.95930104974788       -0.53058889001786