      -----------------------------------------------------------      
     |                   =====================                   |     
     |                           x T B                           |     
     |                   =====================                   |     
     |                         S. Grimme                         |     
     |          Mulliken Center for Theoretical Chemistry        |     
     |                    University of Bonn                     |     
      -----------------------------------------------------------      

   * xtb version 6.7.1pre (5071a88) compiled by 'Marcel@Raven' on 2024-07-23

   xtb is free software: you can redistribute it and/or modify it under
   the terms of the GNU Lesser General Public License as published by
   the Free Software Foundation, either version 3 of the License, or
   (at your option) any later version.
   
   xtb is distributed in the hope that it will be useful,
   but WITHOUT ANY WARRANTY; without even the implied warranty of
   MERCHANTABILITY or FITNESS FOR A PARTICULAR PURPOSE.  See the
   GNU Lesser General Public License for more details.
   
   Cite this work as:
   * C. Bannwarth, E. Caldeweyher, S. Ehlert, A. Hansen, P. Pracht,
     J. Seibert, S. Spicher, S. Grimme, WIREs Comput. Mol. Sci., 2020, 11,
     e01493. DOI: 10.1002/wcms.1493
   
   for GFN2-xTB:
   * C. Bannwarth, S. Ehlert and S. Grimme., J. Chem. Theory Comput., 2019,
     15, 1652-1671. DOI: 10.1021/acs.jctc.8b01176
   for GFN1-xTB:
   * S. Grimme, C. Bannwarth, P. Shushkov, J. Chem. Theory Comput., 2017,
     13, 1989-2009. DOI: 10.1021/acs.jctc.7b00118
   for GFN0-xTB:
   * P. Pracht, E. Caldeweyher, S. Ehlert, S. Grimme, ChemRxiv, 2019, preprint.
     DOI: 10.26434/chemrxiv.8326202.v1
   for GFN-FF:
   * S. Spicher and S. Grimme, Angew. Chem. Int. Ed., 2020, 59, 15665-15673.
     DOI: 10.1002/anie.202004239
   
   for ALPB and GBSA implicit solvation:
   * S. Ehlert, M. Stahn, S. Spicher, S. Grimme, J. Chem. Theory Comput.,
     2021, 17, 4250-4261. DOI: 10.1021/acs.jctc.1c00471
   
   for ddCOSMO and CPCM-X implicit solvation:
   * M. Stahn, S. Ehlert, S. Grimme, J. Phys. Chem. A,
     2023, XX, XXXX-XXXX. DOI: 10.1021/acs.jpca.3c04382
   
   for DFT-D4:
   * E. Caldeweyher, C. Bannwarth and S. Grimme, J. Chem. Phys., 2017,
     147, 034112. DOI: 10.1063/1.4993215
   * E. Caldeweyher, S. Ehlert, A. Hansen, H. Neugebauer, S. Spicher,
     C. Bannwarth and S. Grimme, J. Chem. Phys., 2019, 150, 154122.
     DOI: 10.1063/1.5090222
   * E. Caldeweyher, J.-M. Mewes, S. Ehlert and S. Grimme, Phys. Chem. Chem. Phys.
     2020, 22, 8499-8512. DOI: 10.1039/D0CP00502A
   
   for sTDA-xTB:
   * S. Grimme and C. Bannwarth, J. Chem. Phys., 2016, 145, 054103.
     DOI: 10.1063/1.4959605
   
   in the mass-spec context:
   * V. Asgeirsson, C. Bauer and S. Grimme, Chem. Sci., 2017, 8, 4879.
     DOI: 10.1039/c7sc00601b
   * J. Koopman and S. Grimme, ACS Omega 2019, 4, 12, 15120-15133.
     DOI: 10.1021/acsomega.9b02011
   
   for metadynamics refer to:
   * S. Grimme, J. Chem. Theory Comput., 2019, 155, 2847-2862
     DOI: 10.1021/acs.jctc.9b00143
   
   for SPH calculations refer to:
   * S. Spicher and S. Grimme, J. Chem. Theory Comput., 2021, 17, 1701-1714
     DOI: 10.1021/acs.jctc.0c01306
   
   for ONIOM refer to:
   * C. Plett, A. Katbashev, S. Ehlert, S. Grimme, M. Bursch,
     Phys. Chem. Chem. Phys., 2023, 25, 17860-17868. DOI: 10.1039/D3CP02178E
   
   for DIPRO refer to:
   * J. Kohn, N. Gildemeister, S. Grimme, D. Fazzi, A. Hansen,
     J. Chem. Phys., 2023, just accepted.
   
   for PTB refer to:
   * S. Grimme, M. Mueller, A. Hansen, J. Chem. Phys., 2023, 158, 124111.
     DOI: 10.1063/5.0137838
   
   with help from (in alphabetical order)
   P. Atkinson, C. Bannwarth, F. Bohle, G. Brandenburg, E. Caldeweyher
   M. Checinski, S. Dohm, S. Ehlert, S. Ehrlich, I. Gerasimov, C. Hölzer
   A. Katbashev, J. Kohn, J. Koopman, C. Lavigne, S. Lehtola, F. März, M. Müller,
   F. Musil, H. Neugebauer, J. Pisarek, C. Plett, P. Pracht, F. Pultar,
   J. Seibert, P. Shushkov, S. Spicher, M. Stahn, M. Steiner, T. Strunk,
   J. Stückrath, T. Rose, and J. Unsleber
   
 * started run on 2025/12/08 at 00:34:44.256     
   ID    Z sym.   atoms
    1    6 C      1-49
    2    1 H      50-65, 68, 70, 73
    3    5 B      66, 67, 69, 71, 72

           -------------------------------------------------
          |                Calculation Setup                |
           -------------------------------------------------

          program call               : xtb "C:\Users\LENOVO GAMING\Documents\GitHub\molecular-conductivity-sim\dataset\1nm-5Bdoped-7percent.xyz" --opt --parallel 4
          coordinate file            : C:\Users\LENOVO GAMING\Documents\GitHub\molecular-conductivity-sim\dataset\1nm-5Bdoped-7percent.xyz
          omp threads                :                     4


           -------------------------------------------------
          |                 G F N 2 - x T B                 |
           -------------------------------------------------

        Reference                      10.1021/acs.jctc.8b01176
      * Hamiltonian:
        H0-scaling (s, p, d)           1.850000    2.230000    2.230000
        zeta-weighting                 0.500000
      * Dispersion:
        s8                             2.700000
        a1                             0.520000
        a2                             5.000000
        s9                             5.000000
      * Repulsion:
        kExp                           1.500000    1.000000
        rExp                           1.000000
      * Coulomb:
        alpha                          2.000000
        third order                    shell-resolved
        anisotropic                    true
        a3                             3.000000
        a5                             4.000000
        cn-shift                       1.200000
        cn-exp                         4.000000
        max-rad                        5.000000


          ...................................................
          :                      SETUP                      :
          :.................................................:
          :  # basis functions                 235          :
          :  # atomic orbitals                 235          :
          :  # shells                          127          :
          :  # electrons                       230          :
          :  max. iterations                   250          :
          :  Hamiltonian                  GFN2-xTB          :
          :  restarted?                      false          :
          :  GBSA solvation                  false          :
          :  PC potential                    false          :
          :  electronic temp.          300.0000000     K    :
          :  accuracy                    1.0000000          :
          :  -> integral cutoff          0.2500000E+02      :
          :  -> integral neglect         0.1000000E-07      :
          :  -> SCF convergence          0.1000000E-05 Eh   :
          :  -> wf. convergence          0.1000000E-03 e    :
          :  Broyden damping             0.4000000          :
          :  net charge                          0          :
          :  unpaired electrons                  0          :
          ...................................................

 iter      E             dE          RMSdq      gap      omega  full diag
   1   -122.3569805 -0.122357E+03  0.754E+00    0.57       0.0  T
   2   -118.9986587  0.335832E+01  0.659E+00    0.03       1.0  T
   3   -108.5847590  0.104139E+02  0.694E+00    0.19       1.0  T
   4   -112.8227675 -0.423801E+01  0.593E+00    0.03       1.0  T
   5   -119.4897299 -0.666696E+01  0.477E+00    0.28       1.0  T
   6   -122.6308847 -0.314115E+01  0.303E+00    0.76       1.0  T
   7   -122.8971130 -0.266228E+00  0.245E+00    0.43       1.0  T
   8   -122.8835369  0.135760E-01  0.225E+00    0.60       1.0  T
   9   -122.9369457 -0.534087E-01  0.194E+00    0.44       1.0  T
  10   -122.9817469 -0.448012E-01  0.954E-01    0.27       1.0  T
  11   -123.0085725 -0.268256E-01  0.626E-01    0.25       1.0  T
  12   -123.0145623 -0.598988E-02  0.533E-01    0.23       1.0  T
  13   -123.0181992 -0.363683E-02  0.381E-01    0.18       1.0  T
  14   -123.0220421 -0.384297E-02  0.318E-01    0.21       1.0  T
  15   -123.0275161 -0.547397E-02  0.180E-01    0.20       1.0  T
  16   -123.0268099  0.706178E-03  0.176E-01    0.19       1.0  T
  17   -123.0287972 -0.198723E-02  0.935E-02    0.19       1.0  T
  18   -123.0293423 -0.545142E-03  0.370E-02    0.19       1.0  T
  19   -123.0293838 -0.414914E-04  0.201E-02    0.19       1.0  T
  20   -123.0293119  0.718724E-04  0.366E-02    0.18       1.0  T
  21   -123.0293772 -0.652853E-04  0.252E-02    0.18       1.0  T
  22   -123.0294209 -0.437132E-04  0.971E-03    0.18       1.2  T
  23   -123.0294289 -0.793705E-05  0.175E-03    0.18       6.7  T
  24   -123.0294290 -0.933563E-07  0.135E-03    0.18       8.7  T
  25   -123.0294290 -0.559739E-07  0.114E-03    0.18      10.3  T
  26   -123.0294291 -0.107934E-06  0.426E-04    0.18      27.5  T
  27   -123.0294291 -0.126326E-07  0.112E-04    0.18     104.7  T

   *** convergence criteria satisfied after 27 iterations ***

         #    Occupation            Energy/Eh            Energy/eV
      -------------------------------------------------------------
         1        2.0000           -0.6666990             -18.1418
       ...           ...                  ...                  ...
       109        2.0000           -0.3765354             -10.2460
       110        2.0000           -0.3730863             -10.1522
       111        2.0000           -0.3664578              -9.9718
       112        2.0000           -0.3628154              -9.8727
       113        2.0000           -0.3587726              -9.7627
       114        2.0000           -0.3563022              -9.6955
       115        1.9435           -0.3382847              -9.2052 (HOMO)
       116        0.0565           -0.3315634              -9.0223 (LUMO)
       117                         -0.3050162              -8.2999
       118                         -0.2817781              -7.6676
       119                         -0.2779890              -7.5645
       120                         -0.2745601              -7.4712
       ...                                ...                  ...
       235                          0.7662052              20.8495
      -------------------------------------------------------------
                  HL-Gap            0.0067212 Eh            0.1829 eV
             Fermi-level           -0.3349240 Eh           -9.1137 eV

 SCC (total)                   0 d,  0 h,  0 min,  0.490 sec
 SCC setup                      ...        0 min,  0.001 sec (  0.204%)
 Dispersion                     ...        0 min,  0.003 sec (  0.612%)
 classical contributions        ...        0 min,  0.000 sec (  0.000%)
 integral evaluation            ...        0 min,  0.016 sec (  3.265%)
 iterations                     ...        0 min,  0.413 sec ( 84.286%)
 molecular gradient             ...        0 min,  0.055 sec ( 11.225%)
 printout                       ...        0 min,  0.002 sec (  0.408%)

         :::::::::::::::::::::::::::::::::::::::::::::::::::::
         ::                     SUMMARY                     ::
         :::::::::::::::::::::::::::::::::::::::::::::::::::::
         :: total energy            -120.856528419045 Eh    ::
         :: gradient norm              0.064882475438 Eh/a0 ::
         :: HOMO-LUMO gap              0.182894399234 eV    ::
         ::.................................................::
         :: SCC energy              -123.031444194870 Eh    ::
         :: -> isotropic ES            0.100146127687 Eh    ::
         :: -> anisotropic ES          0.018065188431 Eh    ::
         :: -> anisotropic XC          0.051430674618 Eh    ::
         :: -> dispersion             -0.131736248754 Eh    ::
         :: repulsion energy           2.174915775826 Eh    ::
         :: add. restraining           0.000000000000 Eh    ::
         :: total charge               0.000000000362 e     ::
         :::::::::::::::::::::::::::::::::::::::::::::::::::::

      ----------------------------------------------------------- 
     |                   =====================                   |
     |                        A N C O P T                        |
     |                   =====================                   |
     |               Approximate Normal Coordinate               |
     |                Rational Function Optimizer                |
      ----------------------------------------------------------- 
      ----------------------------------------------------------- 
     |                   =====================                   |
     |                        A N C O P T                        |
     |                   =====================                   |
     |               Approximate Normal Coordinate               |
     |                Rational Function Optimizer                |
      ----------------------------------------------------------- 

          ...................................................
          :                      SETUP                      :
          :.................................................:
          :   optimization level            normal          :
          :   max. optcycles                   219          :
          :   ANC micro-cycles                  20          :
          :   degrees of freedom               213          :
          :.................................................:
          :   RF solver                   davidson          :
          :   write xtbopt.log                true          :
          :   linear?                        false          :
          :   energy convergence         0.5000000E-05 Eh   :
          :   grad. convergence          0.1000000E-02 Eh/α :
          :   maxmium RF displ.          1.0000000          :
          :   Hlow (freq-cutoff)         0.1000000E-01      :
          :   Hmax (freq-cutoff)         5.0000000          :
          :   S6 in model hess.         20.0000000          :
          ...................................................

generating ANC from exact Hessian ...
Using Lindh-Hessian (1995)
 Shifting diagonal of input Hessian by   9.753347949589711E-003
 Lowest  eigenvalues of input Hessian
    0.000000    0.000000    0.000000    0.000000    0.000000    0.000000
    0.010000    0.010290    0.010603    0.010856    0.011115    0.012277
    0.012757    0.012806    0.013941    0.015241    0.015601    0.015799
 Highest eigenvalues
    1.951849    1.975901    1.981447    2.004976    2.048226    2.061675
 

........................................................................
.............................. CYCLE    1 ..............................
........................................................................

 iter      E             dE          RMSdq      gap      omega  full diag
   1   -123.0294291 -0.123029E+03  0.611E-05    0.18       0.0  T
   2   -123.0294291  0.568903E-09  0.998E-05    0.18     117.2  T
   3   -123.0294291 -0.327901E-09  0.765E-05    0.18     152.9  T
     SCC iter.                  ...        0 min,  0.046 sec
     gradient                   ...        0 min,  0.046 sec
 * total energy  :  -120.8565284 Eh     change       -0.8486438E-09 Eh
   gradient norm :     0.0648857 Eh/α   predicted     0.0000000E+00 (-100.00%)
   displ. norm   :     0.3509880 α      lambda       -0.1178916E-01
   maximum displ.:     0.1844322 α      in ANC's #42, #34, #35, ...

........................................................................
.............................. CYCLE    2 ..............................
........................................................................

 iter      E             dE          RMSdq      gap      omega  full diag
   1   -123.1183974 -0.123118E+03  0.157E-01    0.17       0.0  T
   2   -123.1103464  0.805107E-02  0.261E-01    0.22       1.0  T
   3   -123.1076289  0.271747E-02  0.298E-01    0.18       1.0  T
   4   -123.1171986 -0.956968E-02  0.111E-01    0.17       1.0  T
   5   -123.1185867 -0.138813E-02  0.273E-02    0.18       1.0  T
   6   -123.1186320 -0.452770E-04  0.154E-02    0.18       1.0  T
   7   -123.1186399 -0.794801E-05  0.121E-02    0.18       1.0  T
   8   -123.1186535 -0.135898E-04  0.338E-03    0.18       3.5  T
   9   -123.1186539 -0.393747E-06  0.127E-03    0.18       9.2  T
  10   -123.1186541 -0.190160E-06  0.462E-04    0.18      25.3  T
  11   -123.1186541 -0.455726E-08  0.330E-04    0.18      35.5  T
     SCC iter.                  ...        0 min,  0.169 sec
     gradient                   ...        0 min,  0.045 sec
 * total energy  :  -120.8647475 Eh     change       -0.8219106E-02 Eh
   gradient norm :     0.0270463 Eh/α   predicted    -0.6620766E-02 ( -19.45%)
   displ. norm   :     0.2689695 α      lambda       -0.3515607E-02
   maximum displ.:     0.1504326 α      in ANC's #34, #42, #35, ...

........................................................................
.............................. CYCLE    3 ..............................
........................................................................

 iter      E             dE          RMSdq      gap      omega  full diag
   1   -123.1728232 -0.123173E+03  0.123E-01    0.17       0.0  T
   2   -123.1657375  0.708567E-02  0.242E-01    0.21       1.0  T
   3   -123.1684927 -0.275519E-02  0.195E-01    0.17       1.0  T
   4   -123.1719665 -0.347377E-02  0.933E-02    0.17       1.0  T
   5   -123.1729678 -0.100130E-02  0.212E-02    0.18       1.0  T
   6   -123.1730070 -0.392632E-04  0.897E-03    0.18       1.3  T
   7   -123.1730077 -0.661335E-06  0.770E-03    0.18       1.5  T
   8   -123.1730135 -0.580590E-05  0.181E-03    0.18       6.5  T
   9   -123.1730137 -0.219655E-06  0.545E-04    0.18      21.5  T
  10   -123.1730138 -0.255821E-07  0.266E-04    0.18      44.0  T
     SCC iter.                  ...        0 min,  0.147 sec
     gradient                   ...        0 min,  0.044 sec
 * total energy  :  -120.8666864 Eh     change       -0.1938824E-02 Eh
   gradient norm :     0.0094426 Eh/α   predicted    -0.1885254E-02 (  -2.76%)
   displ. norm   :     0.0468058 α      lambda       -0.1863006E-03
   maximum displ.:     0.0232262 α      in ANC's #34, #42, #35, ...

........................................................................
.............................. CYCLE    4 ..............................
........................................................................

 iter      E             dE          RMSdq      gap      omega  full diag
   1   -123.1771774 -0.123177E+03  0.372E-02    0.18       0.0  T
   2   -123.1769219  0.255541E-03  0.499E-02    0.18       1.0  T
   3   -123.1762479  0.673975E-03  0.846E-02    0.17       1.0  T
   4   -123.1771164 -0.868454E-03  0.225E-02    0.17       1.0  T
   5   -123.1771784 -0.620660E-04  0.653E-03    0.18       1.8  T
   6   -123.1771838 -0.538669E-05  0.154E-03    0.18       7.6  T
   7   -123.1771838 -0.256403E-07  0.125E-03    0.18       9.3  T
   8   -123.1771840 -0.133296E-06  0.388E-04    0.18      30.2  T
   9   -123.1771840 -0.293282E-08  0.252E-04    0.18      46.5  T
     SCC iter.                  ...        0 min,  0.133 sec
     gradient                   ...        0 min,  0.050 sec
 * total energy  :  -120.8668170 Eh     change       -0.1306970E-03 Eh
   gradient norm :     0.0055856 Eh/α   predicted    -0.9336941E-04 ( -28.56%)
   displ. norm   :     0.0281853 α      lambda       -0.9194941E-04
   maximum displ.:     0.0106146 α      in ANC's #98, #34, #53, ...

........................................................................
.............................. CYCLE    5 ..............................
........................................................................

 iter      E             dE          RMSdq      gap      omega  full diag
   1   -123.1760953 -0.123176E+03  0.356E-02    0.18       0.0  T
   2   -123.1760366  0.587374E-04  0.305E-02    0.18       1.0  T
   3   -123.1736695  0.236710E-02  0.134E-01    0.17       1.0  T
   4   -123.1760619 -0.239239E-02  0.161E-02    0.18       1.0  T
   5   -123.1760946 -0.327431E-04  0.507E-03    0.18       2.3  T
   6   -123.1760977 -0.308309E-05  0.147E-03    0.18       8.0  T
   7   -123.1760977 -0.192402E-07  0.120E-03    0.18       9.7  T
   8   -123.1760978 -0.137283E-06  0.346E-04    0.18      33.9  T
   9   -123.1760978 -0.508176E-08  0.165E-04    0.18      70.9  T
     SCC iter.                  ...        0 min,  0.139 sec
     gradient                   ...        0 min,  0.048 sec
 * total energy  :  -120.8668709 Eh     change       -0.5389481E-04 Eh
   gradient norm :     0.0020527 Eh/α   predicted    -0.4603508E-04 ( -14.58%)
   displ. norm   :     0.0127496 α      lambda       -0.1102886E-04
   maximum displ.:     0.0060150 α      in ANC's #18, #16, #30, ...

........................................................................
.............................. CYCLE    6 ..............................
........................................................................

 iter      E             dE          RMSdq      gap      omega  full diag
   1   -123.1744048 -0.123174E+03  0.105E-02    0.18       0.0  T
   2   -123.1744048  0.829745E-07  0.653E-03    0.18       1.8  T
   3   -123.1743487  0.560994E-04  0.202E-02    0.18       1.0  T
   4   -123.1744032 -0.544863E-04  0.387E-03    0.18       3.0  T
   5   -123.1744049 -0.178062E-05  0.457E-04    0.18      25.6  T
   6   -123.1744049 -0.131523E-08  0.400E-04    0.18      29.2  T
   7   -123.1744049 -0.135424E-07  0.180E-04    0.18      65.1  T
     SCC iter.                  ...        0 min,  0.106 sec
     gradient                   ...        0 min,  0.044 sec
 * total energy  :  -120.8668781 Eh     change       -0.7156937E-05 Eh
   gradient norm :     0.0010317 Eh/α   predicted    -0.5517896E-05 ( -22.90%)
   displ. norm   :     0.0130365 α      lambda       -0.2672792E-05
   maximum displ.:     0.0075376 α      in ANC's #18, #16, #30, ...

........................................................................
.............................. CYCLE    7 ..............................
........................................................................

 iter      E             dE          RMSdq      gap      omega  full diag
   1   -123.1732196 -0.123173E+03  0.689E-03    0.18       0.0  T
   2   -123.1732156  0.398346E-05  0.708E-03    0.18       1.7  T
   3   -123.1731644  0.511917E-04  0.202E-02    0.18       1.0  T
   4   -123.1732186 -0.542524E-04  0.282E-03    0.18       4.2  T
   5   -123.1732196 -0.948780E-06  0.855E-04    0.18      13.7  T
   6   -123.1732197 -0.813627E-07  0.235E-04    0.18      49.9  T
     SCC iter.                  ...        0 min,  0.091 sec
     gradient                   ...        0 min,  0.053 sec
 * total energy  :  -120.8668795 Eh     change       -0.1370858E-05 Eh
   gradient norm :     0.0003307 Eh/α   predicted    -0.1337774E-05 (  -2.41%)
   displ. norm   :     0.0033337 α      lambda       -0.3203174E-06
   maximum displ.:     0.0014862 α      in ANC's #18, #42, #34, ...

   *** GEOMETRY OPTIMIZATION CONVERGED AFTER 7 ITERATIONS ***

------------------------------------------------------------------------
 total energy gain   :        -0.0103511 Eh       -6.4954 kcal/mol
 total RMSD          :         0.0754142 a0        0.0399 Å
 total power (kW/mol):        -3.8823831 (step)  -20.3266 (real)
------------------------------------------------------------------------

 ANCopt (total)                0 d,  0 h,  0 min,  1.337 sec
 optimizer setup                ...        0 min,  0.000 sec (  0.000%)
 model hessian                  ...        0 min,  0.045 sec (  3.366%)
 ANC generation                 ...        0 min,  0.009 sec (  0.673%)
 coordinate transformation      ...        0 min,  0.000 sec (  0.000%)
 single point calculation       ...        0 min,  1.273 sec ( 95.213%)
 optimization log               ...        0 min,  0.009 sec (  0.673%)
 hessian update                 ...        0 min,  0.000 sec (  0.000%)
 rational function              ...        0 min,  0.001 sec (  0.075%)

================
 final structure:
================
73
 xtb: 6.7.1pre (5071a88)
C           -5.89993027726608        3.56552070184924        0.00036409664872
C           -0.84166344676828        4.89604055191605       -0.00026665998534
C           -5.37250194361678        4.80247379588228        0.00011137959801
C           -3.00644540076799        3.66939393849320       -0.00022079029390
C           -5.08906114227246        2.37691428278743        0.00018656814592
C            4.84541448343990        5.08902136851799        0.00021749709004
C            0.51798429797054        4.99485511896225       -0.00021218807632
C            0.79795700091327       -4.86859920602555       -0.00015576020084
C            2.75735543448701        3.83126863877068        0.00003576603039
C            4.90109892684634        2.65631157678294        0.00018389276439
C           -3.50838799042023       -2.57864648340000        0.00005247503730
C           -1.32527479138656       -3.71749128957425       -0.00010535844694
C           -1.59146063320571        3.66717049834625       -0.00019613747726
C            2.82804707783434        1.29539974028230        0.00004961955923
C           -5.56159972293539       -3.98248694701288        0.00011019887196
C            4.97649900383456        0.06617976008381        0.00011766086019
C           -3.42428454072929       -5.01537801240366       -0.00016385089013
C           -3.65332842605815        2.41109650601777       -0.00000837119835
C            5.01416818789557       -2.37396382290415       -0.00001058517785
C           -1.51342996901644        1.20135521234371       -0.00005348446193
C            0.70260098834217        0.01015136604378       -0.00001704795487
C            2.85834720018615       -1.17616154824036       -0.00000242970585
C           -5.72866233174016        1.16770888376828        0.00033132897993
C            2.92585256167022       -3.65350734487729       -0.00011674955632
C           -3.59238164547589       -0.08270757751322        0.00012028551984
C            5.28062049448903       -4.80120021549729       -0.00015812689575
C           -1.42226299449242       -1.25014284482578       -0.00001381710262
C            0.75602070785910       -2.44513199370058       -0.00007128834592
C            3.47820895915606        5.04720812102366        0.00011209161369
C           -5.04059311252745       -0.05472474582449        0.00027034469717
C            5.54559306549683        3.88845012505179        0.00024541942430
C           -2.85729081968561       -1.30486207535819        0.00005543552099
C           -0.66805845180080       -2.47365287946401       -0.00006362174653
C            1.50784472617607       -3.65118251685648       -0.00011751829691
C            1.34211637268405        3.84411385761041       -0.00008576382999
C            3.47965906046126        2.58560888515026        0.00008779818794
C           -4.94901821366630       -2.72436474569542        0.00016121250811
C           -2.76426249526268       -3.78531231788851       -0.00007543029715
C           -0.55901537317668       -4.89827193603977       -0.00014815002317
C           -0.87394694820277        2.45505315097494       -0.00011442962103
C            1.41870767636186        1.22606738343646       -0.00000052633877
C            3.56210090585836        0.06724654981072        0.00005935460868
C           -4.80427633193190       -5.12556190023220       -0.00007321873256
C            5.65464135571055       -1.14958198658737        0.00008219148889
C           -2.93157401228751        1.17291201653358        0.00001766569736
C            5.81519695397580       -3.56240336684873       -0.00006553991744
C           -0.74199051148693       -0.01190080994397       -0.00002196881229
C            1.44042366160248       -1.20754326691709       -0.00002777895055
C            3.58691069236708       -2.40771545121499       -0.00004283705249
H           -6.97251937918065        3.39904419189783        0.00054028698990
H            1.34167564845826       -5.79526856933163       -0.00018266276210
H           -6.64026152571846       -4.03327642547919        0.00020369506014
H           -2.86148518139423       -5.93263926875960       -0.00031054286337
H           -6.80981383482508        1.13566756142970        0.00050569518050
H            5.96081549045333       -5.64492233242779       -0.00020982971583
H           -1.03662472086534       -5.86283988220351       -0.00016352796575
H           -5.26897759783858       -6.09965421672941       -0.00013922407660
H           -1.40737824650689        5.81211909389241       -0.00032067746633
H           -6.05444435658524        5.64451132452095        0.00006267077388
H            5.37059972491703        6.03360074585503        0.00027544238563
H            0.93821244838918        5.99288574874082       -0.00025107993279
H            2.92773287645097        5.97512624071404        0.00009308032179
H            6.62624935861219        3.90435819612230        0.00031918267717
H            6.73644363013197       -1.12842088471850        0.00012393809495
H            6.88867956063431       -3.40445729493936       -0.00003934938876
B           -5.53166243918057       -1.40036240991210        0.00029685579079
B           -3.85340122307581        4.96805094489159       -0.00086504838866
H           -3.40148467370260        6.04785182781181       -0.00115170384642
B            5.75073737913455        1.38201934053176        0.00020667022518
H            6.92244419221747        1.41450843057535        0.00027948622681
B            0.62945393293120        2.51078710010113       -0.00006938065062
B            3.76836214197190       -4.96315384602298       -0.00021149216731
H            3.31002652513296       -6.04168136215422       -0.00029433796616
 
 Bond Distances (Angstroems)
 ---------------------------
C1-C3=1.3447         C1-C5=1.4389         C1-H50=1.0854        C2-C7=1.3632         C2-C13=1.4396        C2-H58=1.0767        
C3-C1=1.3447         C3-H59=1.0835        C3-B67=1.5281        C4-C13=1.4150        C4-C18=1.4148        C4-B67=1.5504        
C5-C1=1.4389         C5-C18=1.4361        C5-C23=1.3679        C6-C29=1.3678        C6-C31=1.3898        C6-H60=1.0808        
C7-C2=1.3632         C7-C35=1.4154        C7-H61=1.0829        C8-C34=1.4093        C8-C39=1.3573        C8-H51=1.0744        
C9-C29=1.4136        C9-C35=1.4153        C9-C36=1.4399        C10-C31=1.3905       C10-C36=1.4232       C10-B69=1.5316       
C11-C32=1.4305       C11-C37=1.4480       C11-C38=1.4177       C12-C33=1.4068       C12-C38=1.4406       C12-C39=1.4076       
C13-C2=1.4396        C13-C4=1.4150        C13-C40=1.4086       C14-C36=1.4454       C14-C41=1.4110       C14-C42=1.4308       
C15-C37=1.3993       C15-C43=1.3712       C15-H52=1.0799       C16-C42=1.4144       C16-C44=1.3921       C16-B69=1.5267       
C17-C38=1.3960       C17-C43=1.3844       C17-H53=1.0762       C18-C4=1.4148        C18-C5=1.4361        C18-C45=1.4332       
C19-C44=1.3818       C19-C46=1.4332       C19-C49=1.4277       C20-C40=1.4074       C20-C45=1.4184       C20-C47=1.4377       
C21-C41=1.4111       C21-C47=1.4448       C21-C48=1.4238       C22-C42=1.4288       C22-C48=1.4183       C22-C49=1.4309       
C23-C5=1.3679        C23-C30=1.4028       C23-H54=1.0816       C24-C34=1.4180       C24-C49=1.4103       C24-B72=1.5572       
C25-C30=1.4485       C25-C32=1.4262       C25-C45=1.4189       C26-C46=1.3492       C26-H55=1.0838       C26-B72=1.5209       
C27-C32=1.4361       C27-C33=1.4373       C27-C47=1.4128       C28-C33=1.4244       C28-C34=1.4212       C28-C48=1.4142       
C29-C6=1.3678        C29-C9=1.4136        C29-H62=1.0789       C30-C23=1.4028       C30-C25=1.4485       C30-B66=1.4324       
C31-C6=1.3898        C31-C10=1.3905       C31-H63=1.0808       C32-C11=1.4305       C32-C25=1.4262       C32-C27=1.4361       
C33-C12=1.4068       C33-C27=1.4373       C33-C28=1.4244       C34-C8=1.4093        C34-C24=1.4180       C34-C28=1.4212       
C35-C7=1.4154        C35-C9=1.4153        C35-B71=1.5118       C36-C9=1.4399        C36-C10=1.4232       C36-C14=1.4454       
C37-C11=1.4480       C37-C15=1.3993       C37-B66=1.4465       C38-C11=1.4177       C38-C12=1.4406       C38-C17=1.3960       
C39-C8=1.3573        C39-C12=1.4076       C39-H56=1.0763       C40-C13=1.4086       C40-C20=1.4074       C40-B71=1.5044       
C41-C14=1.4110       C41-C21=1.4111       C41-B71=1.5078       C42-C14=1.4308       C42-C16=1.4144       C42-C22=1.4288       
C43-C15=1.3712       C43-C17=1.3844       C43-H57=1.0793       C44-C16=1.3921       C44-C19=1.3818       C44-H64=1.0820       
C45-C18=1.4332       C45-C20=1.4184       C45-C25=1.4189       C46-C19=1.4332       C46-C26=1.3492       C46-H65=1.0850       
C47-C20=1.4377       C47-C21=1.4448       C47-C27=1.4128       C48-C21=1.4238       C48-C22=1.4183       C48-C28=1.4142       
C49-C19=1.4277       C49-C22=1.4309       C49-C24=1.4103       H50-C1=1.0854        H51-C8=1.0744        H52-C15=1.0799       
H53-C17=1.0762       H54-C23=1.0816       H55-C26=1.0838       H56-C39=1.0763       H57-C43=1.0793       H58-C2=1.0767        
H59-C3=1.0835        H60-C6=1.0808        H61-C7=1.0829        H62-C29=1.0789       H63-C31=1.0808       H64-C44=1.0820       
H65-C46=1.0850       B66-C30=1.4324       B66-C37=1.4465       B67-C3=1.5281        B67-C4=1.5504        B67-H68=1.1706       
H68-B67=1.1706       B69-C10=1.5316       B69-C16=1.5267       B69-H70=1.1722       H70-B69=1.1722       B71-C35=1.5118       
B71-C40=1.5044       B71-C41=1.5078       B72-C24=1.5572       B72-C26=1.5209       B72-H73=1.1719       H73-B72=1.1719       
 B  H  Rav=1.1715 sigma=0.0007  Rmin=1.1706  Rmax=1.1722     3
 C  H  Rav=1.0805 sigma=0.0032  Rmin=1.0744  Rmax=1.0854    16
 C  B  Rav=1.5107 sigma=0.0371  Rmin=1.4324  Rmax=1.5572    11
 C  C  Rav=1.4127 sigma=0.0248  Rmin=1.3447  Rmax=1.4485    60
 
 selected bond angles (degree)
 --------------------
C5-C1-C3=122.61                H50-C1-C3=121.92               H50-C1-C5=115.48               C13-C2-C7=125.55               
H58-C2-C7=117.54               H58-C2-C13=116.91              H59-C3-C1=117.90               B67-C3-C1=119.31               
B67-C3-H59=122.78              C18-C4-C13=117.12              B67-C4-C13=123.20              B67-C4-C18=119.68              
C18-C5-C1=122.94               C23-C5-C1=117.82               C23-C5-C18=119.24              C31-C6-C29=118.50              
H60-C6-C29=120.83              H60-C6-C31=120.68              C35-C7-C2=121.45               H61-C7-C2=116.99               
H61-C7-C35=121.56              C39-C8-C34=121.50              H51-C8-C34=119.35              H51-C8-C39=119.15              
C35-C9-C29=120.14              C36-C9-C29=119.23              C36-C9-C35=120.63              C36-C10-C31=120.46             
B69-C10-C31=118.69             B69-C10-C36=120.85             
 
 selected dihedral angles (degree)
 ---------------------------------
H59-C3-C1-C5=179.99           H59-C3-C1-H50=  0.00          B67-C3-C1-C5=  0.00           B67-C3-C1-H50=180.03          
C18-C5-C1-C3=  0.00           C18-C5-C1-H50=180.00          C23-C5-C1-C3=180.01           C23-C5-C1-H50=  0.00          
C35-C7-C2-C13=  0.00          C35-C7-C2-H58=180.00          H61-C7-C2-C13=180.00          H61-C7-C2-H58=  0.00          
           -------------------------------------------------
          |                Final Singlepoint                |
           -------------------------------------------------

          ...................................................
          :                      SETUP                      :
          :.................................................:
          :  # basis functions                 235          :
          :  # atomic orbitals                 235          :
          :  # shells                          127          :
          :  # electrons                       230          :
          :  max. iterations                   250          :
          :  Hamiltonian                  GFN2-xTB          :
          :  restarted?                      false          :
          :  GBSA solvation                  false          :
          :  PC potential                    false          :
          :  electronic temp.          300.0000000     K    :
          :  accuracy                    1.0000000          :
          :  -> integral cutoff          0.2500000E+02      :
          :  -> integral neglect         0.1000000E-07      :
          :  -> SCF convergence          0.1000000E-05 Eh   :
          :  -> wf. convergence          0.1000000E-03 e    :
          :  Broyden damping             0.4000000          :
          :  net charge                          0          :
          :  unpaired electrons                  0          :
          ...................................................

 iter      E             dE          RMSdq      gap      omega  full diag
   1   -123.1732197 -0.123173E+03  0.121E-04    0.18       0.0  T
   2   -123.1732197  0.101662E-08  0.129E-04    0.18      90.4  T
   3   -123.1732197  0.924041E-08  0.288E-04    0.18      40.7  T

   *** convergence criteria satisfied after 3 iterations ***

         #    Occupation            Energy/Eh            Energy/eV
      -------------------------------------------------------------
         1        2.0000           -0.6678400             -18.1729
       ...           ...                  ...                  ...
       109        2.0000           -0.3756410             -10.2217
       110        2.0000           -0.3739380             -10.1754
       111        2.0000           -0.3672947              -9.9946
       112        2.0000           -0.3616407              -9.8407
       113        2.0000           -0.3590193              -9.7694
       114        2.0000           -0.3550036              -9.6601
       115        1.9356           -0.3381311              -9.2010 (HOMO)
       116        0.0644           -0.3316653              -9.0251 (LUMO)
       117                         -0.3033959              -8.2558
       118                         -0.2919597              -7.9446
       119                         -0.2760014              -7.5104
       120                         -0.2729305              -7.4268
       ...                                ...                  ...
       235                          0.7649996              20.8167
      -------------------------------------------------------------
                  HL-Gap            0.0064658 Eh            0.1759 eV
             Fermi-level           -0.3348982 Eh           -9.1130 eV

 SCC (total)                   0 d,  0 h,  0 min,  0.112 sec
 SCC setup                      ...        0 min,  0.002 sec (  1.786%)
 Dispersion                     ...        0 min,  0.002 sec (  1.786%)
 classical contributions        ...        0 min,  0.000 sec (  0.000%)
 integral evaluation            ...        0 min,  0.014 sec ( 12.500%)
 iterations                     ...        0 min,  0.046 sec ( 41.071%)
 molecular gradient             ...        0 min,  0.046 sec ( 41.071%)
 printout                       ...        0 min,  0.002 sec (  1.786%)

         :::::::::::::::::::::::::::::::::::::::::::::::::::::
         ::                     SUMMARY                     ::
         :::::::::::::::::::::::::::::::::::::::::::::::::::::
         :: total energy            -120.866879463579 Eh    ::
         :: gradient norm              0.000330649114 Eh/a0 ::
         :: HOMO-LUMO gap              0.175942097961 eV    ::
         ::.................................................::
         :: SCC energy              -123.175245325119 Eh    ::
         :: -> isotropic ES            0.100483215623 Eh    ::
         :: -> anisotropic ES          0.017797832845 Eh    ::
         :: -> anisotropic XC          0.047847859689 Eh    ::
         :: -> dispersion             -0.133145721500 Eh    ::
         :: repulsion energy           2.308365861540 Eh    ::
         :: add. restraining           0.000000000000 Eh    ::
         :: total charge               0.000000001309 e     ::
         :::::::::::::::::::::::::::::::::::::::::::::::::::::

           -------------------------------------------------
          |                Property Printout                |
           -------------------------------------------------

    * Orbital Energies and Occupations

         #    Occupation            Energy/Eh            Energy/eV
      -------------------------------------------------------------
         1        2.0000           -0.6678400             -18.1729
       ...           ...                  ...                  ...
       103        2.0000           -0.3906868             -10.6311
       104        2.0000           -0.3888333             -10.5807
       105        2.0000           -0.3879901             -10.5577
       106        2.0000           -0.3845179             -10.4633
       107        2.0000           -0.3831596             -10.4263
       108        2.0000           -0.3801386             -10.3441
       109        2.0000           -0.3756410             -10.2217
       110        2.0000           -0.3739380             -10.1754
       111        2.0000           -0.3672947              -9.9946
       112        2.0000           -0.3616407              -9.8407
       113        2.0000           -0.3590193              -9.7694
       114        2.0000           -0.3550036              -9.6601
       115        1.9356           -0.3381311              -9.2010 (HOMO)
       116        0.0644           -0.3316653              -9.0251 (LUMO)
       117                         -0.3033959              -8.2558
       118                         -0.2919597              -7.9446
       119                         -0.2760014              -7.5104
       120                         -0.2729305              -7.4268
       121                         -0.2572155              -6.9992
       122                         -0.2446181              -6.6564
       123                         -0.2399251              -6.5287
       124                         -0.2302742              -6.2661
       125                         -0.2216379              -6.0311
       126                         -0.2148132              -5.8454
       ...                                ...                  ...
       235                          0.7649996              20.8167
      -------------------------------------------------------------
                  HL-Gap            0.0064658 Eh            0.1759 eV
             Fermi-level           -0.3348982 Eh           -9.1130 eV

     #   Z          covCN         q      C6AA      α(0)
     1   6 C        2.911    -0.027    28.679     8.781
     2   6 C        2.912    -0.045    29.120     8.849
     3   6 C        2.819    -0.110    30.774     9.089
     4   6 C        2.887    -0.073    29.829     8.954
     5   6 C        2.974     0.008    27.843     8.655
     6   6 C        2.907    -0.035    28.860     8.809
     7   6 C        2.900    -0.032    28.796     8.799
     8   6 C        2.921    -0.035    28.882     8.813
     9   6 C        2.969     0.011    27.776     8.645
    10   6 C        2.889    -0.072    29.803     8.950
    11   6 C        3.016     0.005    27.893     8.663
    12   6 C        2.982     0.008    27.824     8.653
    13   6 C        2.971     0.020    27.564     8.612
    14   6 C        2.968    -0.006    28.165     8.705
    15   6 C        2.916    -0.022    28.559     8.763
    16   6 C        2.888    -0.074    29.849     8.957
    17   6 C        2.926    -0.026    28.660     8.779
    18   6 C        2.982     0.008    27.832     8.654
    19   6 C        2.974     0.001    28.001     8.680
    20   6 C        2.979     0.004    27.930     8.669
    21   6 C        2.974     0.010    27.783     8.646
    22   6 C        2.980     0.003    27.958     8.673
    23   6 C        2.922    -0.027    28.685     8.783
    24   6 C        2.889    -0.068    29.703     8.935
    25   6 C        3.012     0.006    27.859     8.658
    26   6 C        2.820    -0.117    30.951     9.116
    27   6 C        2.977     0.008    27.839     8.655
    28   6 C        2.987    -0.002    28.072     8.691
    29   6 C        2.926    -0.023    28.583     8.768
    30   6 C        2.890    -0.078    29.945     8.972
    31   6 C        2.925    -0.018    28.464     8.749
    32   6 C        2.966    -0.026    28.652     8.780
    33   6 C        2.982    -0.000    28.029     8.684
    34   6 C        2.982     0.013    27.724     8.637
    35   6 C        2.891    -0.061    29.504     8.906
    36   6 C        2.971    -0.000    28.026     8.684
    37   6 C        2.895    -0.071    29.761     8.945
    38   6 C        2.978     0.011    27.756     8.642
    39   6 C        2.918    -0.040    28.992     8.830
    40   6 C        2.902    -0.082    30.061     8.990
    41   6 C        2.897    -0.077    29.915     8.968
    42   6 C        2.979     0.006    27.882     8.662
    43   6 C        2.911    -0.030    28.746     8.792
    44   6 C        2.928    -0.026    28.642     8.777
    45   6 C        2.981     0.002    27.979     8.677
    46   6 C        2.910    -0.025    28.634     8.774
    47   6 C        2.971    -0.010    28.252     8.719
    48   6 C        2.984     0.002    27.972     8.676
    49   6 C        2.983     0.004    27.925     8.668
    50   1 H        0.925     0.018     2.761     2.598
    51   1 H        0.926     0.052     2.298     2.370
    52   1 H        0.926     0.033     2.537     2.491
    53   1 H        0.926     0.044     2.394     2.419
    54   1 H        0.925     0.029     2.605     2.524
    55   1 H        0.925     0.013     2.843     2.637
    56   1 H        0.926     0.035     2.517     2.481
    57   1 H        0.926     0.035     2.514     2.480
    58   1 H        0.926     0.040     2.449     2.447
    59   1 H        0.925     0.017     2.783     2.609
    60   1 H        0.926     0.025     2.658     2.549
    61   1 H        0.925     0.020     2.731     2.585
    62   1 H        0.926     0.035     2.515     2.480
    63   1 H        0.926     0.033     2.549     2.497
    64   1 H        0.925     0.032     2.561     2.502
    65   1 H        0.925     0.021     2.722     2.580
    66   5 B        1.906     0.264    35.936    12.619
    67   5 B        2.756     0.211    18.166     7.132
    68   1 H        0.939    -0.110     5.914     3.802
    69   5 B        2.758     0.208    18.212     7.140
    70   1 H        0.938    -0.111     5.969     3.820
    71   5 B        2.749     0.176    18.687     7.235
    72   5 B        2.755     0.207    18.229     7.145
    73   1 H        0.938    -0.116     6.151     3.877

 Mol. C6AA /au·bohr⁶  :     101242.265840
 Mol. C8AA /au·bohr⁸  :    2788213.128098
 Mol. α(0) /au        :        522.953523


Wiberg/Mayer (AO) data.
largest (>0.10) Wiberg bond orders for each atom

 ---------------------------------------------------------------------------
     #   Z sym  total        # sym  WBO       # sym  WBO       # sym  WBO
 ---------------------------------------------------------------------------
     1   6 C    3.977 --     3 C    1.739     5 C    1.142    50 H    0.964
     2   6 C    3.872 --     7 C    1.604    13 C    1.169    58 H    0.961
     3   6 C    3.930 --     1 C    1.739    67 B    1.092    59 H    0.972
     4   6 C    3.886 --    18 C    1.322    13 C    1.296    67 B    1.066
     5   6 C    3.967 --    23 C    1.488    18 C    1.176     1 C    1.142
     6   6 C    3.972 --    29 C    1.515    31 C    1.364    60 H    0.969
     7   6 C    3.972 --     2 C    1.604    35 C    1.258    61 H    0.958
     8   6 C    3.939 --    39 C    1.562    34 C    1.259    51 H    0.958
     9   6 C    3.961 --    29 C    1.281    35 C    1.270    36 C    1.221
    10   6 C    3.950 --    31 C    1.422    36 C    1.283    69 B    1.069
    11   6 C    3.960 --    38 C    1.257    32 C    1.252    37 C    1.160
    12   6 C    3.931 --    33 C    1.317    39 C    1.282    38 C    1.140
    13   6 C    3.953 --    40 C    1.296     4 C    1.296     2 C    1.169
    14   6 C    3.954 --    41 C    1.306    42 C    1.216    36 C    1.212
    15   6 C    3.934 --    43 C    1.472    37 C    1.328    52 H    0.970
    16   6 C    3.905 --    44 C    1.366    42 C    1.285    69 B    1.076
    17   6 C    3.922 --    43 C    1.407    38 C    1.380    53 H    0.957
    18   6 C    3.961 --     4 C    1.322    45 C    1.238     5 C    1.176
    19   6 C    3.932 --    44 C    1.408    49 C    1.208    46 C    1.164
    20   6 C    3.976 --    40 C    1.290    45 C    1.245    47 C    1.205
    21   6 C    3.950 --    41 C    1.304    48 C    1.220    47 C    1.200
    22   6 C    3.972 --    48 C    1.274    42 C    1.237    49 C    1.227
    23   6 C    3.978 --     5 C    1.488    30 C    1.272    54 H    0.966
    24   6 C    3.836 --    49 C    1.322    34 C    1.272    72 B    1.042
    25   6 C    3.960 --    32 C    1.266    45 C    1.251    30 C    1.132
    26   6 C    3.926 --    46 C    1.705    72 B    1.124    55 H    0.973
    27   6 C    3.968 --    47 C    1.321    32 C    1.224    33 C    1.191
    28   6 C    3.965 --    48 C    1.253    33 C    1.245    34 C    1.245
    29   6 C    3.955 --     6 C    1.515     9 C    1.281    62 H    0.962
    30   6 C    3.969 --    66 B    1.403    23 C    1.272    25 C    1.132
    31   6 C    3.932 --    10 C    1.422     6 C    1.364    63 H    0.970
    32   6 C    3.968 --    25 C    1.266    11 C    1.252    27 C    1.224
    33   6 C    3.983 --    12 C    1.317    28 C    1.245    27 C    1.191
    34   6 C    3.971 --    24 C    1.272     8 C    1.259    28 C    1.245
    35   6 C    3.822 --     9 C    1.270     7 C    1.258    71 B    1.072
    36   6 C    3.933 --    10 C    1.283     9 C    1.221    14 C    1.212
    37   6 C    3.972 --    15 C    1.328    66 B    1.317    11 C    1.160
    38   6 C    3.980 --    17 C    1.380    11 C    1.257    12 C    1.140
    39   6 C    3.975 --     8 C    1.562    12 C    1.282    56 H    0.956
    40   6 C    3.914 --    13 C    1.296    20 C    1.290    71 B    1.095
    41   6 C    3.922 --    14 C    1.306    21 C    1.304    71 B    1.077
    42   6 C    3.977 --    16 C    1.285    22 C    1.237    14 C    1.216
    43   6 C    3.979 --    15 C    1.472    17 C    1.407    57 H    0.969
    44   6 C    3.977 --    19 C    1.408    16 C    1.366    64 H    0.965
    45   6 C    3.970 --    25 C    1.251    20 C    1.245    18 C    1.238
    46   6 C    3.967 --    26 C    1.705    19 C    1.164    65 H    0.965
    47   6 C    3.960 --    27 C    1.321    20 C    1.205    21 C    1.200
    48   6 C    3.980 --    22 C    1.274    28 C    1.253    21 C    1.220
    49   6 C    3.981 --    24 C    1.322    22 C    1.227    19 C    1.208
    50   1 H    0.999 --     1 C    0.964
    51   1 H    0.996 --     8 C    0.958
    52   1 H    0.998 --    15 C    0.970
    53   1 H    0.998 --    17 C    0.957
    54   1 H    0.998 --    23 C    0.966
    55   1 H    0.999 --    26 C    0.973
    56   1 H    0.998 --    39 C    0.956
    57   1 H    0.998 --    43 C    0.969
    58   1 H    0.997 --     2 C    0.961
    59   1 H    0.998 --     3 C    0.972
    60   1 H    0.998 --     6 C    0.969
    61   1 H    0.998 --     7 C    0.958
    62   1 H    0.998 --    29 C    0.962
    63   1 H    0.998 --    31 C    0.970
    64   1 H    0.998 --    44 C    0.965
    65   1 H    0.999 --    46 C    0.965
    66   5 B    3.142 --    30 C    1.403    37 C    1.317
    67   5 B    3.340 --     3 C    1.092     4 C    1.066    68 H    0.962
    68   1 H    0.988 --    67 B    0.962
    69   5 B    3.359 --    16 C    1.076    10 C    1.069    70 H    0.968
    70   1 H    0.987 --    69 B    0.968
    71   5 B    3.465 --    40 C    1.095    41 C    1.077    35 C    1.072
    72   5 B    3.328 --    26 C    1.124    24 C    1.042    73 H    0.960
    73   1 H    0.986 --    72 B    0.960
 ---------------------------------------------------------------------------

Topologies differ in total number of bonds
Writing topology from bond orders to xtbtopo.mol

molecular dipole:
                 x           y           z       tot (Debye)
 q only:       -2.139      -0.953      -0.000
   full:       -2.652      -1.072      -0.000       7.270
molecular quadrupole (traceless):
                xx          xy          yy          xz          yz          zz
 q only:       10.691      26.640      -6.029      -0.000      -0.001      -4.662
  q+dip:       31.896      32.417       3.690       0.001      -0.004     -35.586
   full:       21.158      31.921     -10.873       0.002      -0.004     -10.285

           -------------------------------------------------
          |                Geometry Summary                 |
           -------------------------------------------------

      molecular mass/u    :      661.7320736
   center of mass at/Å    :       -0.0088712       0.0009400      -0.0000049
  moments of inertia/u·Å² :        0.7091507E+04   0.9140619E+04   0.1623213E+05
rotational constants/cm⁻¹ :        0.2377158E-02   0.1844255E-02   0.1038535E-02

 * 78 selected distances

     #   Z          #   Z                                           value/Å
     1   6 C        3   6 C                                       1.3447059
     2   6 C        7   6 C                                       1.3632339
     4   6 C       13   6 C                                       1.4149866
     4   6 C       18   6 C                                       1.4148394
     5   6 C       23   6 C                                       1.3679429
     6   6 C       29   6 C                                       1.3678449
     9   6 C       29   6 C                                       1.4135554
    23   6 C       30   6 C                                       1.4027771
     6   6 C       31   6 C                                       1.3898279
    10   6 C       31   6 C                                       1.3905173
    11   6 C       32   6 C                                       1.4305435
    25   6 C       32   6 C                                       1.4261909
    12   6 C       33   6 C                                       1.4067934
    28   6 C       33   6 C                                       1.4243649
     8   6 C       34   6 C                                       1.4092709
    24   6 C       34   6 C                                       1.4180099
    28   6 C       34   6 C                                       1.4211958
     7   6 C       35   6 C                                       1.4154150
     9   6 C       35   6 C                                       1.4152975
    10   6 C       36   6 C                                       1.4231973
    15   6 C       37   6 C                                       1.3993312
    11   6 C       38   6 C                                       1.4176620
    17   6 C       38   6 C                                       1.3959553
     8   6 C       39   6 C                                       1.3572969
    12   6 C       39   6 C                                       1.4076210
    13   6 C       40   6 C                                       1.4085648
    20   6 C       40   6 C                                       1.4073725
    14   6 C       41   6 C                                       1.4110439
    21   6 C       41   6 C                                       1.4111204
    14   6 C       42   6 C                                       1.4308025
    16   6 C       42   6 C                                       1.4143986
    22   6 C       42   6 C                                       1.4287524
    15   6 C       43   6 C                                       1.3711891
    17   6 C       43   6 C                                       1.3843837
    16   6 C       44   6 C                                       1.3921042
    19   6 C       44   6 C                                       1.3817804
    18   6 C       45   6 C                                       1.4331890
    20   6 C       45   6 C                                       1.4184294
    25   6 C       45   6 C                                       1.4188896
    19   6 C       46   6 C                                       1.4331909
    26   6 C       46   6 C                                       1.3492183
    27   6 C       47   6 C                                       1.4128037
    21   6 C       48   6 C                                       1.4237847
    22   6 C       48   6 C                                       1.4182709
    28   6 C       48   6 C                                       1.4142255
    19   6 C       49   6 C                                       1.4276566
    22   6 C       49   6 C                                       1.4309193
    24   6 C       49   6 C                                       1.4103176
     1   6 C       50   1 H                                       1.0854317
     8   6 C       51   1 H                                       1.0744051 (min)
    15   6 C       52   1 H                                       1.0798570
    17   6 C       53   1 H                                       1.0761559
    23   6 C       54   1 H                                       1.0816263
    26   6 C       55   1 H                                       1.0837585
    39   6 C       56   1 H                                       1.0763374
    43   6 C       57   1 H                                       1.0792605
     2   6 C       58   1 H                                       1.0766770
     3   6 C       59   1 H                                       1.0835464
     6   6 C       60   1 H                                       1.0807636
     7   6 C       61   1 H                                       1.0828929
    29   6 C       62   1 H                                       1.0789143
    31   6 C       63   1 H                                       1.0807735
    44   6 C       64   1 H                                       1.0820093
    46   6 C       65   1 H                                       1.0850401
    30   6 C       66   5 B                                       1.4324420
    37   6 C       66   5 B                                       1.4465327
     3   6 C       67   5 B                                       1.5280982
     4   6 C       67   5 B                                       1.5504338
    67   5 B       68   1 H                                       1.1705549
    10   6 C       69   5 B                                       1.5315700
    16   6 C       69   5 B                                       1.5267218
    69   5 B       70   1 H                                       1.1721573
    35   6 C       71   5 B                                       1.5118361
    40   6 C       71   5 B                                       1.5044337
    41   6 C       71   5 B                                       1.5077887
    24   6 C       72   5 B                                       1.5572401 (max)
    26   6 C       72   5 B                                       1.5209059
    72   5 B       73   1 H                                       1.1718760

 * 4 distinct bonds (by element types)

   Z      Z             #   av. dist./Å        max./Å        min./Å
   1 H    5 B           3     1.1715294     1.1721573     1.1705549
   1 H    6 C          16     1.0804656     1.0854317     1.0744051
   5 B    6 C          11     1.5107276     1.5572401     1.4324420
   6 C    6 C          48     1.4056413     1.4331909     1.3447059


optimized geometry written to: xtbopt.xyz


           -------------------------------------------------
          | TOTAL ENERGY             -120.866879463579 Eh   |
          | GRADIENT NORM               0.000330649114 Eh/α |
          | HOMO-LUMO GAP               0.175942097961 eV   |
           -------------------------------------------------

------------------------------------------------------------------------
 * finished run on 2025/12/08 at 00:34:46.265     
------------------------------------------------------------------------
 total:
 * wall-time:     0 d,  0 h,  0 min,  2.006 sec
 *  cpu-time:     0 d,  0 h,  0 min,  7.953 sec
 * ratio c/w:     3.965 speedup
 SCF:
 * wall-time:     0 d,  0 h,  0 min,  0.491 sec
 *  cpu-time:     0 d,  0 h,  0 min,  1.938 sec
 * ratio c/w:     3.946 speedup
 ANC optimizer:
 * wall-time:     0 d,  0 h,  0 min,  1.455 sec
 *  cpu-time:     0 d,  0 h,  0 min,  5.766 sec
 * ratio c/w:     3.963 speedup

normal termination of xtb
