73
 energy: -120.856528419893 gnorm: 0.064885667363 xtb: 6.7.1pre (5071a88)
C           -5.93965900000000        3.58950400000000        0.00042400000000
C           -0.85743600000000        4.94983500000000       -0.00036100000000
C           -5.40816600000000        4.83923500000000        0.00002600000000
C           -3.02765400000000        3.69203500000000       -0.00052300000000
C           -5.12883200000000        2.38672200000000        0.00007400000000
C            4.87918300000000        5.12162200000000        0.00021600000000
C            0.50988000000000        5.03579200000000       -0.00021900000000
C            0.80378000000000       -4.91202500000000       -0.00018900000000
C            2.76488600000000        3.85799800000000        0.00007500000000
C            4.93736700000000        2.67104100000000        0.00019400000000
C           -3.52772600000000       -2.60711000000000        0.00023200000000
C           -1.33162600000000       -3.75247300000000        0.00000000000000
C           -1.60427700000000        3.69932100000000       -0.00032100000000
C            2.83729300000000        1.31246200000000        0.00010400000000
C           -5.61047900000000       -4.00653500000000        0.00010000000000
C            5.00651200000000        0.07125600000000        0.00011100000000
C           -3.45582900000000       -5.05442500000000       -0.00018900000000
C           -3.68262300000000        2.42235500000000       -0.00048500000000
C            5.05073700000000       -2.38555400000000       -0.00003500000000
C           -1.51677200000000        1.21897400000000       -0.00012800000000
C            0.70212700000000        0.01593800000000        0.00011100000000
C            2.87401700000000       -1.18276300000000        0.00003600000000
C           -5.77779500000000        1.17184900000000        0.00015100000000
C            2.94610500000000       -3.67609500000000       -0.00012500000000
C           -3.61321600000000       -0.07887600000000        0.00037800000000
C            5.31054300000000       -4.84162400000000       -0.00018300000000
C           -1.43403100000000       -1.26716200000000        0.00017900000000
C            0.76346200000000       -2.46491800000000       -0.00002100000000
C            3.50256500000000        5.08109700000000        0.00012200000000
C           -5.06560800000000       -0.03998000000000        0.00035400000000
C            5.58748400000000        3.90928900000000        0.00024000000000
C           -2.86630800000000       -1.31928000000000        0.00034600000000
C           -0.67197200000000       -2.49879700000000        0.00006300000000
C            1.52159300000000       -3.68078000000000       -0.00011900000000
C            1.34046200000000        3.86461000000000       -0.00006500000000
C            3.50223400000000        2.60462200000000        0.00013100000000
C           -4.97751900000000       -2.75690900000000        0.00021100000000
C           -2.77646000000000       -3.81798900000000        0.00000400000000
C           -0.55670700000000       -4.94541900000000       -0.00016000000000
C           -0.86755200000000        2.47975100000000       -0.00016300000000
C            1.41893300000000        1.25146400000000        0.00007200000000
C            3.58418500000000        0.07553800000000        0.00009200000000
C           -4.84323900000000       -5.16025800000000       -0.00012200000000
C            5.69127400000000       -1.15570900000000        0.00006100000000
C           -2.94213400000000        1.18270600000000       -0.00012200000000
C            5.84895700000000       -3.58905400000000       -0.00009200000000
C           -0.74358400000000       -0.00902400000000        0.00007000000000
C            1.44785900000000       -1.21845500000000        0.00005300000000
C            3.61148700000000       -2.41912200000000       -0.00004500000000
H           -7.01787300000000        3.42634700000000        0.00090200000000
H            1.35492000000000       -5.84162200000000       -0.00026400000000
H           -6.69373200000000       -4.05681400000000        0.00019700000000
H           -2.89077000000000       -5.97644900000000       -0.00039900000000
H           -6.86272600000000        1.14040700000000        0.00001900000000
H            5.99398900000000       -5.69020300000000       -0.00023100000000
H           -1.03983800000000       -5.91265900000000       -0.00026900000000
H           -5.31226900000000       -6.13806100000000       -0.00021700000000
H           -1.42577200000000        5.87066500000000       -0.00045900000000
H           -6.09426000000000        5.68523200000000        0.00027700000000
H            5.40440200000000        6.07235900000000        0.00026400000000
H            0.93949400000000        6.03605200000000       -0.00021400000000
H            2.95420600000000        6.01692500000000        0.00008300000000
H            6.67479300000000        3.92533200000000        0.00029700000000
H            6.77959400000000       -1.13596700000000        0.00010200000000
H            6.92912600000000       -3.43494400000000       -0.00006300000000
B           -5.47812000000000       -1.40799200000000        0.00028500000000
B           -3.88847100000000        4.98374000000000       -0.00067400000000
H           -3.39776000000000        6.07446000000000       -0.00100000000000
B            5.76659100000000        1.39120600000000        0.00018700000000
H            6.96725400000000        1.42246700000000        0.00023100000000
B            0.63088100000000        2.53337800000000       -0.00005500000000
B            3.79795700000000       -4.98090100000000       -0.00020900000000
H            3.29871100000000       -6.06875700000000       -0.00029200000000
73
 energy: -120.864747526267 gnorm: 0.027046260720 xtb: 6.7.1pre (5071a88)
C           -5.91852022734152        3.57879873778188        0.00028915978146
C           -0.84621724269831        4.91716221359595       -0.00034676261286
C           -5.39156405407005        4.81883831804726        0.00000674649263
C           -3.01754104060746        3.67984070419383       -0.00044378300788
C           -5.10723276351850        2.38497184624965        0.00006462427239
C            4.86183728309236        5.10195590637584        0.00021596713889
C            0.51469865703723        5.01114996359862       -0.00021096567430
C            0.79867804673359       -4.88530410722204       -0.00018314009810
C            2.76269546152971        3.84580434821347        0.00006562441492
C            4.91710954490137        2.66466995009121        0.00019300135889
C           -3.51734819006715       -2.59348538813540        0.00018838745984
C           -1.32921209430552       -3.73239854220309       -0.00002525220464
C           -1.59961819472356        3.68095233043047       -0.00037122955491
C            2.83425679911667        1.30255522841703        0.00010027295451
C           -5.58469801328619       -3.99772035207793        0.00012602400288
C            4.98923043930210        0.06653223247946        0.00011708355400
C           -3.44151819573131       -5.03322729757692       -0.00016824814421
C           -3.66747374517825        2.41678141923158       -0.00016163099971
C            5.02991298700836       -2.38072244202032       -0.00002398026699
C           -1.51600466115141        1.20945012883315       -0.00007719568911
C            0.70253856369848        0.01154731147332        0.00005902715238
C            2.86559484253942       -1.18019849132287        0.00003739766265
C           -5.75184867084405        1.17470344043454        0.00016310502920
C            2.93472782200188       -3.66371945358234       -0.00011764708097
C           -3.60222054877798       -0.07961450891961        0.00018203131195
C            5.29583593635567       -4.81772370423507       -0.00018311232566
C           -1.42915424124267       -1.25771595730682        0.00013061868800
C            0.75934882449132       -2.45370389114168        0.00000207178130
C            3.49330601758410        5.06251757932902        0.00012374885734
C           -5.05327667690609       -0.04147500225574        0.00025168133510
C            5.56349483530830        3.89800621663124        0.00024193300260
C           -2.86161676126310       -1.31180577319059        0.00021497943847
C           -0.67057573426472       -2.48481833349290        0.00005286756375
C            1.51432758301078       -3.66355818482367       -0.00010047024233
C            1.34477951997905        3.85431362418908       -0.00006843720088
C            3.48984310757216        2.59537017168136        0.00012190742720
C           -4.96390525355331       -2.74553135248367        0.00022926802253
C           -2.77002624856738       -3.80112278994551        0.00000932192100
C           -0.55815235179843       -4.91728691281245       -0.00015665864634
C           -0.87315251541665        2.46638066798010       -0.00017044940407
C            1.42111961559547        1.23518092045199        0.00005871107144
C            3.57287689839545        0.06957241594847        0.00009024520148
C           -4.82220445080459       -5.14263791029243       -0.00009506210952
C            5.66893297157069       -1.15451223930133        0.00006845645811
C           -2.93664712057793        1.17761225346245       -0.00004433748662
C            5.82974118904180       -3.57518143887508       -0.00009285945013
C           -0.74205536043354       -0.01037294351054        0.00004926167952
C            1.44441320699738       -1.21330314164871        0.00005198421552
C            3.59730450499391       -2.41330799672455       -0.00003726689377
H           -6.99364381422721        3.41600854628002        0.00082741594759
H            1.34431699349490       -5.81338395262428       -0.00027193634317
H           -6.66469266934639       -4.05052134196485        0.00018290098623
H           -2.87967680013578       -5.95336398122059       -0.00038467378420
H           -6.83412900798726        1.14185654747725        0.00019150968461
H            5.97944694483767       -5.66127041539103       -0.00022760817372
H           -1.03921703011476       -5.88268650961080       -0.00023654652970
H           -5.28975103002504       -6.11778282864881       -0.00021804055953
H           -1.41075098047735        5.83580386390070       -0.00044759484076
H           -6.07737465978353        5.66027141383362        0.00026160961457
H            5.38824603103146        6.04814008711045        0.00025965330087
H            0.93889290158407        6.00979461380937       -0.00023392988704
H            2.94812364491546        5.99590724123094        0.00009027023619
H            6.64647394232599        3.91612974568406        0.00029816855743
H            6.75322658310076       -1.13278699484757        0.00009330612550
H            6.90624704953676       -3.42207344660366       -0.00006582359122
B           -5.48951488306455       -1.40278534807319        0.00029318385509
B           -3.87267631522565        4.97571218337204       -0.00056016230472
H           -3.41538282611395        6.06244650547370       -0.00108886577557
B            5.75794322234404        1.38601256830526        0.00019241071682
H            6.94053751131963        1.41913087148937        0.00023084555576
B            0.63114214868282        2.52110939786802       -0.00004929068334
B            3.78425951293861       -4.97094720939556       -0.00020894308535
H            3.31918122966175       -6.05606033147417       -0.00029387917931
73
 energy: -120.866686350661 gnorm: 0.009442576373 xtb: 6.7.1pre (5071a88)
C           -5.90172252370173        3.56938338802825        0.00033474206800
C           -0.84206975581357        4.89615273487754       -0.00035834818589
C           -5.37473534009800        4.80548479031722        0.00004865997597
C           -3.00842788402427        3.67038862567851       -0.00030497786227
C           -5.09107655637809        2.38069461970474        0.00011815756086
C            4.84774480085756        5.08849050566408        0.00021269811878
C            0.51663771817460        4.99507884851965       -0.00023779056067
C            0.79833781897190       -4.86824780931904       -0.00017485541728
C            2.75812339993931        3.83418392049581        0.00005746136655
C            4.90179511704540        2.65739411391135        0.00019276317306
C           -3.50945148539643       -2.58178225528918        0.00012163568069
C           -1.32555110858911       -3.71812014094570       -0.00004753735548
C           -1.59413731668110        3.66761393190183       -0.00028198221523
C            2.82893099434949        1.29613678048903        0.00008668047752
C           -5.56433189541985       -3.98940096793792        0.00013006730258
C            4.97653645878900        0.06533871936832        0.00011985730511
C           -3.42542294662196       -5.01797442410484       -0.00016002197915
C           -3.65553402914543        2.41216909181998       -0.00009270143609
C            5.01506256262729       -2.37480068061216       -0.00001535823542
C           -1.51446493688051        1.20207798848733       -0.00005741469084
C            0.70187374625601        0.00985282328251        0.00004402159223
C            2.85871079545068       -1.17654238279037        0.00003675900586
C           -5.73265430808201        1.17276939139966        0.00021973665072
C            2.92624528026667       -3.65369489203401       -0.00010756351043
C           -3.59425946755297       -0.08172388422524        0.00011778463002
C            5.28141497674626       -4.80157569862822       -0.00017561967832
C           -1.42453780808314       -1.25048062526385        0.00006087238882
C            0.75611738732700       -2.44520541978756       -0.00000386864249
C            3.48139121098192        5.04855577370654        0.00011684554216
C           -5.04458371992734       -0.04749892281823        0.00020234948060
C            5.54695872869558        3.88818612997161        0.00023994522061
C           -2.85837235556709       -1.30590142319962        0.00011516661999
C           -0.66881852340651       -2.47419477674008        0.00002177586406
C            1.50876566354394       -3.65106348119808       -0.00009326903075
C            1.34383979472433        3.84575247509723       -0.00007419709842
C            3.47993361022520        2.58723455977637        0.00011630018362
C           -4.95306441034007       -2.73344071424935        0.00021692363525
C           -2.76391730803913       -3.78747243876983       -0.00001992547370
C           -0.55801879100962       -4.89869205052452       -0.00014902279939
C           -0.87555168440420        2.45627582512470       -0.00014744298531
C            1.41950395576240        1.22543283652233        0.00004517409320
C            3.56305588992824        0.06720759769977        0.00008715406119
C           -4.80385244923012       -5.13040538959644       -0.00008534971919
C            5.65442684349667       -1.15079949342265        0.00007053803534
C           -2.93244615749942        1.17323402021810       -0.00001657657149
C            5.81550342960809       -3.56355107270787       -0.00008570105977
C           -0.74203772817140       -0.01166604637392        0.00002450448348
C            1.44072220190024       -1.20798165020401        0.00003845947610
C            3.58724610399732       -2.40780417074734       -0.00002507372643
H           -6.97471559707937        3.40471525597028        0.00066410551135
H            1.34333651452980       -5.79456706254406       -0.00026098258840
H           -6.64278281428429       -4.04261712654169        0.00020218365130
H           -2.86271594488008       -5.93556590470579       -0.00034976340411
H           -6.81356796016712        1.13941911850407        0.00030277522995
H            5.96298328920165       -5.64404762485508       -0.00023122474619
H           -1.03796966732792       -5.86245652536887       -0.00020868845900
H           -5.26906168957215       -6.10448314005465       -0.00020106640471
H           -1.40805649670480        5.81241939389333       -0.00044836496548
H           -6.05801948917571        5.64632265793693        0.00020248702617
H            5.37455854375690        6.03227371063832        0.00026165148593
H            0.93815709037429        5.99265747586862       -0.00023764392638
H            2.93456281551253        5.97878755697956        0.00009388626365
H            6.62757734614075        3.90579274720290        0.00030153815053
H            6.73624784462037       -1.12858918776373        0.00009372735445
H            6.88949995476817       -3.40849257266074       -0.00006737870654
B           -5.50846379873180       -1.40026538706620        0.00029632469232
B           -3.85474622099988        4.97090287577011       -0.00060641899222
H           -3.40247615334651        6.04880870880563       -0.00110933598930
B            5.75180379645040        1.38189575781573        0.00019604112789
H            6.92194025506571        1.41496571942651        0.00023862764695
B            0.62968850769416        2.51191573528620       -0.00005492487561
B            3.76862548074994       -4.96454218624477       -0.00020480019005
H            3.30980439380295       -6.04143767686507       -0.00029419065087
73
 energy: -120.866817047699 gnorm: 0.005585580022 xtb: 6.7.1pre (5071a88)
C           -5.89897737913958        3.56749211072440        0.00027535075779
C           -0.84115094160794        4.89481951908280       -0.00032066829790
C           -5.37148626393689        4.80399479843004        0.00001430891905
C           -3.00630490062887        3.66931022623129       -0.00028579613676
C           -5.08864206339929        2.37894233479092        0.00014894541401
C            4.84511658129862        5.08757434669690        0.00021392928509
C            0.51779895981610        4.99378300867815       -0.00021468114244
C            0.79758933149945       -4.86720408022837       -0.00016938695589
C            2.75699960071556        3.83133771078951        0.00005051732533
C            4.89987677610371        2.65571898571406        0.00019071387611
C           -3.50860523346623       -2.57934409313011        0.00009119326662
C           -1.32509132710130       -3.71629248121411       -0.00006835154249
C           -1.59186260370624        3.66654387896150       -0.00028474843696
C            2.82739914750997        1.29531912956002        0.00008039325511
C           -5.56103435385837       -3.98693431629360        0.00012605990649
C            4.97505529113455        0.06583883202082        0.00012167742844
C           -3.42217782636390       -5.01580464872312       -0.00016138194795
C           -3.65334789986580        2.41149162800980       -0.00004052067837
C            5.01308034198304       -2.37362644860774       -0.00000955482101
C           -1.51387915295380        1.20120778665673       -0.00005062296867
C            0.70162282642452        0.01008033544263        0.00002258071543
C            2.85750066481790       -1.17589451674929        0.00003226374244
C           -5.72973390507913        1.17071426804095        0.00025631151165
C            2.92491088599306       -3.65265994545813       -0.00010374150570
C           -3.59322662416159       -0.08234343250997        0.00010065725081
C            5.27946003775902       -4.80014232908290       -0.00017493795182
C           -1.42354735208332       -1.24952294469368        0.00002904162314
C            0.75540213580648       -2.44428628791254       -0.00002071755697
C            3.47818304826183        5.04661377532481        0.00011723295447
C           -5.04315902755753       -0.05077916345188        0.00020513659903
C            5.54486276804794        3.88700878701723        0.00024139075507
C           -2.85808580716046       -1.30486304542992        0.00008162616848
C           -0.66854514343022       -2.47270143998971       -0.00000917513170
C            1.50732113968313       -3.65009385927639       -0.00009657010374
C            1.34265348975029        3.84376911174841       -0.00007445650770
C            3.47871272102354        2.58535893304472        0.00010830343982
C           -4.95105199633798       -2.72945595982848        0.00019548226568
C           -2.76335633080212       -3.78499806996590       -0.00004254888713
C           -0.55885423177215       -4.89694102157286       -0.00014823364582
C           -0.87472220210381        2.45487474986458       -0.00013950856328
C            1.41834036227156        1.22512927676331        0.00003264563167
C            3.56131054561619        0.06721840619930        0.00008341292199
C           -4.80108638156496       -5.12848429106333       -0.00008207978791
C            5.65321354599788       -1.14963599278687        0.00007659262540
C           -2.93178113777768        1.17269914793309        0.00000393620541
C            5.81384173608458       -3.56174771203321       -0.00008290807083
C           -0.74243885497121       -0.01180898040898        0.00000337150017
C            1.43981189064277       -1.20715395524394        0.00002444183947
C            3.58584135089708       -2.40715231177793       -0.00002390121604
H           -6.97156426362306        3.40175376718301        0.00063416188995
H            1.34162054150323       -5.79355254083363       -0.00024330388730
H           -6.63946807543953       -4.03960515698322        0.00021438901387
H           -2.85844003676086       -5.93252362164466       -0.00032912943314
H           -6.81070226918914        1.13794456167572        0.00037531358006
H            5.95998019194404       -5.64339731190717       -0.00022816008767
H           -1.03800708313751       -5.86062900652382       -0.00019296483326
H           -5.26521823938943       -6.10279131895892       -0.00018235640646
H           -1.40695645783344        5.81082012554012       -0.00043137311677
H           -6.05349005838344        5.64578856154511        0.00016798676521
H            5.37125019438057        6.03153772865621        0.00026343308867
H            0.93913014379470        5.99131363511075       -0.00026735851434
H            2.92915250320941        5.97541995070483        0.00009482506966
H            6.62535536820426        3.90367731939909        0.00030552241555
H            6.73487035945216       -1.12783418321263        0.00009692880397
H            6.88735513719200       -3.40492815433404       -0.00006350892605
B           -5.51812457834621       -1.40041028269068        0.00029437033167
B           -3.85201532161890        4.96938493724073       -0.00045097503054
H           -3.40063007524225        6.04812496110267       -0.00121446941080
B            5.75051229224315        1.38135236400849        0.00020022978652
H            6.92091699450625        1.41405412095051        0.00024679044439
B            0.62920702388537        2.51047799716225       -0.00005910056807
B            3.76706910500519       -4.96300977354332       -0.00019751211049
H            3.31048836533507       -6.04105743994041       -0.00029576419171
73
 energy: -120.866870942513 gnorm: 0.002052679757 xtb: 6.7.1pre (5071a88)
C           -5.89830075413952        3.56623266902141        0.00031864876850
C           -0.84113639504974        4.89535872749877       -0.00030230326530
C           -5.37045991547717        4.80314695545860        0.00007036912366
C           -3.00546951001060        3.66911163524228       -0.00023191478012
C           -5.08796985435972        2.37752462945566        0.00017845323579
C            4.84421997260380        5.08814842068263        0.00021550779740
C            0.51832874124747        4.99415634059875       -0.00022514847967
C            0.79800379981158       -4.86771532099436       -0.00016249461877
C            2.75669237224410        3.83015027870163        0.00004551461373
C            4.89979078047998        2.65536806873717        0.00018812844898
C           -3.50835531650185       -2.57829488618566        0.00005857840116
C           -1.32489489043628       -3.71654161588546       -0.00009240798514
C           -1.59061657175957        3.66666918094501       -0.00022913542299
C            2.82701803370386        1.29512055741383        0.00006885833664
C           -5.56017867845270       -3.98433482570947        0.00011907051578
C            4.97528327440831        0.06629549309069        0.00012271523502
C           -3.42212405438936       -5.01513440294799       -0.00016277045140
C           -3.65252410970991        2.41118713715258       -0.00001255050677
C            5.01293101561025       -2.37336140221383       -0.00000631097891
C           -1.51351419340394        1.20100479239775       -0.00004964712104
C            0.70189865962067        0.01028781442728        0.00000287091747
C            2.85744617447206       -1.17574151331348        0.00002107081239
C           -5.72833152333789        1.16866659543097        0.00029599074196
C            2.92493579141421       -3.65263534890558       -0.00010465558371
C           -3.59262297375307       -0.08278373910606        0.00010412901064
C            5.27911203700432       -4.80030907577154       -0.00016711395693
C           -1.42268266541675       -1.24963184100171       -0.00000358923636
C            0.75540317124189       -2.44437856102388       -0.00004695130924
C            3.47692522701243        5.04625408761711        0.00011521965714
C           -5.04182647455727       -0.05386086795448        0.00022891143372
C            5.54443131431618        3.88739371314686        0.00024284850948
C           -2.85784237907492       -1.30460702266565        0.00005386024595
C           -0.66825145546626       -2.47275906619036       -0.00004417030703
C            1.50711479931806       -3.65022667998237       -0.00010515168193
C            1.34173158008929        3.84316450419088       -0.00007904946750
C            3.47875021342228        2.58470415788811        0.00010077056197
C           -4.94966027077016       -2.72589969431634        0.00017082441707
C           -2.76367771879043       -3.78444923171640       -0.00006744995058
C           -0.55873223875936       -4.89728450997042       -0.00014905243070
C           -0.87390884376589        2.45448315877099       -0.00012195885956
C            1.41786708100021        1.22571010264940        0.00001863949078
C            3.56101836575007        0.06731887144724        0.00007723439190
C           -4.80167738141296       -5.12688032721740       -0.00007644123919
C            5.65364271883904       -1.14912480526381        0.00007993826322
C           -2.93156209292201        1.17264186489787        0.00001531287699
C            5.81387098652161       -3.56148959159912       -0.00007460067930
C           -0.74258161317545       -0.01194355372151       -0.00001319238190
C            1.43971723906848       -1.20700733197594       -0.00000029459449
C            3.58590593609616       -2.40715675285328       -0.00002640679818
H           -6.97074145416414        3.39974322783715        0.00055662245247
H            1.34178236447549       -5.79412297252812       -0.00021304286462
H           -6.63872810955895       -4.03603084599381        0.00021969202847
H           -2.85867394946135       -5.93179376902857       -0.00031113356243
H           -6.80947191224351        1.13667271010047        0.00044214572987
H            5.95889566601046       -5.64426238116754       -0.00022481179000
H           -1.03617411045530       -5.86157490679860       -0.00017618755913
H           -5.26543613945319       -6.10127524497808       -0.00015578682205
H           -1.40685921875849        5.81126326943466       -0.00039377485705
H           -6.05168896570844        5.64565248025341        0.00012279643574
H            5.36955749918333        6.03251030413964        0.00026831718734
H            0.93908049530832        5.99189137753644       -0.00027493292343
H            2.92622419032152        5.97396130416512        0.00009419489992
H            6.62495309618158        3.90323245506591        0.00031069756045
H            6.73530996835237       -1.12784123246408        0.00010640030021
H            6.88718181672732       -3.40328551538937       -0.00005609487804
B           -5.52805763423784       -1.40065334763864        0.00029182352062
B           -3.85147302883842        4.96821205325951       -0.00062542010515
H           -3.39961456587779        6.04794971625650       -0.00119064767663
B            5.74995091514045        1.38152663072080        0.00020374221916
H            6.92145928362870        1.41387232791275        0.00026160030798
B            0.62903600694216        2.51014657706807       -0.00006202445055
B            3.76697160795603       -4.96238967394937       -0.00019970807706
H            3.30942676812621       -6.04107133219165       -0.00029217079670
73
 energy: -120.866878099450 gnorm: 0.001031708616 xtb: 6.7.1pre (5071a88)
C           -5.89904768010322        3.56590144766779        0.00025480252262
C           -0.84139547585672        4.89584041852616       -0.00027820807239
C           -5.37133197507907        4.80286075102215       -0.00002482616979
C           -3.00586778420386        3.66929118003267       -0.00025683467982
C           -5.08848173107755        2.37718615946916        0.00018593279475
C            4.84472408823873        5.08868995871655        0.00021680719364
C            0.51822447752494        4.99461901028075       -0.00020878701074
C            0.79788671692285       -4.86827804511026       -0.00015961712814
C            2.75699470020326        3.83058945267872        0.00004114391810
C            4.90045537223109        2.65582411478762        0.00018698374760
C           -3.50840561310818       -2.57839520039706        0.00005306714842
C           -1.32512169138115       -3.71704794221684       -0.00010099822945
C           -1.59088410123304        3.66698962334185       -0.00024702251605