73
 energy: -120.866879463579 gnorm: 0.000330649114 xtb: 6.7.1pre (5071a88)
C           -5.89993027726608        3.56552070184924        0.00036409664872
C           -0.84166344676828        4.89604055191605       -0.00026665998534
C           -5.37250194361678        4.80247379588228        0.00011137959801
C           -3.00644540076799        3.66939393849320       -0.00022079029390
C           -5.08906114227246        2.37691428278743        0.00018656814592
C            4.84541448343990        5.08902136851799        0.00021749709004
C            0.51798429797054        4.99485511896225       -0.00021218807632
C            0.79795700091327       -4.86859920602555       -0.00015576020084
C            2.75735543448701        3.83126863877068        0.00003576603039
C            4.90109892684634        2.65631157678294        0.00018389276439
C           -3.50838799042023       -2.57864648340000        0.00005247503730
C           -1.32527479138656       -3.71749128957425       -0.00010535844694
C           -1.59146063320571        3.66717049834625       -0.00019613747726
C            2.82804707783434        1.29539974028230        0.00004961955923
C           -5.56159972293539       -3.98248694701288        0.00011019887196
C            4.97649900383456        0.06617976008381        0.00011766086019
C           -3.42428454072929       -5.01537801240366       -0.00016385089013
C           -3.65332842605815        2.41109650601777       -0.00000837119835
C            5.01416818789557       -2.37396382290415       -0.00001058517785
C           -1.51342996901644        1.20135521234371       -0.00005348446193
C            0.70260098834217        0.01015136604378       -0.00001704795487
C            2.85834720018615       -1.17616154824036       -0.00000242970585
C           -5.72866233174016        1.16770888376828        0.00033132897993
C            2.92585256167022       -3.65350734487729       -0.00011674955632
C           -3.59238164547589       -0.08270757751322        0.00012028551984
C            5.28062049448903       -4.80120021549729       -0.00015812689575
C           -1.42226299449242       -1.25014284482578       -0.00001381710262
C            0.75602070785910       -2.44513199370058       -0.00007128834592
C            3.47820895915606        5.04720812102366        0.00011209161369
C           -5.04059311252745       -0.05472474582449        0.00027034469717
C            5.54559306549683        3.88845012505179        0.00024541942430
C           -2.85729081968561       -1.30486207535819        0.00005543552099
C           -0.66805845180080       -2.47365287946401       -0.00006362174653
C            1.50784472617607       -3.65118251685648       -0.00011751829691
C            1.34211637268405        3.84411385761041       -0.00008576382999
C            3.47965906046126        2.58560888515026        0.00008779818794
C           -4.94901821366630       -2.72436474569542        0.00016121250811
C           -2.76426249526268       -3.78531231788851       -0.00007543029715
C           -0.55901537317668       -4.89827193603977       -0.00014815002317
C           -0.87394694820277        2.45505315097494       -0.00011442962103
C            1.41870767636186        1.22606738343646       -0.00000052633877
C            3.56210090585836        0.06724654981072        0.00005935460868
C           -4.80427633193190       -5.12556190023220       -0.00007321873256
C            5.65464135571055       -1.14958198658737        0.00008219148889
C           -2.93157401228751        1.17291201653358        0.00001766569736
C            5.81519695397580       -3.56240336684873       -0.00006553991744
C           -0.74199051148693       -0.01190080994397       -0.00002196881229
C            1.44042366160248       -1.20754326691709       -0.00002777895055
C            3.58691069236708       -2.40771545121499       -0.00004283705249
H           -6.97251937918065        3.39904419189783        0.00054028698990
H            1.34167564845826       -5.79526856933163       -0.00018266276210
H           -6.64026152571846       -4.03327642547919        0.00020369506014
H           -2.86148518139423       -5.93263926875960       -0.00031054286337
H           -6.80981383482508        1.13566756142970        0.00050569518050
H            5.96081549045333       -5.64492233242779       -0.00020982971583
H           -1.03662472086534       -5.86283988220351       -0.00016352796575
H           -5.26897759783858       -6.09965421672941       -0.00013922407660
H           -1.40737824650689        5.81211909389241       -0.00032067746633
H           -6.05444435658524        5.64451132452095        0.00006267077388
H            5.37059972491703        6.03360074585503        0.00027544238563
H            0.93821244838918        5.99288574874082       -0.00025107993279
H            2.92773287645097        5.97512624071404        0.00009308032179
H            6.62624935861219        3.90435819612230        0.00031918267717
H            6.73644363013197       -1.12842088471850        0.00012393809495
H            6.88867956063431       -3.40445729493936       -0.00003934938876
B           -5.53166243918057       -1.40036240991210        0.00029685579079
B           -3.85340122307581        4.96805094489159       -0.00086504838866
H           -3.40148467370260        6.04785182781181       -0.00115170384642
B            5.75073737913455        1.38201934053176        0.00020667022518
H            6.92244419221747        1.41450843057535        0.00027948622681
B            0.62945393293120        2.51078710010113       -0.00006938065062
B            3.76836214197190       -4.96315384602298       -0.00021149216731
H            3.31002652513296       -6.04168136215422       -0.00029433796616
